      -----------------------------------------------------------      
     |                   =====================                   |     
     |                           x T B                           |     
     |                   =====================                   |     
     |                         S. Grimme                         |     
     |          Mulliken Center for Theoretical Chemistry        |     
     |                    University of Bonn                     |     
      -----------------------------------------------------------      

   * xtb version 6.7.1 (41059b4) compiled by 'michael@archlinux' on 2025-03-24

   xtb is free software: you can redistribute it and/or modify it under
   the terms of the GNU Lesser General Public License as published by
   the Free Software Foundation, either version 3 of the License, or
   (at your option) any later version.
   
   xtb is distributed in the hope that it will be useful,
   but WITHOUT ANY WARRANTY; without even the implied warranty of
   MERCHANTABILITY or FITNESS FOR A PARTICULAR PURPOSE.  See the
   GNU Lesser General Public License for more details.
   
   Cite this work as:
   * C. Bannwarth, E. Caldeweyher, S. Ehlert, A. Hansen, P. Pracht,
     J. Seibert, S. Spicher, S. Grimme, WIREs Comput. Mol. Sci., 2020, 11,
     e01493. DOI: 10.1002/wcms.1493
   
   for GFN2-xTB:
   * C. Bannwarth, S. Ehlert and S. Grimme., J. Chem. Theory Comput., 2019,
     15, 1652-1671. DOI: 10.1021/acs.jctc.8b01176
   for GFN1-xTB:
   * S. Grimme, C. Bannwarth, P. Shushkov, J. Chem. Theory Comput., 2017,
     13, 1989-2009. DOI: 10.1021/acs.jctc.7b00118
   for GFN0-xTB:
   * P. Pracht, E. Caldeweyher, S. Ehlert, S. Grimme, ChemRxiv, 2019, preprint.
     DOI: 10.26434/chemrxiv.8326202.v1
   for GFN-FF:
   * S. Spicher and S. Grimme, Angew. Chem. Int. Ed., 2020, 59, 15665-15673.
     DOI: 10.1002/anie.202004239
   
   for ALPB and GBSA implicit solvation:
   * S. Ehlert, M. Stahn, S. Spicher, S. Grimme, J. Chem. Theory Comput.,
     2021, 17, 4250-4261. DOI: 10.1021/acs.jctc.1c00471
   
   for ddCOSMO and CPCM-X implicit solvation:
   * M. Stahn, S. Ehlert, S. Grimme, J. Phys. Chem. A,
     2023, XX, XXXX-XXXX. DOI: 10.1021/acs.jpca.3c04382
   
   for DFT-D4:
   * E. Caldeweyher, C. Bannwarth and S. Grimme, J. Chem. Phys., 2017,
     147, 034112. DOI: 10.1063/1.4993215
   * E. Caldeweyher, S. Ehlert, A. Hansen, H. Neugebauer, S. Spicher,
     C. Bannwarth and S. Grimme, J. Chem. Phys., 2019, 150, 154122.
     DOI: 10.1063/1.5090222
   * E. Caldeweyher, J.-M. Mewes, S. Ehlert and S. Grimme, Phys. Chem. Chem. Phys.
     2020, 22, 8499-8512. DOI: 10.1039/D0CP00502A
   
   for sTDA-xTB:
   * S. Grimme and C. Bannwarth, J. Chem. Phys., 2016, 145, 054103.
     DOI: 10.1063/1.4959605
   
   in the mass-spec context:
   * V. Asgeirsson, C. Bauer and S. Grimme, Chem. Sci., 2017, 8, 4879.
     DOI: 10.1039/c7sc00601b
   * J. Koopman and S. Grimme, ACS Omega 2019, 4, 12, 15120-15133.
     DOI: 10.1021/acsomega.9b02011
   
   for metadynamics refer to:
   * S. Grimme, J. Chem. Theory Comput., 2019, 155, 2847-2862
     DOI: 10.1021/acs.jctc.9b00143
   
   for SPH calculations refer to:
   * S. Spicher and S. Grimme, J. Chem. Theory Comput., 2021, 17, 1701-1714
     DOI: 10.1021/acs.jctc.0c01306
   
   for ONIOM refer to:
   * C. Plett, A. Katbashev, S. Ehlert, S. Grimme, M. Bursch,
     Phys. Chem. Chem. Phys., 2023, 25, 17860-17868. DOI: 10.1039/D3CP02178E
   
   for DIPRO refer to:
   * J. Kohn, N. Gildemeister, S. Grimme, D. Fazzi, A. Hansen,
     J. Chem. Phys., 2023, just accepted.
   
   for PTB refer to:
   * S. Grimme, M. Mueller, A. Hansen, J. Chem. Phys., 2023, 158, 124111.
     DOI: 10.1063/5.0137838
   
   with help from (in alphabetical order)
   P. Atkinson, C. Bannwarth, F. Bohle, G. Brandenburg, E. Caldeweyher
   M. Checinski, S. Dohm, S. Ehlert, S. Ehrlich, I. Gerasimov, C. Hölzer
   A. Katbashev, J. Kohn, J. Koopman, C. Lavigne, S. Lehtola, F. März, M. Müller,
   F. Musil, H. Neugebauer, J. Pisarek, C. Plett, P. Pracht, F. Pultar,
   J. Seibert, P. Shushkov, S. Spicher, M. Stahn, M. Steiner, T. Strunk,
   J. Stückrath, T. Rose, and J. Unsleber
   
 * started run on 2025/04/09 at 01:31:51.538     
   ID    Z sym.   atoms
    1    6 C      1-3, 5-10
    2    7 N      4
    3    1 H      11-19

           -------------------------------------------------
          |                Calculation Setup                |
           -------------------------------------------------

          program call               : /usr/bin/xtb xtb_rrho.coord --gfn2 --ohess vtight --chrg 0 --enso --norestart -I rrho-xcontrol-inp --parallel 1
          coordinate file            : xtb_rrho.coord
          omp threads                :                     1


           -------------------------------------------------
          |                 G F N 2 - x T B                 |
           -------------------------------------------------

        Reference                      10.1021/acs.jctc.8b01176
      * Hamiltonian:
        H0-scaling (s, p, d)           1.850000    2.230000    2.230000
        zeta-weighting                 0.500000
      * Dispersion:
        s8                             2.700000
        a1                             0.520000
        a2                             5.000000
        s9                             5.000000
      * Repulsion:
        kExp                           1.500000    1.000000
        rExp                           1.000000
      * Coulomb:
        alpha                          2.000000
        third order                    shell-resolved
        anisotropic                    true
        a3                             3.000000
        a5                             4.000000
        cn-shift                       1.200000
        cn-exp                         4.000000
        max-rad                        5.000000


          ...................................................
          :                      SETUP                      :
          :.................................................:
          :  # basis functions                  49          :
          :  # atomic orbitals                  49          :
          :  # shells                           29          :
          :  # electrons                        50          :
          :  max. iterations                   250          :
          :  Hamiltonian                  GFN2-xTB          :
          :  restarted?                      false          :
          :  GBSA solvation                  false          :
          :  PC potential                    false          :
          :  electronic temp.          300.0000000     K    :
          :  accuracy                    1.0000000          :
          :  -> integral cutoff          0.2500000E+02      :
          :  -> integral neglect         0.1000000E-07      :
          :  -> SCF convergence          0.1000000E-05 Eh   :
          :  -> wf. convergence          0.1000000E-03 e    :
          :  Broyden damping             0.4000000          :
          :  net charge                          0          :
          :  unpaired electrons                  0          :
          ...................................................

 iter      E             dE          RMSdq      gap      omega  full diag
   1    -27.1923839 -0.271924E+02  0.400E+00    3.22       0.0  T
   2    -27.2398984 -0.475145E-01  0.261E+00    3.51       1.0  T
   3    -27.2404877 -0.589269E-03  0.138E+00    3.55       1.0  T
   4    -27.2448652 -0.437752E-02  0.585E-01    3.46       1.0  T
   5    -27.2497870 -0.492183E-02  0.120E-01    3.50       1.0  T
   6    -27.2498831 -0.961026E-04  0.591E-02    3.50       1.0  T
   7    -27.2499137 -0.305725E-04  0.225E-02    3.50       1.0  T
   8    -27.2499135  0.156562E-06  0.916E-03    3.50       2.5  T
   9    -27.2499144 -0.867838E-06  0.238E-03    3.50       9.6  T
  10    -27.2499144 -0.365023E-07  0.103E-03    3.50      22.2  T
  11    -27.2499145 -0.719477E-08  0.458E-04    3.50      50.0  T
  12    -27.2499145 -0.169243E-08  0.142E-04    3.50     162.0  T

   *** convergence criteria satisfied after 12 iterations ***

         #    Occupation            Energy/Eh            Energy/eV
      -------------------------------------------------------------
         1        2.0000           -0.6632789             -18.0487
       ...           ...                  ...                  ...
        19        2.0000           -0.4455108             -12.1230
        20        2.0000           -0.4418648             -12.0238
        21        2.0000           -0.4200676             -11.4306
        22        2.0000           -0.4102915             -11.1646
        23        2.0000           -0.4053309             -11.0296
        24        2.0000           -0.3741177             -10.1803
        25        2.0000           -0.3545042              -9.6466 (HOMO)
        26                         -0.2258825              -6.1466 (LUMO)
        27                         -0.1930935              -5.2543
        28                         -0.1531759              -4.1681
        29                         -0.0681640              -1.8548
        30                          0.0202596               0.5513
       ...                                ...                  ...
        49                          0.7045713              19.1724
      -------------------------------------------------------------
                  HL-Gap            0.1286217 Eh            3.5000 eV
             Fermi-level           -0.2901933 Eh           -7.8966 eV

 SCC (total)                   0 d,  0 h,  0 min,  0.009 sec
 SCC setup                      ...        0 min,  0.000 sec (  0.835%)
 Dispersion                     ...        0 min,  0.000 sec (  1.008%)
 classical contributions        ...        0 min,  0.000 sec (  0.229%)
 integral evaluation            ...        0 min,  0.001 sec ( 15.928%)
 iterations                     ...        0 min,  0.004 sec ( 45.962%)
 molecular gradient             ...        0 min,  0.003 sec ( 35.275%)
 printout                       ...        0 min,  0.000 sec (  0.687%)

         :::::::::::::::::::::::::::::::::::::::::::::::::::::
         ::                     SUMMARY                     ::
         :::::::::::::::::::::::::::::::::::::::::::::::::::::
         :: total energy             -26.785144043862 Eh    ::
         :: gradient norm              0.023032198649 Eh/a0 ::
         :: HOMO-LUMO gap              3.499975795727 eV    ::
         ::.................................................::
         :: SCC energy               -27.249868019609 Eh    ::
         :: -> isotropic ES            0.005344924475 Eh    ::
         :: -> anisotropic ES          0.006533777109 Eh    ::
         :: -> anisotropic XC          0.015398670955 Eh    ::
         :: -> dispersion             -0.016647193773 Eh    ::
         :: repulsion energy           0.464723975747 Eh    ::
         :: add. restraining           0.000000000000 Eh    ::
         :: total charge               0.000000000000 e     ::
         :::::::::::::::::::::::::::::::::::::::::::::::::::::

      ----------------------------------------------------------- 
     |                   =====================                   |
     |                        A N C O P T                        |
     |                   =====================                   |
     |               Approximate Normal Coordinate               |
     |                Rational Function Optimizer                |
      ----------------------------------------------------------- 

          ...................................................
          :                      SETUP                      :
          :.................................................:
          :   optimization level         verytight          :
          :   max. optcycles                   380          :
          :   ANC micro-cycles                  20          :
          :   degrees of freedom                51          :
          :.................................................:
          :   RF solver                   davidson          :
          :   write xtbopt.log                true          :
          :   linear?                        false          :
          :   energy convergence         0.1000000E-06 Eh   :
          :   grad. convergence          0.2000000E-03 Eh/α :
          :   maximum RF displ.          1.0000000          :
          :   Hlow (freq-cutoff)         0.1000000E-01      :
          :   Hmax (freq-cutoff)         5.0000000          :
          :   S6 in model hess.         20.0000000          :
          ...................................................

generating ANC from exact Hessian ...
Using Lindh-Hessian (1995)
 Shifting diagonal of input Hessian by    6.6696876289906604E-003
 Lowest  eigenvalues of input Hessian
    0.000000    0.000000    0.000000    0.000000    0.000000    0.000000
    0.010000    0.013185    0.016871    0.017283    0.021372    0.024442
    0.028271    0.040248    0.047923    0.053975    0.067354    0.069591
 Highest eigenvalues
    1.715113    1.815222    1.938767    1.955854    2.030546    2.143813


........................................................................
.............................. CYCLE    1 ..............................
........................................................................

 iter      E             dE          RMSdq      gap      omega  full diag
   1    -27.2499145 -0.272499E+02  0.689E-05    3.50       0.0  T
   2    -27.2499145 -0.205205E-10  0.432E-05    3.50     531.5  T
   3    -27.2499145 -0.861533E-11  0.275E-05    3.50     835.0  T
     SCC iter.                  ...        0 min,  0.001 sec
     gradient                   ...        0 min,  0.003 sec
 * total energy  :   -26.7851440 Eh     change       -0.6022560E-10 Eh
   gradient norm :     0.0230318 Eh/α   predicted     0.0000000E+00 (-100.00%)
   displ. norm   :     0.1152578 α      lambda       -0.1641349E-02
   maximum displ.:     0.0629294 α      in ANC's #25, #10, #9, ...

........................................................................
.............................. CYCLE    2 ..............................
........................................................................

 iter      E             dE          RMSdq      gap      omega  full diag
   1    -27.2686735 -0.272687E+02  0.121E-01    3.55       0.0  T
   2    -27.2686852 -0.117141E-04  0.708E-02    3.55       1.0  T
   3    -27.2686733  0.119160E-04  0.358E-02    3.55       1.0  T
   4    -27.2686883 -0.150141E-04  0.793E-03    3.55       2.9  T
   5    -27.2686891 -0.760772E-06  0.200E-03    3.55      11.5  T
   6    -27.2686891 -0.153841E-07  0.112E-03    3.55      20.5  T
   7    -27.2686891 -0.389176E-08  0.291E-04    3.55      78.7  T
   8    -27.2686891 -0.300016E-09  0.117E-04    3.55     195.6  T
     SCC iter.                  ...        0 min,  0.002 sec
     gradient                   ...        0 min,  0.003 sec
 * total energy  :   -26.7861357 Eh     change       -0.9916643E-03 Eh
   gradient norm :     0.0073854 Eh/α   predicted    -0.8315784E-03 ( -16.14%)
   displ. norm   :     0.0297621 α      lambda       -0.1064501E-03
   maximum displ.:     0.0155449 α      in ANC's #10, #25, #9, ...

........................................................................
.............................. CYCLE    3 ..............................
........................................................................

 iter      E             dE          RMSdq      gap      omega  full diag
   1    -27.2732902 -0.272733E+02  0.356E-02    3.56       0.0  T
   2    -27.2732931 -0.291201E-05  0.215E-02    3.56       1.1  T
   3    -27.2732929  0.197325E-06  0.131E-02    3.56       1.8  T
   4    -27.2732941 -0.122071E-05  0.371E-03    3.56       6.2  T
   5    -27.2732943 -0.128170E-06  0.762E-04    3.56      30.1  T
   6    -27.2732943 -0.442332E-08  0.357E-04    3.56      64.3  T
     SCC iter.                  ...        0 min,  0.002 sec
     gradient                   ...        0 min,  0.003 sec
 * total energy  :   -26.7861922 Eh     change       -0.5649151E-04 Eh
   gradient norm :     0.0019250 Eh/α   predicted    -0.5336440E-04 (  -5.54%)
   displ. norm   :     0.0090978 α      lambda       -0.3778585E-05
   maximum displ.:     0.0049585 α      in ANC's #2, #4, #3, ...

........................................................................
.............................. CYCLE    4 ..............................
........................................................................

 iter      E             dE          RMSdq      gap      omega  full diag
   1    -27.2732016 -0.272732E+02  0.857E-03    3.56       0.0  T
   2    -27.2732018 -0.272010E-06  0.533E-03    3.56       4.3  T
   3    -27.2732019 -0.509234E-07  0.303E-03    3.56       7.6  T
   4    -27.2732019 -0.440035E-07  0.120E-03    3.56      19.0  T
   5    -27.2732020 -0.115450E-07  0.209E-04    3.56     109.5  T
   6    -27.2732020 -0.420627E-09  0.811E-05    3.56     282.9  T
     SCC iter.                  ...        0 min,  0.002 sec
     gradient                   ...        0 min,  0.003 sec
 * total energy  :   -26.7861957 Eh     change       -0.3496858E-05 Eh
   gradient norm :     0.0004564 Eh/α   predicted    -0.2037398E-05 ( -41.74%)
   displ. norm   :     0.0085271 α      lambda       -0.7332291E-06
   maximum displ.:     0.0059334 α      in ANC's #2, #3, #4, ...

........................................................................
.............................. CYCLE    5 ..............................
........................................................................

 iter      E             dE          RMSdq      gap      omega  full diag
   1    -27.2729131 -0.272729E+02  0.423E-03    3.56       0.0  T
   2    -27.2729131 -0.480181E-08  0.244E-03    3.56       9.4  T
   3    -27.2729131  0.570360E-08  0.643E-04    3.56      35.7  T
   4    -27.2729131 -0.736665E-08  0.117E-04    3.56     195.5  T
     SCC iter.                  ...        0 min,  0.001 sec
     gradient                   ...        0 min,  0.003 sec
 * total energy  :   -26.7861965 Eh     change       -0.7587782E-06 Eh
   gradient norm :     0.0002238 Eh/α   predicted    -0.3774368E-06 ( -50.26%)
   displ. norm   :     0.0155261 α      lambda       -0.6331729E-06
   maximum displ.:     0.0115848 α      in ANC's #2, #3, #4, ...

........................................................................
.............................. CYCLE    6 ..............................
........................................................................

 iter      E             dE          RMSdq      gap      omega  full diag
   1    -27.2728766 -0.272729E+02  0.478E-03    3.56       0.0  T
   2    -27.2728766 -0.390743E-08  0.279E-03    3.56       8.2  T
   3    -27.2728766  0.409734E-08  0.567E-04    3.56      40.5  T
   4    -27.2728766 -0.497581E-08  0.138E-04    3.56     166.2  T
     SCC iter.                  ...        0 min,  0.001 sec
     gradient                   ...        0 min,  0.003 sec
 * total energy  :   -26.7861973 Eh     change       -0.8229644E-06 Eh
   gradient norm :     0.0003939 Eh/α   predicted    -0.3239886E-06 ( -60.63%)
   displ. norm   :     0.0390737 α      lambda       -0.1487582E-05
   maximum displ.:     0.0280147 α      in ANC's #2, #3, #4, ...

........................................................................
.............................. CYCLE    7 ..............................
........................................................................

 iter      E             dE          RMSdq      gap      omega  full diag
   1    -27.2727955 -0.272728E+02  0.103E-02    3.56       0.0  T
   2    -27.2727955 -0.710287E-08  0.616E-03    3.56       3.7  T
   3    -27.2727955  0.809938E-08  0.816E-04    3.56      28.1  T
   4    -27.2727955 -0.104976E-07  0.198E-04    3.56     115.9  T
     SCC iter.                  ...        0 min,  0.001 sec
     gradient                   ...        0 min,  0.003 sec
 * total energy  :   -26.7861994 Eh     change       -0.2113255E-05 Eh
   gradient norm :     0.0007882 Eh/α   predicted    -0.7447224E-06 ( -64.76%)
   displ. norm   :     0.6135783 α      lambda       -0.2307256E-04
   maximum displ.:     0.4482487 α      in ANC's #2, #3, #6, ...

........................................................................
.............................. CYCLE    8 ..............................
........................................................................

 iter      E             dE          RMSdq      gap      omega  full diag
   1    -27.2653528 -0.272654E+02  0.170E-01    3.56       0.0  T
   2    -27.2653708 -0.180404E-04  0.986E-02    3.56       1.0  T
   3    -27.2653706  0.228414E-06  0.207E-02    3.56       1.1  T
   4    -27.2653721 -0.153610E-05  0.583E-03    3.56       3.9  T
   5    -27.2653724 -0.296380E-06  0.294E-03    3.56       7.8  T
   6    -27.2653724 -0.137873E-07  0.931E-04    3.56      24.6  T
   7    -27.2653724 -0.846632E-08  0.290E-04    3.56      79.2  T
     SCC iter.                  ...        0 min,  0.002 sec
     gradient                   ...        0 min,  0.003 sec
 * total energy  :   -26.7856938 Eh     change        0.5055810E-03 Eh
   gradient norm :     0.0212572 Eh/α   predicted    -0.1349253E-04 (-102.67%)
   displ. norm   :     0.3253367 α      lambda       -0.1129000E-02
   maximum displ.:     0.2392905 α      in ANC's #2, #3, #6, ...

........................................................................
.............................. CYCLE    9 ..............................
........................................................................

 iter      E             dE          RMSdq      gap      omega  full diag
   1    -27.2715228 -0.272715E+02  0.103E-01    3.56       0.0  T
   2    -27.2715331 -0.103107E-04  0.584E-02    3.56       1.0  T
   3    -27.2715334 -0.251534E-06  0.150E-02    3.56       1.5  T
   4    -27.2715337 -0.351430E-06  0.373E-03    3.56       6.2  T
   5    -27.2715338 -0.108903E-06  0.207E-03    3.56      11.1  T
   6    -27.2715338 -0.109097E-07  0.720E-04    3.56      31.8  T
   7    -27.2715338 -0.521501E-08  0.247E-04    3.56      93.0  T
     SCC iter.                  ...        0 min,  0.002 sec
     gradient                   ...        0 min,  0.003 sec
 * total energy  :   -26.7862015 Eh     change       -0.5076848E-03 Eh
   gradient norm :     0.0052056 Eh/α   predicted    -0.6249891E-03 (  23.11%)
   displ. norm   :     0.0105944 α      lambda       -0.1734102E-04
   maximum displ.:     0.0062288 α      in ANC's #3, #2, #4, ...

........................................................................
.............................. CYCLE   10 ..............................
........................................................................

 iter      E             dE          RMSdq      gap      omega  full diag
   1    -27.2721240 -0.272721E+02  0.716E-03    3.56       0.0  T
   2    -27.2721241 -0.903463E-07  0.382E-03    3.56       6.0  T
   3    -27.2721241 -0.285102E-08  0.140E-03    3.56      16.4  T
   4    -27.2721241 -0.178732E-08  0.462E-04    3.56      49.7  T
   5    -27.2721241 -0.192132E-08  0.195E-04    3.56     117.9  T
     SCC iter.                  ...        0 min,  0.002 sec
     gradient                   ...        0 min,  0.003 sec
 * total energy  :   -26.7862152 Eh     change       -0.1367424E-04 Eh
   gradient norm :     0.0039173 Eh/α   predicted    -0.8704646E-05 ( -36.34%)
   displ. norm   :     0.0131109 α      lambda       -0.1937395E-04
   maximum displ.:     0.0100855 α      in ANC's #4, #3, #28, ...

........................................................................
.............................. CYCLE   11 ..............................
........................................................................

 iter      E             dE          RMSdq      gap      omega  full diag
   1    -27.2729147 -0.272729E+02  0.108E-02    3.56       0.0  T
   2    -27.2729148 -0.149640E-06  0.580E-03    3.56       4.0  T
   3    -27.2729148  0.123880E-08  0.198E-03    3.56      11.6  T
   4    -27.2729148 -0.122688E-07  0.570E-04    3.56      40.2  T
   5    -27.2729148 -0.290979E-08  0.253E-04    3.56      90.6  T
     SCC iter.                  ...        0 min,  0.002 sec
     gradient                   ...        0 min,  0.003 sec
 * total energy  :   -26.7862277 Eh     change       -0.1251772E-04 Eh
   gradient norm :     0.0025140 Eh/α   predicted    -0.9743900E-05 ( -22.16%)
   displ. norm   :     0.0131345 α      lambda        0.2808966E-05
   maximum displ.:     0.0101068 α      in ANC's #4, #3, #28, ...

........................................................................
.............................. CYCLE   12 ..............................
........................................................................

 iter      E             dE          RMSdq      gap      omega  full diag
   1    -27.2736994 -0.272737E+02  0.108E-02    3.56       0.0  T
   2    -27.2736996 -0.149120E-06  0.582E-03    3.56       3.9  T
   3    -27.2736996  0.498051E-09  0.196E-03    3.56      11.7  T
   4    -27.2736996 -0.115446E-07  0.558E-04    3.56      41.1  T
   5    -27.2736996 -0.267699E-08  0.251E-04    3.56      91.3  T
     SCC iter.                  ...        0 min,  0.002 sec
     gradient                   ...        0 min,  0.003 sec
 * total energy  :   -26.7862262 Eh     change        0.1443482E-05 Eh
   gradient norm :     0.0029258 Eh/α   predicted     0.1411092E-05 (  -2.24%)
   displ. norm   :     0.0171260 α      lambda       -0.1201828E-04
   maximum displ.:     0.0120665 α      in ANC's #2, #3, #6, ...

........................................................................
.............................. CYCLE   13 ..............................
........................................................................

 iter      E             dE          RMSdq      gap      omega  full diag
   1    -27.2731953 -0.272732E+02  0.691E-03    3.56       0.0  T
   2    -27.2731954 -0.723962E-07  0.379E-03    3.56       6.1  T
   3    -27.2731954 -0.338191E-08  0.122E-03    3.56      18.8  T
   4    -27.2731954 -0.788408E-09  0.314E-04    3.56      73.0  T
   5    -27.2731954 -0.498670E-09  0.171E-04    3.56     134.5  T
     SCC iter.                  ...        0 min,  0.002 sec
     gradient                   ...        0 min,  0.003 sec
 * total energy  :   -26.7862352 Eh     change       -0.8994017E-05 Eh
   gradient norm :     0.0019846 Eh/α   predicted    -0.5941296E-05 ( -33.94%)
   displ. norm   :     0.0841909 α      lambda       -0.3612451E-04
   maximum displ.:     0.0635703 α      in ANC's #2, #3, #6, ...

........................................................................
.............................. CYCLE   14 ..............................
........................................................................

 iter      E             dE          RMSdq      gap      omega  full diag
   1    -27.2722541 -0.272723E+02  0.239E-02    3.57       0.0  T
   2    -27.2722544 -0.361937E-06  0.138E-02    3.57       1.7  T
   3    -27.2722544 -0.271227E-08  0.279E-03    3.57       8.2  T
   4    -27.2722545 -0.128689E-07  0.918E-04    3.57      25.0  T
   5    -27.2722545 -0.104436E-07  0.425E-04    3.57      54.0  T
     SCC iter.                  ...        0 min,  0.002 sec
     gradient                   ...        0 min,  0.003 sec
 * total energy  :   -26.7862514 Eh     change       -0.1615337E-04 Eh
   gradient norm :     0.0026200 Eh/α   predicted    -0.9038936E-05 ( -44.04%)
   displ. norm   :     0.0612645 α      lambda       -0.4210647E-04
   maximum displ.:     0.0461758 α      in ANC's #2, #3, #6, ...

........................................................................
.............................. CYCLE   15 ..............................
........................................................................

 iter      E             dE          RMSdq      gap      omega  full diag
   1    -27.2719674 -0.272720E+02  0.166E-02    3.57       0.0  T
   2    -27.2719675 -0.653206E-07  0.978E-03    3.57       2.3  T
   3    -27.2719674  0.678620E-07  0.241E-03    3.57       9.5  T
   4    -27.2719675 -0.745162E-07  0.671E-04    3.57      34.2  T
   5    -27.2719675 -0.672960E-08  0.182E-04    3.57     126.3  T
     SCC iter.                  ...        0 min,  0.002 sec
     gradient                   ...        0 min,  0.003 sec
 * total energy  :   -26.7862639 Eh     change       -0.1251514E-04 Eh
   gradient norm :     0.0029626 Eh/α   predicted    -0.7027241E-05 ( -43.85%)
   displ. norm   :     0.1842765 α      lambda       -0.1906790E-03
   maximum displ.:     0.1391495 α      in ANC's #2, #3, #6, ...

........................................................................
.............................. CYCLE   16 ..............................
........................................................................

 iter      E             dE          RMSdq      gap      omega  full diag
   1    -27.2713133 -0.272713E+02  0.488E-02    3.57       0.0  T
   2    -27.2713138 -0.517554E-06  0.288E-02    3.57       1.0  T
   3    -27.2713133  0.543940E-06  0.678E-03    3.57       3.4  T
   4    -27.2713139 -0.603988E-06  0.184E-03    3.57      12.4  T
   5    -27.2713139 -0.488954E-07  0.552E-04    3.57      41.6  T
   6    -27.2713139 -0.264361E-09  0.227E-04    3.57     100.9  T
     SCC iter.                  ...        0 min,  0.003 sec
     gradient                   ...        0 min,  0.003 sec
 * total energy  :   -26.7862910 Eh     change       -0.2708001E-04 Eh
   gradient norm :     0.0050164 Eh/α   predicted    -0.2568133E-04 (  -5.16%)
   displ. norm   :     0.0604472 α      lambda       -0.1670007E-03
   maximum displ.:     0.0440987 α      in ANC's #2, #3, #4, ...

........................................................................
.............................. CYCLE   17 ..............................
........................................................................

 iter      E             dE          RMSdq      gap      omega  full diag
   1    -27.2720229 -0.272720E+02  0.185E-02    3.57       0.0  T
   2    -27.2720230 -0.134641E-06  0.107E-02    3.57       2.1  T
   3    -27.2720230  0.594478E-07  0.279E-03    3.57       8.2  T
   4    -27.2720230 -0.721802E-07  0.946E-04    3.57      24.3  T
   5    -27.2720231 -0.105364E-07  0.303E-04    3.57      75.7  T
     SCC iter.                  ...        0 min,  0.002 sec
     gradient                   ...        0 min,  0.003 sec
 * total energy  :   -26.7863204 Eh     change       -0.2938071E-04 Eh
   gradient norm :     0.0038385 Eh/α   predicted    -0.1833545E-04 ( -37.59%)
   displ. norm   :     0.1783117 α      lambda       -0.3715430E-03
   maximum displ.:     0.1314332 α      in ANC's #2, #3, #28, ...

........................................................................
.............................. CYCLE   18 ..............................
........................................................................

 iter      E             dE          RMSdq      gap      omega  full diag
   1    -27.2726046 -0.272726E+02  0.438E-02    3.57       0.0  T
   2    -27.2726047 -0.790277E-07  0.264E-02    3.57       1.0  T
   3    -27.2726045  0.160463E-06  0.367E-03    3.57       6.2  T
   4    -27.2726047 -0.197910E-06  0.725E-04    3.57      31.6  T
   5    -27.2726047 -0.298600E-08  0.372E-04    3.57      61.7  T
     SCC iter.                  ...        0 min,  0.002 sec
     gradient                   ...        0 min,  0.003 sec
 * total energy  :   -26.7863762 Eh     change       -0.5580510E-04 Eh
   gradient norm :     0.0042896 Eh/α   predicted    -0.3655441E-04 ( -34.50%)
   displ. norm   :     0.2690178 α      lambda       -0.1049450E-02
   maximum displ.:     0.1903662 α      in ANC's #2, #3, #28, ...

........................................................................
.............................. CYCLE   19 ..............................
........................................................................

 iter      E             dE          RMSdq      gap      omega  full diag
   1    -27.2740041 -0.272740E+02  0.677E-02    3.57       0.0  T
   2    -27.2740043 -0.241740E-06  0.406E-02    3.57       1.0  T
   3    -27.2740043  0.627820E-07  0.300E-03    3.57       7.6  T
   4    -27.2740044 -0.132809E-06  0.102E-03    3.57      22.6  T
   5    -27.2740044 -0.514476E-08  0.487E-04    3.57      47.2  T
   6    -27.2740044 -0.305338E-09  0.151E-04    3.57     152.2  T
     SCC iter.                  ...        0 min,  0.002 sec
     gradient                   ...        0 min,  0.003 sec
 * total energy  :   -26.7864997 Eh     change       -0.1235302E-03 Eh
   gradient norm :     0.0027627 Eh/α   predicted    -0.9406524E-04 ( -23.85%)
   displ. norm   :     0.3999193 α      lambda       -0.1387635E-02
   maximum displ.:     0.2888913 α      in ANC's #2, #3, #28, ...

........................................................................
.............................. CYCLE   20 ..............................
........................................................................

 iter      E             dE          RMSdq      gap      omega  full diag
   1    -27.2694821 -0.272695E+02  0.107E-01    3.58       0.0  T
   2    -27.2694898 -0.770629E-05  0.622E-02    3.58       1.0  T
   3    -27.2694898 -0.107685E-07  0.129E-02    3.58       1.8  T
   4    -27.2694902 -0.359684E-06  0.409E-03    3.58       5.6  T
   5    -27.2694903 -0.196444E-06  0.207E-03    3.58      11.1  T
   6    -27.2694904 -0.138171E-07  0.638E-04    3.58      36.0  T
   7    -27.2694904 -0.430470E-08  0.198E-04    3.58     116.0  T
     SCC iter.                  ...        0 min,  0.002 sec
     gradient                   ...        0 min,  0.003 sec
 * total energy  :   -26.7863970 Eh     change        0.1026999E-03 Eh
   gradient norm :     0.0145406 Eh/α   predicted    -0.1250890E-03 (-221.80%)
   displ. norm   :     0.2479522 α      lambda       -0.4099410E-02
   maximum displ.:     0.1437690 α      in ANC's #2, #3, #28, ...
 * RMSD in coord.:     0.4150484 α      energy gain  -0.1252959E-02 Eh

generating ANC from exact Hessian ...
Using Lindh-Hessian (1995)
 Shifting diagonal of input Hessian by    6.4187830990409915E-003
 Lowest  eigenvalues of input Hessian
    0.000000    0.000000    0.000000    0.000000    0.000000    0.000000
    0.010000    0.013336    0.017182    0.017495    0.022052    0.025427
    0.029534    0.042143    0.049603    0.055333    0.070065    0.071482
 Highest eigenvalues
    1.753263    1.866979    1.995641    2.004385    2.090307    2.200429


........................................................................
.............................. CYCLE   21 ..............................
........................................................................

 iter      E             dE          RMSdq      gap      omega  full diag
   1    -27.2720426 -0.272720E+02  0.974E-02    3.58       0.0  T
   2    -27.2720495 -0.684510E-05  0.556E-02    3.58       1.0  T
   3    -27.2720479  0.156469E-05  0.162E-02    3.58       1.4  T
   4    -27.2720498 -0.187618E-05  0.564E-03    3.58       4.1  T
   5    -27.2720503 -0.490130E-06  0.184E-03    3.58      12.5  T
   6    -27.2720503 -0.614917E-08  0.800E-04    3.58      28.7  T
   7    -27.2720503 -0.486115E-08  0.218E-04    3.58     105.3  T
     SCC iter.                  ...        0 min,  0.002 sec
     gradient                   ...        0 min,  0.003 sec
 * total energy  :   -26.7867042 Eh     change       -0.3071688E-03 Eh
   gradient norm :     0.0076820 Eh/α   predicted     0.0000000E+00 (-100.00%)
   displ. norm   :     0.0411335 α      lambda       -0.7190582E-04
   maximum displ.:     0.0315319 α      in ANC's #2, #5, #6, ...

........................................................................
.............................. CYCLE   22 ..............................
........................................................................

 iter      E             dE          RMSdq      gap      omega  full diag
   1    -27.2734043 -0.272734E+02  0.292E-02    3.58       0.0  T
   2    -27.2734045 -0.246822E-06  0.165E-02    3.58       1.4  T
   3    -27.2734044  0.127505E-06  0.389E-03    3.58       5.9  T
   4    -27.2734046 -0.177893E-06  0.901E-04    3.58      25.5  T
   5    -27.2734046 -0.807420E-08  0.400E-04    3.58      57.3  T
     SCC iter.                  ...        0 min,  0.002 sec
     gradient                   ...        0 min,  0.003 sec
 * total energy  :   -26.7867781 Eh     change       -0.7395582E-04 Eh
   gradient norm :     0.0042165 Eh/α   predicted    -0.4963799E-04 ( -32.88%)
   displ. norm   :     0.0723694 α      lambda       -0.7955368E-04
   maximum displ.:     0.0591816 α      in ANC's #2, #3, #6, ...

........................................................................
.............................. CYCLE   23 ..............................
........................................................................

 iter      E             dE          RMSdq      gap      omega  full diag
   1    -27.2742879 -0.272743E+02  0.399E-02    3.58       0.0  T
   2    -27.2742885 -0.561955E-06  0.223E-02    3.58       1.0  T
   3    -27.2742881  0.322813E-06  0.613E-03    3.58       3.7  T
   4    -27.2742886 -0.409977E-06  0.145E-03    3.58      15.8  T
   5    -27.2742886 -0.313615E-07  0.486E-04    3.58      47.2  T
   6    -27.2742886 -0.869104E-09  0.254E-04    3.58      90.4  T
     SCC iter.                  ...        0 min,  0.002 sec
     gradient                   ...        0 min,  0.003 sec
 * total energy  :   -26.7868287 Eh     change       -0.5057623E-04 Eh
   gradient norm :     0.0014833 Eh/α   predicted    -0.3998750E-04 ( -20.94%)
   displ. norm   :     0.0997016 α      lambda       -0.2897377E-04
   maximum displ.:     0.0816325 α      in ANC's #2, #3, #4, ...

........................................................................
.............................. CYCLE   24 ..............................
........................................................................

 iter      E             dE          RMSdq      gap      omega  full diag
   1    -27.2740526 -0.272741E+02  0.350E-02    3.58       0.0  T
   2    -27.2740531 -0.519623E-06  0.199E-02    3.58       1.2  T
   3    -27.2740526  0.553630E-06  0.729E-03    3.58       3.1  T
   4    -27.2740532 -0.636362E-06  0.179E-03    3.58      12.8  T
   5    -27.2740532 -0.477491E-07  0.428E-04    3.58      53.6  T
   6    -27.2740532 -0.521304E-09  0.212E-04    3.58     108.1  T
     SCC iter.                  ...        0 min,  0.002 sec
     gradient                   ...        0 min,  0.003 sec
 * total energy  :   -26.7868594 Eh     change       -0.3070210E-04 Eh
   gradient norm :     0.0028929 Eh/α   predicted    -0.1455221E-04 ( -52.60%)
   displ. norm   :     0.0743327 α      lambda       -0.3036855E-04
   maximum displ.:     0.0547093 α      in ANC's #2, #3, #4, ...

........................................................................
.............................. CYCLE   25 ..............................
........................................................................

 iter      E             dE          RMSdq      gap      omega  full diag
   1    -27.2736516 -0.272737E+02  0.193E-02    3.58       0.0  T
   2    -27.2736517 -0.104194E-06  0.115E-02    3.58       2.0  T
   3    -27.2736514  0.332402E-06  0.517E-03    3.58       4.4  T
   4    -27.2736518 -0.386391E-06  0.583E-04    3.58      39.3  T
   5    -27.2736518 -0.354359E-08  0.207E-04    3.58     111.0  T
     SCC iter.                  ...        0 min,  0.002 sec
     gradient                   ...        0 min,  0.003 sec
 * total energy  :   -26.7868865 Eh     change       -0.2714438E-04 Eh
   gradient norm :     0.0030191 Eh/α   predicted    -0.1526995E-04 ( -43.75%)
   displ. norm   :     0.1791028 α      lambda       -0.7004914E-04
   maximum displ.:     0.1277092 α      in ANC's #2, #3, #4, ...

........................................................................
.............................. CYCLE   26 ..............................
........................................................................

 iter      E             dE          RMSdq      gap      omega  full diag
   1    -27.2725190 -0.272725E+02  0.457E-02    3.58       0.0  T
   2    -27.2725195 -0.527606E-06  0.274E-02    3.58       1.0  T
   3    -27.2725179  0.153701E-05  0.110E-02    3.58       2.1  T
   4    -27.2725197 -0.176976E-05  0.129E-03    3.58      17.8  T
   5    -27.2725197 -0.148386E-07  0.545E-04    3.58      42.1  T
   6    -27.2725197 -0.178758E-09  0.321E-04    3.58      71.5  T
     SCC iter.                  ...        0 min,  0.002 sec
     gradient                   ...        0 min,  0.003 sec
 * total energy  :   -26.7869332 Eh     change       -0.4663616E-04 Eh
   gradient norm :     0.0048157 Eh/α   predicted    -0.3614915E-04 ( -22.49%)
   displ. norm   :     0.0946611 α      lambda       -0.3835728E-04
   maximum displ.:     0.0687522 α      in ANC's #2, #3, #4, ...

........................................................................
.............................. CYCLE   27 ..............................
........................................................................

 iter      E             dE          RMSdq      gap      omega  full diag
   1    -27.2723781 -0.272724E+02  0.241E-02    3.58       0.0  T
   2    -27.2723781 -0.362131E-07  0.144E-02    3.58       1.6  T
   3    -27.2723779  0.190063E-06  0.370E-03    3.58       6.2  T
   4    -27.2723781 -0.218227E-06  0.434E-04    3.58      52.9  T
   5    -27.2723781 -0.991029E-09  0.251E-04    3.58      91.4  T
     SCC iter.                  ...        0 min,  0.002 sec
     gradient                   ...        0 min,  0.003 sec
 * total energy  :   -26.7869640 Eh     change       -0.3078730E-04 Eh
   gradient norm :     0.0050248 Eh/α   predicted    -0.1935357E-04 ( -37.14%)
   displ. norm   :     0.1441924 α      lambda       -0.9653100E-04
   maximum displ.:     0.1060711 α      in ANC's #2, #3, #4, ...

........................................................................
.............................. CYCLE   28 ..............................
........................................................................

 iter      E             dE          RMSdq      gap      omega  full diag
   1    -27.2733521 -0.272734E+02  0.421E-02    3.59       0.0  T
   2    -27.2733526 -0.517199E-06  0.246E-02    3.59       1.0  T
   3    -27.2733524  0.236659E-06  0.487E-03    3.59       4.7  T
   4    -27.2733527 -0.277502E-06  0.155E-03    3.59      14.8  T
   5    -27.2733527 -0.404663E-07  0.573E-04    3.59      40.0  T
   6    -27.2733527 -0.841638E-09  0.266E-04    3.59      86.4  T
     SCC iter.                  ...        0 min,  0.002 sec
     gradient                   ...        0 min,  0.003 sec
 * total energy  :   -26.7870279 Eh     change       -0.6393293E-04 Eh
   gradient norm :     0.0031218 Eh/α   predicted    -0.4929508E-04 ( -22.90%)
   displ. norm   :     0.2504965 α      lambda       -0.7034991E-04
   maximum displ.:     0.1928386 α      in ANC's #2, #3, #4, ...

........................................................................
.............................. CYCLE   29 ..............................
........................................................................

 iter      E             dE          RMSdq      gap      omega  full diag
   1    -27.2718543 -0.272719E+02  0.653E-02    3.59       0.0  T
   2    -27.2718558 -0.150949E-05  0.386E-02    3.59       1.0  T
   3    -27.2718557  0.546660E-07  0.538E-03    3.59       4.3  T
   4    -27.2718559 -0.148676E-06  0.213E-03    3.59      10.8  T
   5    -27.2718559 -0.526638E-07  0.866E-04    3.59      26.5  T
   6    -27.2718559 -0.587654E-09  0.393E-04    3.59      58.3  T
     SCC iter.                  ...        0 min,  0.002 sec
     gradient                   ...        0 min,  0.003 sec
 * total energy  :   -26.7870290 Eh     change       -0.1053674E-05 Eh
   gradient norm :     0.0076301 Eh/α   predicted    -0.3738548E-04 (3448.11%)
   displ. norm   :     0.0747496 α      lambda       -0.1172599E-03
   maximum displ.:     0.0506173 α      in ANC's #2, #3, #4, ...

........................................................................
.............................. CYCLE   30 ..............................
........................................................................

 iter      E             dE          RMSdq      gap      omega  full diag
   1    -27.2742281 -0.272742E+02  0.313E-02    3.59       0.0  T
   2    -27.2742297 -0.161430E-05  0.174E-02    3.59       1.3  T
   3    -27.2742294  0.337017E-06  0.836E-03    3.59       2.7  T
   4    -27.2742298 -0.468934E-06  0.281E-03    3.59       8.2  T
   5    -27.2742299 -0.867352E-07  0.846E-04    3.59      27.1  T
   6    -27.2742299 -0.519226E-09  0.403E-04    3.59      56.9  T
     SCC iter.                  ...        0 min,  0.002 sec
     gradient                   ...        0 min,  0.003 sec
 * total energy  :   -26.7870816 Eh     change       -0.5263748E-04 Eh
   gradient norm :     0.0018181 Eh/α   predicted    -0.5896361E-04 (  12.02%)
   displ. norm   :     0.1243165 α      lambda       -0.2080562E-04
   maximum displ.:     0.0998761 α      in ANC's #2, #3, #4, ...

........................................................................
.............................. CYCLE   31 ..............................
........................................................................

 iter      E             dE          RMSdq      gap      omega  full diag
   1    -27.2741322 -0.272741E+02  0.315E-02    3.59       0.0  T
   2    -27.2741322 -0.673086E-07  0.189E-02    3.59       1.2  T
   3    -27.2741318  0.431333E-06  0.548E-03    3.59       4.2  T
   4    -27.2741323 -0.488638E-06  0.573E-04    3.59      40.0  T
   5    -27.2741323 -0.176332E-08  0.302E-04    3.59      75.9  T
     SCC iter.                  ...        0 min,  0.002 sec
     gradient                   ...        0 min,  0.003 sec
 * total energy  :   -26.7871077 Eh     change       -0.2613859E-04 Eh
   gradient norm :     0.0017234 Eh/α   predicted    -0.1051353E-04 ( -59.78%)
   displ. norm   :     0.2771286 α      lambda       -0.3654130E-04
   maximum displ.:     0.2208291 α      in ANC's #2, #3, #4, ...

........................................................................
.............................. CYCLE   32 ..............................
........................................................................

 iter      E             dE          RMSdq      gap      omega  full diag
   1    -27.2724588 -0.272725E+02  0.708E-02    3.59       0.0  T
   2    -27.2724599 -0.111808E-05  0.421E-02    3.59       1.0  T
   3    -27.2724599  0.304209E-07  0.433E-03    3.59       5.3  T
   4    -27.2724600 -0.122638E-06  0.164E-03    3.59      14.0  T
   5    -27.2724600 -0.306834E-07  0.778E-04    3.59      29.5  T
   6    -27.2724600 -0.429278E-09  0.277E-04    3.59      82.8  T
     SCC iter.                  ...        0 min,  0.002 sec
     gradient                   ...        0 min,  0.003 sec
 * total energy  :   -26.7871077 Eh     change        0.6790676E-07 Eh
   gradient norm :     0.0054123 Eh/α   predicted    -0.1889696E-04 (*******%)
   displ. norm   :     0.0764191 α      lambda       -0.5961994E-04
   maximum displ.:     0.0586803 α      in ANC's #2, #3, #4, ...

........................................................................
.............................. CYCLE   33 ..............................
........................................................................

 iter      E             dE          RMSdq      gap      omega  full diag
   1    -27.2738423 -0.272738E+02  0.247E-02    3.59       0.0  T
   2    -27.2738430 -0.635368E-06  0.140E-02    3.59       1.6  T
   3    -27.2738430 -0.280898E-07  0.353E-03    3.59       6.5  T
   4    -27.2738430 -0.106223E-07  0.802E-04    3.59      28.6  T
   5    -27.2738430 -0.150871E-08  0.436E-04    3.59      52.6  T
     SCC iter.                  ...        0 min,  0.002 sec
     gradient                   ...        0 min,  0.003 sec
 * total energy  :   -26.7871381 Eh     change       -0.3038688E-04 Eh
   gradient norm :     0.0015537 Eh/α   predicted    -0.2998662E-04 (  -1.32%)
   displ. norm   :     0.0282925 α      lambda        0.8581228E-05
   maximum displ.:     0.0192679 α      in ANC's #2, #4, #9, ...

........................................................................
.............................. CYCLE   34 ..............................
........................................................................

 iter      E             dE          RMSdq      gap      omega  full diag
   1    -27.2745740 -0.272746E+02  0.170E-02    3.59       0.0  T
   2    -27.2745742 -0.235339E-06  0.976E-03    3.59       2.4  T
   3    -27.2745740  0.216312E-06  0.544E-03    3.59       4.2  T
   4    -27.2745743 -0.312497E-06  0.892E-04    3.59      25.7  T
   5    -27.2745743 -0.642869E-08  0.335E-04    3.59      68.5  T
     SCC iter.                  ...        0 min,  0.002 sec
     gradient                   ...        0 min,  0.003 sec
 * total energy  :   -26.7871296 Eh     change        0.8456973E-05 Eh
   gradient norm :     0.0032631 Eh/α   predicted     0.4288829E-05 ( -49.29%)
   displ. norm   :     0.0209191 α      lambda       -0.1686549E-04
   maximum displ.:     0.0158732 α      in ANC's #3, #2, #9, ...

........................................................................
.............................. CYCLE   35 ..............................
........................................................................

 iter      E             dE          RMSdq      gap      omega  full diag
   1    -27.2742974 -0.272743E+02  0.117E-02    3.59       0.0  T
   2    -27.2742975 -0.816020E-07  0.697E-03    3.59       3.3  T
   3    -27.2742973  0.119303E-06  0.421E-03    3.59       5.5  T
   4    -27.2742975 -0.193601E-06  0.490E-04    3.59      46.8  T
   5    -27.2742975 -0.219045E-08  0.198E-04    3.59     116.1  T
     SCC iter.                  ...        0 min,  0.002 sec
     gradient                   ...        0 min,  0.003 sec
 * total energy  :   -26.7871420 Eh     change       -0.1236778E-04 Eh
   gradient norm :     0.0014363 Eh/α   predicted    -0.8461545E-05 ( -31.58%)
   displ. norm   :     0.0720562 α      lambda       -0.1022454E-04
   maximum displ.:     0.0465375 α      in ANC's #2, #3, #4, ...

........................................................................
.............................. CYCLE   36 ..............................
........................................................................

 iter      E             dE          RMSdq      gap      omega  full diag
   1    -27.2738089 -0.272738E+02  0.221E-02    3.59       0.0  T
   2    -27.2738091 -0.193216E-06  0.132E-02    3.59       1.7  T
   3    -27.2738086  0.508512E-06  0.741E-03    3.59       3.1  T
   4    -27.2738092 -0.668462E-06  0.760E-04    3.59      30.2  T
   5    -27.2738092 -0.525921E-08  0.349E-04    3.59      65.8  T
     SCC iter.                  ...        0 min,  0.002 sec
     gradient                   ...        0 min,  0.003 sec
 * total energy  :   -26.7871479 Eh     change       -0.5949810E-05 Eh
   gradient norm :     0.0017040 Eh/α   predicted    -0.5137085E-05 ( -13.66%)
   displ. norm   :     0.0170772 α      lambda       -0.2914628E-05
   maximum displ.:     0.0126439 α      in ANC's #2, #4, #3, ...

........................................................................
.............................. CYCLE   37 ..............................
........................................................................

 iter      E             dE          RMSdq      gap      omega  full diag
   1    -27.2740447 -0.272740E+02  0.555E-03    3.59       0.0  T
   2    -27.2740447 -0.200288E-07  0.326E-03    3.59       7.0  T
   3    -27.2740447  0.235456E-07  0.156E-03    3.59      14.7  T
   4    -27.2740447 -0.293640E-07  0.275E-04    3.59      83.5  T
   5    -27.2740447 -0.694452E-09  0.102E-04    3.59     224.2  T
     SCC iter.                  ...        0 min,  0.002 sec
     gradient                   ...        0 min,  0.003 sec
 * total energy  :   -26.7871513 Eh     change       -0.3403809E-05 Eh
   gradient norm :     0.0008640 Eh/α   predicted    -0.1457951E-05 ( -57.17%)
   displ. norm   :     0.0802971 α      lambda       -0.4639868E-05
   maximum displ.:     0.0593291 α      in ANC's #2, #3, #4, ...

........................................................................
.............................. CYCLE   38 ..............................
........................................................................

 iter      E             dE          RMSdq      gap      omega  full diag
   1    -27.2741432 -0.272741E+02  0.198E-02    3.59       0.0  T
   2    -27.2741433 -0.154508E-07  0.119E-02    3.59       1.9  T
   3    -27.2741432  0.374940E-07  0.170E-03    3.59      13.5  T
   4    -27.2741433 -0.459739E-07  0.295E-04    3.59      77.7  T
   5    -27.2741433 -0.280245E-09  0.163E-04    3.59     140.4  T
     SCC iter.                  ...        0 min,  0.002 sec
     gradient                   ...        0 min,  0.003 sec
 * total energy  :   -26.7871556 Eh     change       -0.4272647E-05 Eh
   gradient norm :     0.0005663 Eh/α   predicted    -0.2328432E-05 ( -45.50%)
   displ. norm   :     0.0557928 α      lambda       -0.1890392E-05
   maximum displ.:     0.0395173 α      in ANC's #2, #3, #4, ...

........................................................................
.............................. CYCLE   39 ..............................
........................................................................

 iter      E             dE          RMSdq      gap      omega  full diag
   1    -27.2742170 -0.272742E+02  0.135E-02    3.59       0.0  T
   2    -27.2742170 -0.727185E-08  0.815E-03    3.59       2.8  T
   3    -27.2742170  0.292893E-07  0.145E-03    3.59      15.8  T
   4    -27.2742170 -0.343544E-07  0.209E-04    3.59     110.0  T
   5    -27.2742170 -0.121652E-09  0.101E-04    3.59     227.6  T
     SCC iter.                  ...        0 min,  0.002 sec
     gradient                   ...        0 min,  0.003 sec
 * total energy  :   -26.7871571 Eh     change       -0.1497206E-05 Eh
   gradient norm :     0.0003931 Eh/α   predicted    -0.9500391E-06 ( -36.55%)
   displ. norm   :     0.0159193 α      lambda       -0.5119014E-06
   maximum displ.:     0.0103157 α      in ANC's #2, #3, #28, ...

........................................................................
.............................. CYCLE   40 ..............................
........................................................................

 iter      E             dE          RMSdq      gap      omega  full diag
   1    -27.2743417 -0.272743E+02  0.459E-03    3.59       0.0  T
   2    -27.2743417 -0.666162E-08  0.273E-03    3.59       8.4  T
   3    -27.2743417  0.516756E-08  0.715E-04    3.59      32.1  T
   4    -27.2743417 -0.621759E-08  0.208E-04    3.59     110.3  T
     SCC iter.                  ...        0 min,  0.002 sec
     gradient                   ...        0 min,  0.003 sec
 * total energy  :   -26.7871573 Eh     change       -0.2289160E-06 Eh
   gradient norm :     0.0002369 Eh/α   predicted    -0.2569703E-06 (  12.26%)
   displ. norm   :     0.0140604 α      lambda       -0.1513053E-06
   maximum displ.:     0.0107657 α      in ANC's #2, #3, #4, ...

........................................................................
.............................. CYCLE   41 ..............................
........................................................................

 iter      E             dE          RMSdq      gap      omega  full diag
   1    -27.2742548 -0.272743E+02  0.369E-03    3.59       0.0  T
   2    -27.2742548 -0.328099E-08  0.219E-03    3.59      10.5  T
   3    -27.2742548  0.115921E-08  0.371E-04    3.59      61.8  T
   4    -27.2742548 -0.144442E-08  0.138E-04    3.59     165.7  T
     SCC iter.                  ...        0 min,  0.002 sec
     gradient                   ...        0 min,  0.003 sec
 * total energy  :   -26.7871574 Eh     change       -0.7763989E-07 Eh
   gradient norm :     0.0001369 Eh/α   predicted    -0.7866537E-07 (   1.32%)
   displ. norm   :     0.0052960 α      lambda       -0.3807441E-07
   maximum displ.:     0.0038579 α      in ANC's #2, #3, #4, ...

   *** GEOMETRY OPTIMIZATION CONVERGED AFTER 41 ITERATIONS ***

------------------------------------------------------------------------
 total energy gain   :        -0.0020134 Eh       -1.2634 kcal/mol
 total RMSD          :         0.7264527 a0        0.3844 Å
 total power (kW/mol):        -0.1289282 (step)  -19.1010 (real)
------------------------------------------------------------------------

 ANCopt (total)                0 d,  0 h,  0 min,  0.277 sec
 optimizer setup                ...        0 min,  0.000 sec (  0.015%)
 model hessian                  ...        0 min,  0.003 sec (  1.099%)
 ANC generation                 ...        0 min,  0.000 sec (  0.168%)
 coordinate transformation      ...        0 min,  0.000 sec (  0.041%)
 single point calculation       ...        0 min,  0.269 sec ( 97.335%)
 optimization log               ...        0 min,  0.001 sec (  0.508%)
 hessian update                 ...        0 min,  0.000 sec (  0.063%)
 rational function              ...        0 min,  0.001 sec (  0.482%)

================
 final structure:
================
$coord
       -4.90405745435552        2.65380531872881       -0.02631414861594      C
       -3.04267769995406        0.54152097612395       -0.06841472656706      C
       -3.53613072797275       -1.98207868438011       -0.19732591449561      C
       -1.32380350803580       -3.33353558766019       -0.19484288200094      N
        0.65681955946387       -1.68967981729802       -0.06324615024456      C
       -0.35319200056807        0.78726662333063        0.02018214264052      C
        1.28556580628989        2.84622020511210        0.16081420562731      C
        3.84734034649341        2.39843260437812        0.21407437660605      C
        4.81627203850761       -0.05746542356613        0.13036441300623      C
        3.24413627784405       -2.12898213231531       -0.00882903220184      C
       -6.82225598054879        1.92240615015799       -0.11323213001668      H
       -4.69588580766783        3.76376304176685        1.69624691978992      H
       -4.60230882673873        3.91220599882386       -1.62866926737967      H
       -5.32522752313461       -2.93449859185779       -0.29206314450454      H
       -1.18907084626489       -5.22649956556745       -0.27745544387866      H
        0.55120693937888        4.74923431858252        0.22620638550290      H
        5.14841468134373        3.96812353831448        0.32274907528002      H
        6.83875968342743       -0.33019824938607        0.17604330822964      H
        3.99235061231270       -4.02786741203652       -0.07357153970134      H
$end

 Bond Distances (Angstroems)
 ---------------------------
C1-C2=1.4900         C1-H11=1.0873        C1-H12=1.0900        C1-H13=1.0899        C2-C1=1.4900         C2-C3=1.3624         
C2-C6=1.4299         C3-C2=1.3624         C3-N4=1.3719         C3-H14=1.0737        N4-C3=1.3719         N4-C5=1.3638         
N4-H15=1.0052        C5-N4=1.3638         C5-C6=1.4162         C5-C10=1.3890        C6-C2=1.4299         C6-C5=1.4162         
C6-C7=1.3945         C7-C6=1.3945         C7-C8=1.3765         C7-H16=1.0800        C8-C7=1.3765         C8-C9=1.3978         
C8-H17=1.0804        C9-C8=1.3978         C9-C10=1.3781        C9-H18=1.0802        C10-C5=1.3890        C10-C9=1.3781        
C10-H19=1.0806       H11-C1=1.0873        H12-C1=1.0900        H13-C1=1.0899        H14-C3=1.0737        H15-N4=1.0052        
H16-C7=1.0800        H17-C8=1.0804        H18-C9=1.0802        H19-C10=1.0806       
 C  H  Rav=1.0828 sigma=0.0054  Rmin=1.0737  Rmax=1.0900     8
 C  C  Rav=1.4038 sigma=0.0361  Rmin=1.3624  Rmax=1.4900     9
 N  H  Rav=1.0052 sigma=0.0000  Rmin=1.0052  Rmax=1.0052     1
 N  C  Rav=1.3679 sigma=0.0040  Rmin=1.3638  Rmax=1.3719     2

 selected bond angles (degree)
 --------------------
H11-C1-C2=110.46               H12-C1-C2=110.48               H12-C1-H11=108.76              H13-C1-C2=110.48               
H13-C1-H11=108.74              H13-C1-H12=107.85              C3-C2-C1=127.54                C6-C2-C1=126.10                
C6-C2-C3=106.35                N4-C3-C2=110.33                H14-C3-C2=129.16               H14-C3-N4=120.52               
C5-N4-C3=108.87                H15-N4-C3=125.45               H15-N4-C5=125.68               C6-C5-N4=107.57                
C10-C5-N4=130.68               C10-C5-C6=121.75               C5-C6-C2=106.88                C7-C6-C2=133.77                
C7-C6-C5=119.35                C8-C7-C6=118.62                H16-C7-C6=120.43               H16-C7-C8=120.95               
C9-C8-C7=121.38                H17-C8-C7=119.76               H17-C8-C9=118.86               C10-C9-C8=121.32               
H18-C9-C8=119.14               H18-C9-C10=119.54              C9-C10-C5=117.58               H19-C10-C5=121.07              
H19-C10-C9=121.34              

 selected dihedral angles (degree)
 ---------------------------------
C3-C2-C1-H11=  0.05           C3-C2-C1-H12=120.43           C3-C2-C1-H13=239.70           C6-C2-C1-H11=180.04           
C6-C2-C1-H12=300.42           C6-C2-C1-H13= 59.69           N4-C3-C2-C1=180.00            N4-C3-C2-C6=  0.00            
H14-C3-C2-C1=  0.00           H14-C3-C2-C6=180.00           C5-N4-C3-C2=  0.00            C5-N4-C3-H14=180.00           
H15-N4-C3-C2=180.02           H15-N4-C3-H14=  0.02          C6-C5-N4-C3=  0.00            C6-C5-N4-H15=179.98           
C10-C5-N4-C3=180.01           C10-C5-N4-H15=  0.00          C5-C6-C2-C1=180.01            C5-C6-C2-C3=  0.00            
C7-C6-C2-C1=  0.00            C7-C6-C2-C3=180.00            C2-C6-C5-N4=  0.00            C2-C6-C5-C10=180.00           
C7-C6-C5-N4=180.00            C7-C6-C5-C10=  0.00           C8-C7-C6-C2=180.00            C8-C7-C6-C5=  0.00            
H16-C7-C6-C2=  0.00           H16-C7-C6-C5=180.00           C9-C8-C7-C6=  0.00            C9-C8-C7-H16=180.00           
H17-C8-C7-C6=180.00           H17-C8-C7-H16=  0.00          C10-C9-C8-C7=  0.00           C10-C9-C8-H17=180.00          
H18-C9-C8-C7=180.00           H18-C9-C8-H17=  0.00          C9-C10-C5-N4=180.00           C9-C10-C5-C6=  0.00           
H19-C10-C5-N4=  0.00          H19-C10-C5-C6=180.00          C5-C10-C9-C8=  0.00           C5-C10-C9-H18=180.00          
H19-C10-C9-C8=180.00          H19-C10-C9-H18=  0.00         
           -------------------------------------------------
          |                Final Singlepoint                |
           -------------------------------------------------

          ...................................................
          :                      SETUP                      :
          :.................................................:
          :  # basis functions                  49          :
          :  # atomic orbitals                  49          :
          :  # shells                           29          :
          :  # electrons                        50          :
          :  max. iterations                   250          :
          :  Hamiltonian                  GFN2-xTB          :
          :  restarted?                      false          :
          :  GBSA solvation                  false          :
          :  PC potential                    false          :
          :  electronic temp.          300.0000000     K    :
          :  accuracy                    1.0000000          :
          :  -> integral cutoff          0.2500000E+02      :
          :  -> integral neglect         0.1000000E-07      :
          :  -> SCF convergence          0.1000000E-05 Eh   :
          :  -> wf. convergence          0.1000000E-03 e    :
          :  Broyden damping             0.4000000          :
          :  net charge                          0          :
          :  unpaired electrons                  0          :
          ...................................................

 iter      E             dE          RMSdq      gap      omega  full diag
   1    -27.2742548 -0.272743E+02  0.441E-05    3.59       0.0  T
   2    -27.2742548 -0.195755E-11  0.261E-05    3.59     880.6  T
   3    -27.2742548  0.222755E-11  0.160E-05    3.59    1433.4  T

   *** convergence criteria satisfied after 3 iterations ***

         #    Occupation            Energy/Eh            Energy/eV
      -------------------------------------------------------------
         1        2.0000           -0.6660546             -18.1243
       ...           ...                  ...                  ...
        19        2.0000           -0.4472633             -12.1707
        20        2.0000           -0.4433703             -12.0647
        21        2.0000           -0.4193887             -11.4121
        22        2.0000           -0.4086130             -11.1189
        23        2.0000           -0.4054906             -11.0340
        24        2.0000           -0.3743550             -10.1867
        25        2.0000           -0.3549922              -9.6598 (HOMO)
        26                         -0.2230072              -6.0683 (LUMO)
        27                         -0.1902420              -5.1767
        28                         -0.1481038              -4.0301
        29                         -0.0630446              -1.7155
        30                          0.0275668               0.7501
       ...                                ...                  ...
        49                          0.7272824              19.7904
      -------------------------------------------------------------
                  HL-Gap            0.1319850 Eh            3.5915 eV
             Fermi-level           -0.2889997 Eh           -7.8641 eV

 SCC (total)                   0 d,  0 h,  0 min,  0.006 sec
 SCC setup                      ...        0 min,  0.000 sec (  0.823%)
 Dispersion                     ...        0 min,  0.000 sec (  0.616%)
 classical contributions        ...        0 min,  0.000 sec (  0.259%)
 integral evaluation            ...        0 min,  0.001 sec ( 20.560%)
 iterations                     ...        0 min,  0.001 sec ( 22.409%)
 molecular gradient             ...        0 min,  0.003 sec ( 54.633%)
 printout                       ...        0 min,  0.000 sec (  0.584%)

         :::::::::::::::::::::::::::::::::::::::::::::::::::::
         ::                     SUMMARY                     ::
         :::::::::::::::::::::::::::::::::::::::::::::::::::::
         :: total energy             -26.787157395878 Eh    ::
         :: gradient norm              0.000137619119 Eh/a0 ::
         :: HOMO-LUMO gap              3.591494034469 eV    ::
         ::.................................................::
         :: SCC energy               -27.274207811637 Eh    ::
         :: -> isotropic ES            0.005445347773 Eh    ::
         :: -> anisotropic ES          0.006136962581 Eh    ::
         :: -> anisotropic XC          0.014813973775 Eh    ::
         :: -> dispersion             -0.016748268160 Eh    ::
         :: repulsion energy           0.487050415759 Eh    ::
         :: add. restraining           0.000000000000 Eh    ::
         :: total charge              -0.000000000000 e     ::
         :::::::::::::::::::::::::::::::::::::::::::::::::::::

           ------------------------------------------------- 
          |                Numerical Hessian                |
           ------------------------------------------------- 
step length          :   0.00500
SCC accuracy         :   0.30000
Hessian scale factor :   1.00000
frozen atoms in %    :   0.00000    0
RMS gradient         :   0.00014
estimated CPU  time      0.01 min
estimated wall time      0.01 min

writing file <hessian>, containing the non-mass-weighted Hessian matrix in atomic units (Eₕ/Bohr²).

 projected vibrational frequencies (cm⁻¹)
eigval :       -0.00    -0.00    -0.00    -0.00     0.00     0.00
eigval :      102.44   149.39   210.05   218.74   306.99   395.52
eigval :      447.68   453.95   522.68   545.74   548.80   575.84
eigval :      698.40   708.31   767.93   778.11   789.35   856.44
eigval :      865.42   898.31   919.93   997.27  1040.14  1064.70
eigval :     1070.94  1085.76  1159.09  1178.36  1209.93  1238.38
eigval :     1300.47  1327.07  1363.81  1392.10  1404.64  1429.44
eigval :     1480.64  1489.09  1499.17  1581.01  1593.53  1626.47
eigval :     2995.29  3009.58  3039.79  3067.47  3072.37  3081.94
eigval :     3090.55  3145.17  3489.70
           -------------------------------------------------
          |                Property Printout                |
           -------------------------------------------------

    * Orbital Energies and Occupations

         #    Occupation            Energy/Eh            Energy/eV
      -------------------------------------------------------------
         1        2.0000           -0.6660547             -18.1243
       ...           ...                  ...                  ...
        13        2.0000           -0.4966339             -13.5141
        14        2.0000           -0.4815322             -13.1032
        15        2.0000           -0.4746405             -12.9156
        16        2.0000           -0.4732194             -12.8770
        17        2.0000           -0.4649188             -12.6511
        18        2.0000           -0.4550780             -12.3833
        19        2.0000           -0.4472633             -12.1707
        20        2.0000           -0.4433703             -12.0647
        21        2.0000           -0.4193886             -11.4121
        22        2.0000           -0.4086130             -11.1189
        23        2.0000           -0.4054905             -11.0340
        24        2.0000           -0.3743550             -10.1867
        25        2.0000           -0.3549922              -9.6598 (HOMO)
        26                         -0.2230072              -6.0683 (LUMO)
        27                         -0.1902420              -5.1767
        28                         -0.1481038              -4.0301
        29                         -0.0630446              -1.7155
        30                          0.0275667               0.7501
        31                          0.1131129               3.0780
        32                          0.1357735               3.6946
        33                          0.1509659               4.1080
        34                          0.1596659               4.3447
        35                          0.1627408               4.4284
        36                          0.1819561               4.9513
       ...                                ...                  ...
        49                          0.7272825              19.7904
      -------------------------------------------------------------
                  HL-Gap            0.1319850 Eh            3.5915 eV
             Fermi-level           -0.2889997 Eh           -7.8641 eV

     #   Z          covCN         q      C6AA      α(0)
     1   6          3.754    -0.102    22.499     6.764
     2   6          3.049    -0.024    28.554     8.764
     3   6          3.035    -0.011    28.249     8.718
     4   7          2.777    -0.109    23.377     7.181
     5   6          3.084     0.044    26.927     8.506
     6   6          3.122    -0.020    28.327     8.716
     7   6          2.912    -0.036    28.894     8.814
     8   6          2.920    -0.043    29.067     8.841
     9   6          2.924    -0.037    28.930     8.821
    10   6          2.908    -0.054    29.347     8.883
    11   1          0.925     0.035     2.520     2.483
    12   1          0.925     0.042     2.421     2.433
    13   1          0.925     0.042     2.421     2.433
    14   1          0.926     0.026     2.641     2.541
    15   1          0.860     0.154     1.376     1.837
    16   1          0.926     0.027     2.632     2.537
    17   1          0.926     0.023     2.689     2.564
    18   1          0.926     0.024     2.670     2.555
    19   1          0.926     0.019     2.744     2.590

 Mol. C6AA /au·bohr⁶  :       4396.440977
 Mol. C8AA /au·bohr⁸  :     106681.334308
 Mol. α(0) /au        :        105.982818


Wiberg/Mayer (AO) data.
largest (>0.10) Wiberg bond orders for each atom

 ---------------------------------------------------------------------------
     #   Z sym  total        # sym  WBO       # sym  WBO       # sym  WBO
 ---------------------------------------------------------------------------
     1   6      3.997 --     2      1.029    11      0.986    12      0.975
                            13      0.975
     2   6      3.979 --     3      1.592     6      1.201     1      1.029
     3   6      3.948 --     2      1.592     4      1.182    14      0.970
     4   7      3.536 --     3      1.182     5      1.179    15      0.949
     5   6      3.959 --    10      1.339     6      1.246     4      1.179
     6   6      3.984 --     7      1.334     5      1.246     2      1.201
     7   6      3.993 --     8      1.503     6      1.334    16      0.970
                            10      0.113
     8   6      3.991 --     7      1.503     9      1.372    17      0.972
     9   6      3.991 --    10      1.492     8      1.372    18      0.972
    10   6      3.989 --     9      1.492     5      1.339    19      0.969
                             7      0.113
    11   1      0.998 --     1      0.986
    12   1      0.998 --     1      0.975
    13   1      0.998 --     1      0.975
    14   1      0.999 --     3      0.970
    15   1      0.976 --     4      0.949
    16   1      0.999 --     7      0.970
    17   1      0.999 --     8      0.972
    18   1      0.999 --     9      0.972
    19   1      0.999 --    10      0.969
 ---------------------------------------------------------------------------

Topologies differ in total number of bonds
Writing topology from bond orders to xtbtopo.mol

molecular dipole:
                 x           y           z       tot (Debye)
 q only:       -0.354      -0.434      -0.030
   full:       -0.374      -0.686      -0.042       1.990
molecular quadrupole (traceless):
                xx          xy          yy          xz          yz          zz
 q only:       -0.993       0.301       3.636       0.065       0.299      -2.643
  q+dip:        0.097       1.194       7.659       0.285       0.743      -7.756
   full:       -1.086       0.924       6.098       0.160       0.539      -5.012

           -------------------------------------------------
          |                Geometry Summary                 |
           -------------------------------------------------

      molecular mass/u    :      131.1747931
   center of mass at/Å    :       -0.0020335      -0.0015511      -0.0030465
  moments of inertia/u·Å² :        0.1918842E+03   0.3924788E+03   0.5812339E+03
rotational constants/cm⁻¹ :        0.8785317E-01   0.4295170E-01   0.2900318E-01

 * 20 selected distances

     #   Z          #   Z                                           value/Å
     1   6          2   6                                         1.4900125 (max)
     2   6          3   6                                         1.3624305
     3   6          4   7                                         1.3718693
     4   7          5   6                                         1.3638457
     2   6          6   6                                         1.4299123
     5   6          6   6                                         1.4162139
     6   6          7   6                                         1.3945196
     7   6          8   6                                         1.3764753
     8   6          9   6                                         1.3977966
     5   6         10   6                                         1.3890430
     9   6         10   6                                         1.3781149
     1   6         11   1                                         1.0873254
     1   6         12   1                                         1.0899713
     1   6         13   1                                         1.0899210
     3   6         14   1                                         1.0737144
     4   7         15   1                                         1.0051987 (min)
     7   6         16   1                                         1.0799653
     8   6         17   1                                         1.0804206
     9   6         18   1                                         1.0802122
    10   6         19   1                                         1.0805822

 * 4 distinct bonds (by element types)

   Z      Z             #   av. dist./Å        max./Å        min./Å
   1 H    6 C           8     1.0827641     1.0899713     1.0737144
   6 C    6 C           9     1.4038354     1.4900125     1.3624305
   1 H    7 N           1     1.0051987     1.0051987     1.0051987
   6 C    7 N           2     1.3678575     1.3718693     1.3638457

           -------------------------------------------------
          |               Frequency Printout                |
           -------------------------------------------------
 projected vibrational frequencies (cm⁻¹)
eigval :       -0.00    -0.00    -0.00    -0.00     0.00     0.00
eigval :      102.44   149.39   210.05   218.74   306.99   395.52
eigval :      447.68   453.95   522.68   545.74   548.80   575.84
eigval :      698.40   708.31   767.93   778.11   789.35   856.44
eigval :      865.42   898.31   919.93   997.27  1040.14  1064.70
eigval :     1070.94  1085.76  1159.09  1178.36  1209.93  1238.38
eigval :     1300.47  1327.07  1363.81  1392.10  1404.64  1429.44
eigval :     1480.64  1489.09  1499.17  1581.01  1593.53  1626.47
eigval :     2995.29  3009.58  3039.79  3067.47  3072.37  3081.94
eigval :     3090.55  3145.17  3489.70
 reduced masses (amu)
    1:      4.55    2:      5.23    3:      6.01    4:      6.08    5:      4.83    6:      5.21
    7:      1.02    8:      3.27    9:      3.88   10:      2.94   11:      4.27   12:      2.99
   13:      3.65   14:      1.61   15:      6.00   16:      2.69   17:      5.75   18:      2.82
   19:      7.73   20:      5.51   21:      1.27   22:      4.72   23:      1.26   24:      5.33
   25:      1.27   26:      1.33   27:      1.21   28:      1.54   29:      1.39   30:      1.70
   31:      2.98   32:      1.25   33:      1.27   34:      1.12   35:      1.42   36:      1.68
   37:      3.26   38:      2.43   39:      8.69   40:      3.10   41:      1.30   42:      4.37
   43:      1.06   44:      1.15   45:      3.81   46:      8.05   47:      8.09   48:      8.50
   49:      1.09   50:      1.05   51:      1.07   52:      1.08   53:      1.08   54:      1.08
   55:      1.09   56:      1.09   57:      1.07
 IR intensities (km·mol⁻¹)
    1:      0.20    2:      0.25    3:      0.12    4:      0.08    5:      0.20    6:      0.24
    7:      0.07    8:      0.62    9:      1.92   10:      0.42   11:      0.02   12:      6.24
   13:      1.21   14:     72.83   15:      0.46   16:     11.98   17:      0.82   18:      6.14
   19:      0.19   20:      0.49   21:     15.97   22:      2.59   23:     19.09   24:      0.45
   25:      0.01   26:      0.39   27:      0.01   28:      4.94   29:      4.05   30:      1.30
   31:      5.44   32:     12.40   33:      2.10   34:      1.88   35:      1.94   36:     14.28
Molecule has the following symmetry elements: (sigma) 
It seems to be the Cs point group
   37:     62.34   38:     18.20   39:     17.48   40:      4.71   41:      1.96   42:     31.78
   43:      3.15   44:      6.71   45:      5.99   46:      0.87   47:      0.77   48:      9.27
   49:     32.70   50:     29.02   51:     37.17   52:     13.96   53:     18.74   54:     85.17
   55:     60.86   56:     29.51   57:     10.01
 Raman intensities (Ä⁴*amu⁻¹)
    1:      0.00    2:      0.00    3:      0.00    4:      0.00    5:      0.00    6:      0.00
    7:      0.00    8:      0.00    9:      0.00   10:      0.00   11:      0.00   12:      0.00
   13:      0.00   14:      0.00   15:      0.00   16:      0.00   17:      0.00   18:      0.00
   19:      0.00   20:      0.00   21:      0.00   22:      0.00   23:      0.00   24:      0.00
   25:      0.00   26:      0.00   27:      0.00   28:      0.00   29:      0.00   30:      0.00
   31:      0.00   32:      0.00   33:      0.00   34:      0.00   35:      0.00   36:      0.00
   37:      0.00   38:      0.00   39:      0.00   40:      0.00   41:      0.00   42:      0.00
   43:      0.00   44:      0.00   45:      0.00   46:      0.00   47:      0.00   48:      0.00
   49:      0.00   50:      0.00   51:      0.00   52:      0.00   53:      0.00   54:      0.00
   55:      0.00   56:      0.00   57:      0.00
 output can be read by thermo (or use thermo option).
 writing <g98.out> molden fake output.
 recommended (thermochemical) frequency scaling factor: 1.0
           -------------------------------------------------
          |             Thermodynamic Functions             |
           -------------------------------------------------

cs  symmetry found (for desy threshold:  0.10E+00) used in thermo

          ...................................................
          :                      SETUP                      :
          :.................................................:
          :  # frequencies                          51      :
          :  # imaginary freq.                       0      :
          :  linear?                             false      :
          :  only rotor calc.                    false      :
          :  symmetry                               cs      :
          :  rotational number                       1      :
          :  scaling factor                  1.0000000      :
          :  rotor cutoff                    0.0000000 cm⁻¹ :
          :  imag. cutoff                 -100.0000000 cm⁻¹ :
          :.................................................:

    mode    ω/cm⁻¹     T·S(HO)/kcal·mol⁻¹    T·S(FR)/kcal·mol⁻¹   T·S(vib)
   ------------------------------------------------------------------------
       1    102.44    -1.01593 (100.00%)    -0.84396 (  0.00%)    -1.01593
       2    149.39    -0.79902 (100.00%)    -0.73221 (  0.00%)    -0.79902
       3    210.05    -0.60919 (100.00%)    -0.63129 (  0.00%)    -0.60919
       4    218.74    -0.58721 (100.00%)    -0.61928 (  0.00%)    -0.58721
   ------------------------------------------------------------------------

   temp. (K)  partition function   enthalpy   heat capacity  entropy
                                   cal/mol     cal/K/mol   cal/K/mol   J/K/mol
 298.15  VIB   40.2                 3433.074     27.276     18.855
         ROT  0.505E+06              888.727      2.981     29.079
         INT  0.203E+08             4321.802     30.257     47.934
         TR   0.460E+26             1481.212      4.968     40.527
         TOT                        5803.0143    35.2249    88.4604   370.1184

       T/K    H(0)-H(T)+PV         H(T)/Eh          T*S/Eh         G(T)/Eh
   ------------------------------------------------------------------------
    298.15    0.924769E-02    0.162532E+00    0.420304E-01    0.120501E+00
   ------------------------------------------------------------------------

         :::::::::::::::::::::::::::::::::::::::::::::::::::::
         ::                  THERMODYNAMIC                  ::
         :::::::::::::::::::::::::::::::::::::::::::::::::::::
         :: total free energy         -26.666656095678 Eh   ::
         ::.................................................::
         :: total energy              -26.787157395882 Eh   ::
         :: zero point energy           0.153284012552 Eh   ::
         :: G(RRHO) w/o ZPVE           -0.032782712348 Eh   ::
         :: G(RRHO) contrib.            0.120501300203 Eh   ::
         :::::::::::::::::::::::::::::::::::::::::::::::::::::

optimized geometry written to: xtbopt.coord


           -------------------------------------------------
          | TOTAL ENERGY              -26.787157395882 Eh   |
          | TOTAL ENTHALPY            -26.624625691419 Eh   |
          | TOTAL FREE ENERGY         -26.666656095678 Eh   |
          | GRADIENT NORM               0.000137552858 Eh/α |
          | HOMO-LUMO GAP               3.591493820042 eV   |
           -------------------------------------------------

------------------------------------------------------------------------
 * finished run on 2025/04/09 at 01:31:52.605     
------------------------------------------------------------------------
 total:
 * wall-time:     0 d,  0 h,  0 min,  1.067 sec
 *  cpu-time:     0 d,  0 h,  0 min,  1.058 sec
 * ratio c/w:     0.992 speedup
 SCF:
 * wall-time:     0 d,  0 h,  0 min,  0.009 sec
 *  cpu-time:     0 d,  0 h,  0 min,  0.009 sec
 * ratio c/w:     0.995 speedup
 ANC optimizer:
 * wall-time:     0 d,  0 h,  0 min,  0.283 sec
 *  cpu-time:     0 d,  0 h,  0 min,  0.280 sec
 * ratio c/w:     0.991 speedup
 analytical hessian:
 * wall-time:     0 d,  0 h,  0 min,  0.769 sec
 *  cpu-time:     0 d,  0 h,  0 min,  0.763 sec
 * ratio c/w:     0.992 speedup

