19
 energy: -26.785144043923 gnorm: 0.023031835506 xtb: 6.7.1 (41059b4)
C           -2.61561237823260        1.40445385931872        0.00074006934494
C           -1.61790230302295        0.28894722949820       -0.00107460322657
C           -1.88412978380717       -1.05726307245935       -0.00136415366532
N           -0.70009578510875       -1.77199302313244       -0.00014668521852
C            0.35840625693753       -0.89594883788626        0.00045977549268
C           -0.18787617731991        0.41671871565733        0.00023074160837
C            0.69075485192833        1.50919054232077        0.00041689301921
C            2.05640676206739        1.27541416817683        0.00028463846846
C            2.57166967128345       -0.03320675650365        0.00031664019850
C            1.73101647781723       -1.13620900089451        0.00043676335706
H           -3.28669743530775        1.35170196665745       -0.86303540934358
H           -3.23587749745278        1.39518520923212        0.90352816241728
H           -2.11065610735370        2.37269366769054       -0.03745035859755
H           -2.83579773694367       -1.57065829426733       -0.00256308961990
H           -0.62718938823280       -2.77338791256692       -0.00071117337133
H            0.30839006015371        2.52544066391451        0.00065701218693
H            2.74497542569006        2.11416905703949        0.00015659750191
H            3.64648603893301       -0.18246565029542        0.00016844758546
H            2.12889886985933       -2.14652932514028        0.00038721374914
19
 energy: -26.786135708175 gnorm: 0.007385436307 xtb: 6.7.1 (41059b4)
C           -2.60551644412263        1.40240040854804        0.00032979223453
C           -1.61063253911994        0.29118479077476       -0.00090491855697
C           -1.87414825150262       -1.04866501284690       -0.00113933931493
N           -0.70047181349312       -1.76383708428317       -0.00037832680165
C            0.35158771413275       -0.89088033768395        0.00029986691241
C           -0.18598554568823        0.42082252383307        0.00032697260354
C            0.68952454122951        1.50811787394867        0.00052699123171
C            2.04644948885134        1.27000114364349        0.00045697327925
C            2.55705075857876       -0.03224373330544        0.00041549930582
C            1.71982847626334       -1.12883847469543        0.00037790801727
H           -3.27266565444036        1.33217865937328       -0.86051231075739
H           -3.22058144287657        1.37681797024386        0.90177563485435
H           -2.09877909240326        2.36522624552446       -0.03843305070357
H           -2.82054650144639       -1.55808575543552       -0.00237586320263
H           -0.62949843925422       -2.76632174189413       -0.00108193545119
H            0.31092526526400        2.52113622644397        0.00074233941383
H            2.73566996623324        2.10302452585120        0.00039869055550
H            3.62816378356999       -0.18017029817598        0.00028695493760
H            2.11479555211236       -2.13561472350450        0.00032560332968
19
 energy: -26.786192199687 gnorm: 0.001925030981 xtb: 6.7.1 (41059b4)
C           -2.60393659370749        1.40207919407857        0.00028159249558
C           -1.60821900202150        0.29162722784186       -0.00098327582697
C           -1.87056424984613       -1.04666470584615       -0.00134513463918
N           -0.70050785129276       -1.76159737443998       -0.00054774593324
C            0.34906793449361       -0.89036151472109        0.00013975166618
C           -0.18491623131883        0.42194098748794        0.00017992192331
C            0.68942849542226        1.50871490190363        0.00055255773520
C            2.04444022251651        1.26894034008305        0.00059129249398
C            2.55386747627732       -0.03225520643142        0.00052288957053
C            1.71713862176305       -1.12715846586319        0.00036644530540
H           -3.26994105942517        1.32645773024712       -0.85906861228003
H           -3.21624780445079        1.37263586765968        0.90168667150514
H           -2.09733085811725        2.36249554285943       -0.03962858635143
H           -2.81656081777091       -1.55389023488834       -0.00251740253690
H           -0.63012066736985       -2.76434203741195       -0.00119246382007
H            0.31102636783179        2.52051856359505        0.00088326086817
H            2.73452251307858        2.10008468462907        0.00069071539961
H            3.62395816045909       -0.17939982020410        0.00053225584032
H            2.11006516536643       -2.13357247421939        0.00029334847159
19
 energy: -26.786195696546 gnorm: 0.000456401524 xtb: 6.7.1 (41059b4)
C           -2.60468522491863        1.40222241827417        0.00023811014344
C           -1.60772643235667        0.29184264594520       -0.00110559499380
C           -1.87004323088809       -1.04656852682554       -0.00151193546637
N           -0.70049194047989       -1.76130687754406       -0.00079696865747
C            0.34865098424875       -0.89080714437290       -0.00001768026932
C           -0.18434011393329        0.42209696397817        0.00011328443819
C            0.68979396159049        1.50932792890079        0.00068196376324
C            2.04481685729717        1.26911557702282        0.00082750636518
C            2.55420502724750       -0.03248163072543        0.00068077716874
C            1.71739598944533       -1.12711315955447        0.00032126502841
H           -3.27122661257784        1.32423752524097       -0.85810956996219
H           -3.21515742811362        1.37250197367565        0.90255313599794
H           -2.09847879515056        2.36228179684560       -0.04143007288008
H           -2.81713167270922       -1.55226233766742       -0.00269430170469
H           -0.63014696090277       -2.76409722470715       -0.00147049055775
H            0.31071950296837        2.52076653806152        0.00105447240485
H            2.73558950096061        2.09978225921758        0.00107329975255
H            3.62426999644455       -0.17921300926118        0.00080688000276
H            2.10915641371574       -2.13407251014454        0.00022340131354
19
 energy: -26.786196455324 gnorm: 0.000223780840 xtb: 6.7.1 (41059b4)
C           -2.60509959870702        1.40210142040370        0.00022390356545
C           -1.60757264427037        0.29199553193064       -0.00124805677797
C           -1.87013175403263       -1.04655918607071       -0.00178842990199
N           -0.70045497729935       -1.76131305369236       -0.00104151469860
C            0.34881615554035       -0.89093911350020       -0.00012582453758
C           -0.18410517055434        0.42207188560199        0.00005939030261
C            0.69010346758295        1.50942455439987        0.00081134989744
C            2.04510046626038        1.26921544445956        0.00107675085613
C            2.55451622773580       -0.03259690253800        0.00086474713443
C            1.71776931497488       -1.12714206289266        0.00031675957835
H           -3.27303402604170        1.32259644200560       -0.85694940156334
H           -3.21400710965181        1.37340935342563        0.90369334516365
H           -2.09945884788293        2.36249892331442       -0.04365161401925
H           -2.81783078508315       -1.55132581549278       -0.00308242682260
H           -0.63005618640148       -2.76413048151622       -0.00176652212573
H            0.31066270594301        2.52077672810159        0.00129308685562
H            2.73617580415240        2.09973128081384        0.00151263721416
H            3.62468038235691       -0.17915423883007        0.00109847220707
H            2.10909639726604       -2.13440750356406        0.00014082955932
19
 energy: -26.786197278288 gnorm: 0.000393926410 xtb: 6.7.1 (41059b4)
C           -2.60535828080408        1.40183799190640        0.00015606600007
C           -1.60731046740768        0.29220092920006       -0.00153004833480
C           -1.87004992242964       -1.04641174291560       -0.00232597096830
N           -0.70043767368178       -1.76121936754620       -0.00152414881887
C            0.34888435504934       -0.89090821589063       -0.00029678191870
C           -0.18389692431851        0.42214832457055        0.00007247063646
C            0.69043226036636        1.50951422921088        0.00119050104342
C            2.04530641492454        1.26925583897153        0.00161252415051
C            2.55464643674536       -0.03272227852030        0.00121580362257
C            1.71792715859261       -1.12711489172334        0.00031759657725
H           -3.27612160452440        1.31950442878457       -0.85454339740362
H           -3.21118347581427        1.37535611748570        0.90580126249844
H           -2.10053837214337        2.36253562508489       -0.04806939650985
H           -2.81821749394896       -1.55022597960341       -0.00388999466988
H           -0.62997855225513       -2.76405691197749       -0.00240558797691
H            0.31070383389584        2.52077106362432        0.00176983535500
H            2.73669830458325        2.09952293863369        0.00228543329492
H            3.62485749354444       -0.17913196342014        0.00158805096346
H            2.10880633151404       -2.13460292951572        0.00001326434603
19
 energy: -26.786199391543 gnorm: 0.000788212658 xtb: 6.7.1 (41059b4)
C           -2.60577747931151        1.40138190202359        0.00003501180440
C           -1.60694969254514        0.29256275331727       -0.00211992594845
C           -1.86990842816268       -1.04615143653991       -0.00395970030066
N           -0.70040857522586       -1.76105376832684       -0.00264009312169
C            0.34900016662812       -0.89072440024804       -0.00035420760931
C           -0.18364707552139        0.42234352314632        0.00043166976460
C            0.69097136234368        1.50965364224822        0.00235016346176
C            2.04567138691611        1.26927789189357        0.00280586600018
C            2.55486126795745       -0.03295113146099        0.00205749725403
C            1.71810209241375       -1.12711761846026        0.00068160875082
H           -3.28384323539855        1.31220082850851       -0.84828398628185
H           -3.20384976071722        1.38104182552293        0.91117115328868
H           -2.10249169308497        2.36246488795245       -0.05934605461113
H           -2.81871146558554       -1.54865946395065       -0.00674184755763
H           -0.62978710610878       -2.76389533598265       -0.00409031835036
H            0.31090057617649        2.52081578916550        0.00332424123601
H            2.73752960519895        2.09915981850897        0.00370033967312
H            3.62512819303934       -0.17921405732279        0.00236465989650
H            2.10837968287567       -2.13488244363544        0.00005140453817
19
 energy: -26.785693810510 gnorm: 0.021272370183 xtb: 6.7.1 (41059b4)
C           -2.61148425474662        1.39548996584813       -0.00227243969904
C           -1.60228963807712        0.29728015300752       -0.01194389130717
C           -1.86797642123403       -1.04277767863615       -0.02835605287071
N           -0.69996755145709       -1.75877868121270       -0.02070693606187
C            0.35048613298373       -0.88827691709470       -0.00227885091117
C           -0.18034338932228        0.42499403307514        0.00556236869732
C            0.69806386128774        1.51156301952916        0.01976365181446
C            2.05046550490494        1.26943834925413        0.02185311497167
C            2.55771177845399       -0.03603344879766        0.01495237136591
C            1.72038008192583       -1.12717938389221        0.00462853071979
H           -3.40463562532444        1.20004361569232       -0.74921070190586
H           -3.08674501477002        1.47336520094557        0.99489237487538
H           -2.12988258091482        2.36026297564771       -0.23752092358755
H           -2.82515024228699       -1.52825652450158       -0.04845343025822
H           -0.62699045565445       -2.76166619393291       -0.03122122884523
H            0.31365139851583        2.52150091993434        0.02711262701594
H            2.74845287043347        2.09429515211183        0.02829471368711
H            3.62868844672951       -0.18041249444367        0.01665432512738
H            2.10273492044076       -2.13859885617450       -0.00031214094096
19
 energy: -26.786201495296 gnorm: 0.005206147080 xtb: 6.7.1 (41059b4)
C           -2.60847149933366        1.39829504558885       -0.00082538771208
C           -1.60470779210539        0.29477729061869       -0.00669182490880
C           -1.86893846549823       -1.04453498428172       -0.01589033977251
N           -0.70013445985749       -1.75997052864672       -0.01106993969616
C            0.34977363009440       -0.88951141533772       -0.00101423698370
C           -0.18205374106135        0.42360708674070        0.00297626739683
C            0.69441560637195        1.51050713304944        0.01058378333421
C            2.04800189375934        1.26930031235522        0.01162479520206
C            2.55624046310137       -0.03444874086407        0.00822819545263
C            1.71920411673109       -1.12714142665126        0.00294371777234
H           -3.33992275006652        1.26012384670368       -0.80002392238646
H           -3.14866070624214        1.42514120497342        0.94908302321245
H           -2.11716563110090        2.36040169159791       -0.14267906727925
H           -2.82169604360563       -1.53884147502277       -0.02716890417552
H           -0.62836323945540       -2.76282698454210       -0.01675451949858
H            0.31229644574652        2.52108657833088        0.01439872555522
H            2.74280709489758        2.09674807908283        0.01468515354331
H            3.62684498610110       -0.17982554691747        0.00881053780464
H            2.10569991341130       -2.13663396041800        0.00022142502655
19
 energy: -26.786215169539 gnorm: 0.003917444088 xtb: 6.7.1 (41059b4)
C           -2.60799463350576        1.39865501344812       -0.00080528453382
C           -1.60498319144244        0.29450117583445       -0.00664785948861
C           -1.86908116461654       -1.04474435282955       -0.01547836448764
N           -0.70020329682223       -1.76013610966302       -0.01089062143020
C            0.34963905765579       -0.88966875320845       -0.00110365736941
C           -0.18228556531534        0.42343160613648        0.00273825346098
C            0.69393262582280        1.51039734024803        0.01017006862299
C            2.04764215994113        1.26932304151070        0.01142600058240
C            2.55601170978928       -0.03425115587272        0.00816850999600
C            1.71903354686515       -1.12713691772848        0.00281240807286
H           -3.33726258006621        1.26251642247493       -0.80036655145315
H           -3.14937898874127        1.42468482944224        0.94689832517166
H           -2.11662360850889        2.35957757707307       -0.14006535827115
H           -2.82139476581505       -1.53989912072211       -0.02628014988569
H           -0.62850389688025       -2.76298448325262       -0.01640834927069
H            0.31196959583852        2.52101465418228        0.01383781069974
H            2.74208452585122        2.09706713714807        0.01455169782667
H            3.62658479389046       -0.17967856385929        0.00883854613340
H            2.10598349794758       -2.13641613400234        0.00004205751081
19
 energy: -26.786227687256 gnorm: 0.002513986809 xtb: 6.7.1 (41059b4)
C           -2.60711461090645        1.39959502000819       -0.00086262999517
C           -1.60565845475787        0.29388509925612       -0.00682742701220
C           -1.86937465457135       -1.04516897049757       -0.01508305795295
N           -0.70034639095759       -1.76043669217272       -0.01098081247114
C            0.34934579867433       -0.88996280443143       -0.00152333512767
C           -0.18282754304822        0.42308043551299        0.00230039785027
C            0.69283823048466        1.51016713556325        0.00969919143184
C            2.04686080994920        1.26932820881399        0.01151018239496
C            2.55551571421787       -0.03381443118783        0.00821189337419
C            1.71861850902762       -1.12714218058186        0.00234502485825
H           -3.33505368378191        1.26499170560195       -0.79934846143797
H           -3.14798183740237        1.42613989563260        0.94516381488355
H           -2.11471150457987        2.35810037393138       -0.13923579201482
H           -2.82056341985687       -1.54255813029707       -0.02511495852606
H           -0.62884929582917       -2.76325418330692       -0.01636441587547
H            0.31134895707662        2.52090824656174        0.01318361156377
H            2.74045140518838        2.09775571890065        0.01521120515075
H            3.62599449334722       -0.17946320273773        0.00954302028692
H            2.10667729961370       -2.13589803820997       -0.00038996949388
19
 energy: -26.786226243774 gnorm: 0.002926260476 xtb: 6.7.1 (41059b4)
C           -2.60623271926873        1.40053711034443       -0.00092019523167
C           -1.60633517502233        0.29326760448997       -0.00700756335216
C           -1.86966872013506       -1.04559451421134       -0.01468725620284
N           -0.70048975910054       -1.76073786037063       -0.01107162462330
C            0.34905188258251       -0.89025744852805       -0.00194392013109
C           -0.18337066081660        0.42272855900385        0.00186158969054
C            0.69174147896114        1.50993645576767        0.00922778603226
C            2.04607780482515        1.26933331693265        0.01159496503844
C            2.55501860721783       -0.03337675261035        0.00825561550585
C            1.71820247938050       -1.12714745639180        0.00187682512046
H           -3.33284392627777        1.26746956074475       -0.79832703721940
H           -3.14657914531950        1.42760035473308        0.94342894349116
H           -2.11279420050679        2.35662077194435       -0.13840929424659
H           -2.81973007969501       -1.54522333686665       -0.02394837278660
H           -0.62919544789051       -2.76352438252542       -0.01632122351151
H            0.31072723658536        2.52080168956869        0.01252916366224
H            2.73881470794276        2.09844576740052        0.01587268490087
H            3.62540280258434       -0.17924751601897        0.01024910131352
H            2.10737265584118       -2.13537871704698       -0.00082270556302
19
 energy: -26.786235237791 gnorm: 0.001984693993 xtb: 6.7.1 (41059b4)
C           -2.60645574680585        1.40035048582923       -0.00094698684275
C           -1.60621192176048        0.29331944830959       -0.00721835665734
C           -1.86958612698300       -1.04556043396588       -0.01544071048911
N           -0.70041723255478       -1.76070498034238       -0.01152966440841
C            0.34914305813288       -0.89021278049824       -0.00192521482792
C           -0.18324896626989        0.42277445663192        0.00200359114636
C            0.69195906139254        1.50996084823601        0.00972196445131
C            2.04623940474347        1.26930994463135        0.01209718748631
C            2.55511559039206       -0.03345162841723        0.00866910885084
C            1.71829380062318       -1.12714198612796        0.00211437508149
H           -3.33678087507076        1.26447244484287       -0.79627303343945
H           -3.14383939289847        1.43012389775684        0.94642932855547
H           -2.11297588089649        2.35707136329812       -0.14341580613303
H           -2.81981481354454       -1.54490242988283       -0.02523470009832
H           -0.62908987599028       -2.76350141101772       -0.01702940982069
H            0.31091755625019        2.52081741338882        0.01329948025173
H            2.73912576995166        2.09830190713509        0.01644970810404
H            3.62550171909925       -0.17932354258205        0.01049154787276
H            2.10729469407724       -2.13544981086576       -0.00082492719612
19
 energy: -26.786251391166 gnorm: 0.002620672308 xtb: 6.7.1 (41059b4)
C           -2.60593779279606        1.40081557199875       -0.00123898607844
C           -1.60671304103995        0.29256978370363       -0.00851815726277
C           -1.86964677166881       -1.04614637818322       -0.01887102223120
N           -0.70026353421944       -1.76115548095896       -0.01397938465392
C            0.34913904321990       -0.89059442787484       -0.00244382651999
C           -0.18353929226465        0.42232179871727        0.00257623265826
C            0.69120775228583        1.50962718399959        0.01186951336824
C            2.04570152529781        1.26924964214187        0.01490133631127
C            2.55481250442145       -0.03308112651324        0.01061265246407
C            1.71818578056605       -1.12708679373158        0.00233758716015
H           -3.35281833041824        1.25343358908191       -0.78261019145964
H           -3.12665871237010        1.44644431818576        0.95779495316267
H           -2.11194514567296        2.35613321232893       -0.16810457847063
H           -2.81896006527619       -1.54739446995135       -0.03012658558419
H           -0.62914051423566       -2.76399518301272       -0.02060662038349
H            0.31062475043045        2.52056592710670        0.01597350168623
H            2.73798837991920        2.09872869626350        0.02049254743780
H            3.62509781257098       -0.17918601470048        0.01301461013067
H            2.10803547313835       -2.13499664224172       -0.00163609984791
19
 energy: -26.786263906310 gnorm: 0.002963732046 xtb: 6.7.1 (41059b4)
C           -2.60523912796344        1.40155696902507       -0.00142819154871
C           -1.60745272876455        0.29190659986736       -0.00936466223216
C           -1.86993450292634       -1.04667280558500       -0.02156598213306
N           -0.70026219399762       -1.76174036953737       -0.01569958108274
C            0.34908675755722       -0.89104529747812       -0.00273279389297
C           -0.18402812250939        0.42179115240027        0.00318540745318
C            0.69022235391729        1.50928919756281        0.01333492442579
C            2.04506989155954        1.26933278520603        0.01715181258072
C            2.55448688733595       -0.03261843768258        0.01235678143612
C            1.71804671513413       -1.12709287285547        0.00247786667886
H           -3.36299728230024        1.24652297167906       -0.77129810618518
H           -3.11319561879176        1.45921485805337        0.96446671531761
H           -2.11136297117190        2.35429902819047       -0.18559524324497
H           -2.81813250219257       -1.55009828161655       -0.03349995165562
H           -0.62939224143312       -2.76467869989858       -0.02302531966609
H            0.31001829714397        2.52040870539255        0.01703147309601
H            2.73664272861698        2.09945828008050        0.02355546977392
H            3.62471887611617       -0.17898735420148        0.01509400495640
H            2.10887460655763       -2.13459322224258       -0.00300714218993
19
 energy: -26.786290986318 gnorm: 0.005020012848 xtb: 6.7.1 (41059b4)
C           -2.60271597163203        1.40370230698974       -0.00225107514459
C           -1.60940608570569        0.29001068652790       -0.01190195359641
C           -1.87081233327924       -1.04803042830387       -0.02839774634347
N           -0.70046794873250       -1.76303777467208       -0.02120899814834
C            0.34864507091873       -0.89220629263503       -0.00366994311178
C           -0.18539255861011        0.42042164641661        0.00465400061169
C            0.68726142300786        1.50842091664732        0.01745436505693
C            2.04304744141439        1.26951718679556        0.02349317970836
C            2.55334858084764       -0.03129124679465        0.01686983059066
C            1.71739452704185       -1.12703824061414        0.00255544440752
H           -3.39218806815860        1.22501390971720       -0.73621159525663
H           -3.07141371474584        1.49702572300928        0.98277205420092
H           -2.11073372402457        2.34763430542969       -0.23834410411340
H           -2.81595083787098       -1.55759397165986       -0.04306419742557
H           -0.63040310951222       -2.76605735622520       -0.03125081336164
H            0.30800666963742        2.51988898809882        0.02160200735838
H            2.73248562655067        2.10146056007925        0.03293862220123
H            3.62340464364178       -0.17829160959468        0.02144351676479
H            2.11106019109937       -2.13329610285208       -0.00604511251147
19
 energy: -26.786320367027 gnorm: 0.003840620890 xtb: 6.7.1 (41059b4)
C           -2.60135340001053        1.40485330933710       -0.00264761441105
C           -1.61028368260988        0.28917895266120       -0.01266487586686
C           -1.87127146847883       -1.04854173137196       -0.03017669156489
N           -0.70066477649950       -1.76347393273717       -0.02299320010812
C            0.34831684678265       -0.89269659245651       -0.00416114582208
C           -0.18604245472777        0.41985058711835        0.00498017457651
C            0.68577863980779        1.50806808662845        0.01881467126707
C            2.04201799527393        1.26956084378602        0.02555439277437
C            2.55271557470722       -0.03068745820025        0.01817161864925
C            1.71693633661411       -1.12705655968355        0.00233192480731
H           -3.39947645699955        1.21974649629725       -0.72308318007142
H           -3.05643255949122        1.50985246676894        0.98585875683329
H           -2.11116557700896        2.34369753266050       -0.25494845268056
H           -2.81489079514538       -1.56112308748388       -0.04554856208955
H           -0.63106834413049       -2.76644921577964       -0.03391153183464
H            0.30696052148893        2.51965931445380        0.02331837043502
H            2.73032439368197        2.10241358100647        0.03608531483484
H            3.62266873865580       -0.17797344531881        0.02343459672716
H            2.11210028997765       -2.13262594132653       -0.00697708456850
19
 energy: -26.786376172125 gnorm: 0.004292479210 xtb: 6.7.1 (41059b4)
C           -2.59932427650923        1.40578926368722       -0.00375969835331
C           -1.61076493030849        0.28828842587034       -0.01536424758780
C           -1.87174886002941       -1.04891209406027       -0.03526490391779
N           -0.70098819091856       -1.76361740201357       -0.02845081557727
C            0.34778351779453       -0.89321783252122       -0.00566820035154
C           -0.18651572652834        0.41921256649541        0.00508773691366
C            0.68407743529717        1.50772327754799        0.02342314622784
C            2.04052072156141        1.26957983150823        0.03115197522472
C            2.55165527988482       -0.03004059730927        0.02136394677611
C            1.71634007364065       -1.12690852263962        0.00246871819495
H           -3.42506741628181        1.19737256749333       -0.68554213382346
H           -3.01394563343128        1.54361998577187        0.99823266285654
H           -2.11778982749243        2.33413725086397       -0.30619402574577
H           -2.81419906298290       -1.56352437931459       -0.05472209782517
H           -0.63203178441294       -2.76640903037144       -0.04218809660046
H            0.30503722389398        2.51901648075430        0.03160496121917
H            2.72774152663465        2.10312362131940        0.04458811722562
H            3.62148393377098       -0.17721305988859        0.02781727031759
H            2.11290581830514       -2.13176714683370       -0.00714683328648
19
 energy: -26.786499702317 gnorm: 0.002765033027 xtb: 6.7.1 (41059b4)
C           -2.59821427300917        1.40463816985838       -0.00548458900356
C           -1.60934338074221        0.28851276493238       -0.01970699344186
C           -1.87167692435359       -1.04846262581778       -0.04233734076875
N           -0.70127801024790       -1.76278646961835       -0.03628665352939
C            0.34738286256853       -0.89314285889804       -0.00842864850828
C           -0.18583469340082        0.41923748142243        0.00451804759120
C            0.68415261405504        1.50803626308488        0.03132655838709
C            2.03989120172812        1.26963919047818        0.03889142390330
C            2.55097421333589       -0.03031191203795        0.02482701374518
C            1.71621913206015       -1.12676468713272        0.00283628254441
H           -3.46119308613429        1.16160240794221       -0.62513541643644
H           -2.95057935729334        1.59084620183532        1.01052101902798
H           -2.14013967202685        2.31661643851289       -0.38201192936279
H           -2.81601777063954       -1.55859867894769       -0.06922291117210
H           -0.63249587677326       -2.76510627434089       -0.05397950914049
H            0.30261911890226        2.51802168050426        0.04716478602696
H            2.72776800411133        2.10221220319813        0.05649287769734
H            3.62092084688201       -0.17610065878167        0.03225119417351
H            2.11201487286555       -2.13183542983420       -0.00479772984613
19
 energy: -26.786397002447 gnorm: 0.014603030883 xtb: 6.7.1 (41059b4)
C           -2.59759132445583        1.40336236598102       -0.00714792987014
C           -1.60850917368790        0.28807161307797       -0.02605004325119
C           -1.87143782317639       -1.04899347608853       -0.05663174540706
N           -0.70115117733088       -1.76336578842488       -0.04739105166352
C            0.34736613819179       -0.89383219925311       -0.01206891970323