
                                 *****************
                                 * O   R   C   A *
                                 *****************

                                            #,                                       
                                            ###                                      
                                            ####                                     
                                            #####                                    
                                            ######                                   
                                           ########,                                 
                                     ,,################,,,,,                         
                               ,,#################################,,                 
                          ,,##########################################,,             
                       ,#########################################, ''#####,          
                    ,#############################################,,   '####,        
                  ,##################################################,,,,####,       
                ,###########''''           ''''###############################       
              ,#####''   ,,,,##########,,,,          '''####'''          '####       
            ,##' ,,,,###########################,,,                        '##       
           ' ,,###''''                  '''############,,,                           
         ,,##''                                '''############,,,,        ,,,,,,###''
      ,#''                                            '''#######################'''  
     '                                                          ''''####''''         
             ,#######,   #######,   ,#######,      ##                                
            ,#'     '#,  ##    ##  ,#'     '#,    #''#        ,####,   ,####,        
            ##       ##  ##   ,#'  ##            #'  '#       #'       #'  '#        
            ##       ##  #######   ##           ,######,      #####,   #    #        
            '#,     ,#'  ##    ##  '#,     ,#' ,#      #,     #,   #   #,  ,#        
             '#######'   ##     ##  '#######'  #'      '#     '####' # '####'        



                #########################################################
                #                        -***-                          #
                #          Department of theory and spectroscopy        #
                #                                                       #
                #                      Frank Neese                      #
                #                                                       #
                #     Directorship, Architecture, Infrastructure        #
                #                    SHARK, DRIVERS                     #
                #        Core code/Algorithms in most modules           #
                #                                                       #
                #        Max Planck Institute fuer Kohlenforschung      #
                #                Kaiser Wilhelm Platz 1                 #
                #                 D-45470 Muelheim/Ruhr                 #
                #                      Germany                          #
                #                                                       #
                #                  All rights reserved                  #
                #                        -***-                          #
                #########################################################


                         Program Version 6.0.1  -  RELEASE   -


 With contributions from (in alphabetic order):
[Max-Planck-Institut fuer Kohlenforschung]                               
  Daniel Aravena         : Magnetic Suceptibility                        
  Michael Atanasov       : Ab Initio Ligand Field Theory (pilot matlab implementation)
  Alexander A. Auer      : GIAO ZORA, VPT2 properties, NMR spectrum      
  Ute Becker             : All parallelization in ORCA, NUMFREQ, NUMCALC 
  Giovanni Bistoni       : ED, misc. LED, open-shell LED, HFLD           
  Martin Brehm           : Molecular dynamics                            
  Dmytro Bykov           : pre 5.0 version of the SCF Hessian            
  Marcos Casanova-Páez   : Triplet and SCS-CIS(D). UHF-(DLPNO)-IP/EA/STEOM-CCSD. UHF-CVS-IP/STEOM-CCSD   
  Vijay G. Chilkuri      : MRCI spin determinant printing, contributions to CSF-ICE 
  Pauline Colinet        : FMM embedding                                 
  Dipayan Datta          : RHF DLPNO-CCSD density                        
  Achintya Kumar Dutta   : EOM-CC, STEOM-CC                              
  Nicolas Foglia         : Exact transition moments, OPA infrastructure, MCD improvements    
  Dmitry Ganyushin       : Spin-Orbit,Spin-Spin,Magnetic field MRCI      
  Miquel Garcia-Rates    : C-PCM and meta-GGA Hessian, CCSD/C-PCM, Gaussian charge scheme 
  Tiago L. C. Gouveia    : GS-ROHF, GS-ROCIS                             
  Yang Guo               : DLPNO-NEVPT2, F12-NEVPT2, CIM, IAO-localization        
  Andreas Hansen         : Spin unrestricted coupled pair/coupled cluster methods 
  Ingolf Harden          : AUTO-CI MPn and infrastructure                
  Benjamin Helmich-Paris : MC-RPA, TRAH-(SCF,CASSCF), AVAS, COSX integrals, SCF dyn. polar. 
  Lee Huntington         : MR-EOM, pCC                                   
  Robert Izsak           : Overlap fitted RIJCOSX, COSX-SCS-MP3, EOM     
  Riya Kayal             : Wick's Theorem for AUTO-CI, AUTO-CI UHF-CCSDT 
  Emily Kempfer          : AUTO-CI, RHF CISDT and CCSDT                  
  Christian Kollmar      : KDIIS, OOCD, Brueckner-CCSD(T), CCSD density, CASPT2, CASPT2-K, improved NEVPT2 
  Axel Koslowski         : Symmetry handling                             
  Simone Kossmann        : meta-GGA functionals, TD-DFT gradient, OOMP2, (MP2 Hessian; deprecated post 5.0) 
  Lucas Lang             : DCDCAS                                        
  Marvin Lechner         : AUTO-CI (C++ implementation), FIC-MRCC        
  Spencer Leger          : CASSCF response                               
  Dagmar Lenk            : GEPOL surface, SMD, ORCA-2-JSON               
  Dimitrios Liakos       : Extrapolation schemes; Compound Job, initial MDCI parallelization 
  Dimitrios Manganas     : Further ROCIS development; embedding schemes. LFT, Crystal Embedding 
  Dimitrios Pantazis     : SARC Basis sets                               
  Anastasios Papadopoulos: AUTO-CI, single reference methods and gradients 
  Taras Petrenko         : pre 6.0 DFT Hessian and TD-DFT gradient, (ASA, deprecated), ECA, 1-Electron XAS/XES, NRVS 
  Peter Pinski           : DLPNO-MP2, DLPNO-MP2 Gradient                 
  Christoph Reimann      : Effective Core Potentials                     
  Marius Retegan         : Local ZFS, SOC                                
  Christoph Riplinger    : Optimizer, TS searches, QM/MM, DLPNO-CCSD(T), (RO)-DLPNO pert. Triples 
  Michael Roemelt        : Original ROCIS implementation                 
  Masaaki Saitow         : Open-shell DLPNO-CCSD energy and density      
  Barbara Sandhoefer     : DKH picture change effects                    
  Kantharuban Sivalingam : CASSCF convergence/infrastructure, NEVPT2 and variants, FIC-MRCI 
  Bernardo de Souza      : ESD, SOC TD-DFT                               
  Georgi L. Stoychev     : AutoAux, RI-MP2 NMR, DLPNO-MP2 response, X2C  
  Van Anh Tran           : RI-MP2 g-tensors                              
  Willem Van den Heuvel  : Paramagnetic NMR                              
  Zikuan Wang            : NOTCH, Electric field optimization            
  Frank Wennmohs         : Technical directorship and infrastructure     
  Hang Xu                : AUTO-CI-Response properties                   
                                                                         
[FACCTs GmbH]                                                            
  Markus Bursch, Miquel Garcia-Rates, Christoph Riplinger, Bernardo de Souza, Georgi L. Stoychev 
                                                                 
  APM, Basis sets (HGBS, AHGBS, def-TZVP (Ac-Lr), def2-XVPD (La-Lu)), CI-OPT, improved COSX, DLPNO-Multilevel,           
  DOCKER, DRACO, updates on ESD, GOAT, IRC, LR-CPCM, MBIS, meta-GGA TD-DFT gradient, ML-optimized integration grids, 
  MM, NACMEs, nearIR, NEB, NEB-TS, NL-DFT gradient (VV10), 2- and 3-layer-ONIOM, interface openCOSMO-RS, QMMM,   
  Crystal-QMMM, SF, symmetry and pop. for TD-DFT, r2SCAN hybrids, SOLVATOR                                   
                                                                         
[Other institutions]                                                     
  V. Asgeirsson          : NEB                                           
  Christoph Bannwarth    : sTDA-DFT, sTD-DFT, PBEh-3c, B97-3c, D3        
  Sebastian Ehlert       : rSCAN, r2SCAN, r2SCAN-3c, D4, dhf basis sets  
  Marvin Friede          : D4 for Fr, Ra, Ac-Lr                          
  Lars Goerigk           : TD-DFT with DH, B97 family of functionals     
  Stefan Grimme          : VdW corrections, initial TS optimization, DFT functionals, gCP, sTDA/sTD-DF 
  Waldemar Hujo          : DFT-NL                                        
  H. Jonsson             : NEB                                           
  Holger Kruse           : gCP                                           
  Marcel Mueller         : wB97X-3c, vDZP basis set                      
  Hagen Neugebauer       : wr2SCAN                                       
  Tobias Risthaus        : range-separated hybrid DFT                    
  Lukas Wittmann         : regularized MP2, r2SCAN double-hybrids, wr2SCAN        
                                                                         
We gratefully acknowledge several colleagues who have allowed us to      
interface, adapt or use parts of their codes:                            
  Ed Valeev, F. Pavosevic, A. Kumar             : LibInt (2-el integral package), F12 methods 
  Garnet Chan, S. Sharma, J. Yang, R. Olivares  : DMRG                   
  Ulf Ekstrom                                   : XCFun DFT Library      
  Mihaly Kallay                                 : mrcc  (arbitrary order and MRCC methods)
  Frank Weinhold                                : gennbo (NPA and NBO analysis)           
  Simon Mueller                                 : openCOSMO-RS                            
  Christopher J. Cramer and Donald G. Truhlar   : smd solvation model                     
  S Lehtola, MJT Oliveira, MAL Marques          : LibXC Library                           
  Liviu Ungur et al                             : ANISO software                          


 Your calculation uses the libint2 library for the computation of 2-el integrals
 For citations please refer to: http://libint.valeyev.net

 Your ORCA version has been built with support for libXC version: 6.2.2
 For citations please refer to: https://libxc.gitlab.io

 This ORCA versions uses:
   CBLAS   interface :  Fast vector & matrix operations
   LAPACKE interface :  Fast linear algebra routines
   SCALAPACK package :  Parallel linear algebra routines
   Shared memory     :  Shared parallel matrices
   BLAS/LAPACK       :  OpenBLAS 0.3.27  USE64BITINT DYNAMIC_ARCH NO_AFFINITY Zen SINGLE_THREADED
        Core in use  :  Zen
   Copyright (c) 2011-2014, The OpenBLAS Project


Your calculation utilizes the geometrical counterpoise correction gCP
Please cite in your paper:
H.Kruse, S. Grimme J.Chem.Phys., 136, (2012), 154101 
   

Your calculation utilizes the DFT-NL dispersion correction.
Cite in your paper:
Vydrov, O. A.; Van Voorhis, T. J. Chem. Phys. 2010, 133, 244103
Hujo, W.; Grimme, S. J. Chem. Theory Comput. 2011, 7, 3866 
   

================================================================================

----- Orbital basis set information -----
Your calculation utilizes the basis: def2-TZVP
   F. Weigend and R. Ahlrichs, Phys. Chem. Chem. Phys. 7, 3297 (2005).

----- AuxJ basis set information -----
Your calculation utilizes the auxiliary basis: def2/J
   F. Weigend, Phys. Chem. Chem. Phys. 8, 1057 (2006).

================================================================================
                                        WARNINGS
                       Please study these warnings very carefully!
================================================================================


================================================================================
                                       INPUT FILE
================================================================================
NAME = sp.inp
|  1> ! wb97x-v def2-tzvp def2/J RIJCOSX DEFGRID2 scfconv7 GCP(DFT/TZ) printgap
|  2> %output
|  3>     printlevel normal
|  4> end
|  5> * xyz 0 1
|  6> C 0.7549670619393722 -1.2579327604139903 -0.47440254146297794
|  7> C 0.005167394637285982 4.117833637461481e-05 -0.034171123683774805
|  8> C -1.4204917918475244 -0.0013720617388468562 -0.570994046459411
|  9> C 0.7522259323553775 1.2599084971536223 -0.4736367291950921
| 10> O -0.13975600658291995 -0.0005525997941511256 1.404075876587177
| 11> H 1.7723902427795668 -1.2648778439892252 -0.06648629056132709
| 12> H 0.2335840537903865 -2.150496572188979 -0.11763697029892757
| 13> H 0.8322718259537596 -1.309501678564434 -1.5654232094321103
| 14> H -1.9543291893497918 -0.8884867873836934 -0.21940622301726906
| 15> H -1.4201466441332429 -0.001383475784173014 -1.6646714466217196
| 16> H -1.9561513104598949 0.8846524253037732 -0.21942284461159262
| 17> H 1.769785662504233 1.2686049663102144 -0.06608575746356053
| 18> H 0.8290280401671896 1.3125473268731462 -1.5646420392629556
| 19> H 0.22912106709920305 2.151093456634447 -0.11594314217183613
| 20> H 0.7455183250987657 0.0006129264377658878 1.7864405686475109
| 21> *
| 22> 
| 23>                          ****END OF INPUT****
================================================================================

                       ****************************
                       * Single Point Calculation *
                       ****************************

---------------------------------
CARTESIAN COORDINATES (ANGSTROEM)
---------------------------------
  C      0.754967   -1.257933   -0.474403
  C      0.005167    0.000041   -0.034171
  C     -1.420492   -0.001372   -0.570994
  C      0.752226    1.259908   -0.473637
  O     -0.139756   -0.000553    1.404076
  H      1.772390   -1.264878   -0.066486
  H      0.233584   -2.150497   -0.117637
  H      0.832272   -1.309502   -1.565423
  H     -1.954329   -0.888487   -0.219406
  H     -1.420147   -0.001383   -1.664671
  H     -1.956151    0.884652   -0.219423
  H      1.769786    1.268605   -0.066086
  H      0.829028    1.312547   -1.564642
  H      0.229121    2.151093   -0.115943
  H      0.745518    0.000613    1.786441

----------------------------
CARTESIAN COORDINATES (A.U.)
----------------------------
  NO LB      ZA    FRAG     MASS         X           Y           Z
   0 C     6.0000    0    12.011    1.426681   -2.377148   -0.896491
   1 C     6.0000    0    12.011    0.009765    0.000078   -0.064574
   2 C     6.0000    0    12.011   -2.684340   -0.002593   -1.079022
   3 C     6.0000    0    12.011    1.421501    2.380882   -0.895044
   4 O     8.0000    0    15.999   -0.264101   -0.001044    2.653319
   5 H     1.0000    0     1.008    3.349332   -2.390273   -0.125641
   6 H     1.0000    0     1.008    0.441410   -4.063850   -0.222302
   7 H     1.0000    0     1.008    1.572766   -2.474600   -2.958221
   8 H     1.0000    0     1.008   -3.693147   -1.678997   -0.414618
   9 H     1.0000    0     1.008   -2.683688   -0.002614   -3.145773
  10 H     1.0000    0     1.008   -3.696590    1.671751   -0.414649
  11 H     1.0000    0     1.008    3.344410    2.397316   -0.124884
  12 H     1.0000    0     1.008    1.566636    2.480355   -2.956745
  13 H     1.0000    0     1.008    0.432976    4.064978   -0.219101
  14 H     1.0000    0     1.008    1.408825    0.001158    3.375883

--------------------------------
INTERNAL COORDINATES (ANGSTROEM)
--------------------------------
 C      0   0   0     0.000000000000     0.00000000     0.00000000
 C      1   0   0     1.529216032110     0.00000000     0.00000000
 C      2   1   0     1.523379454920   110.89489959     0.00000000
 C      2   1   3     1.529212914616   110.82235585   236.38180693
 O      2   1   3     1.445530206735   109.58770184   115.31502470
 H      1   2   3     1.096172354535   110.68167322   181.35345271
 H      1   2   3     1.093522780762   110.10550429   301.20981849
 H      1   2   3     1.094970994042   111.11252088    61.67175903
 H      3   2   1     1.093420733762   110.14217844    58.50060636
 H      3   2   1     1.093677454684   110.61545631   298.23091767
 H      3   2   1     1.093422526514   110.14583625   177.95872266
 H      4   2   1     1.096175728410   110.68185897   302.29014385
 H      4   2   1     1.094971231017   111.11314455    61.97207324
 H      4   2   1     1.093523677959   110.10410784   182.43313768
 H      5   2   1     0.964320879438   107.60634773    60.92489302

---------------------------
INTERNAL COORDINATES (A.U.)
---------------------------
 C      0   0   0     0.000000000000     0.00000000     0.00000000
 C      1   0   0     2.889799500289     0.00000000     0.00000000
 C      2   1   0     2.878769967842   110.89489959     0.00000000
 C      2   1   3     2.889793609080   110.82235585   236.38180693
 O      2   1   3     2.731656209039   109.58770184   115.31502470
 H      1   2   3     2.071465545647   110.68167322   181.35345271
 H      1   2   3     2.066458576844   110.10550429   301.20981849
 H      1   2   3     2.069195303328   111.11252088    61.67175903
 H      3   2   1     2.066265735961   110.14217844    58.50060636
 H      3   2   1     2.066750868196   110.61545631   298.23091767
 H      3   2   1     2.066269123771   110.14583625   177.95872266
 H      4   2   1     2.071471921347   110.68185897   302.29014385
 H      4   2   1     2.069195751145   111.11314455    61.97207324
 H      4   2   1     2.066460272301   110.10410784   182.43313768
 H      5   2   1     1.822302367360   107.60634773    60.92489302

---------------------
BASIS SET INFORMATION
---------------------
There are 3 groups of distinct atoms

 Group   1 Type C   : 11s6p2d1f contracted to 5s3p2d1f pattern {62111/411/11/1}
 Group   2 Type O   : 11s6p2d1f contracted to 5s3p2d1f pattern {62111/411/11/1}
 Group   3 Type H   : 5s1p contracted to 3s1p pattern {311/1}

Atom   0C    basis set group =>   1
Atom   1C    basis set group =>   1
Atom   2C    basis set group =>   1
Atom   3C    basis set group =>   1
Atom   4O    basis set group =>   2
Atom   5H    basis set group =>   3
Atom   6H    basis set group =>   3
Atom   7H    basis set group =>   3
Atom   8H    basis set group =>   3
Atom   9H    basis set group =>   3
Atom  10H    basis set group =>   3
Atom  11H    basis set group =>   3
Atom  12H    basis set group =>   3
Atom  13H    basis set group =>   3
Atom  14H    basis set group =>   3
---------------------------------
AUXILIARY/J BASIS SET INFORMATION
---------------------------------
There are 3 groups of distinct atoms

 Group   1 Type C   : 12s5p4d2f1g contracted to 6s4p3d1f1g pattern {711111/2111/211/2/1}
 Group   2 Type O   : 12s5p4d2f1g contracted to 6s4p3d1f1g pattern {711111/2111/211/2/1}
 Group   3 Type H   : 5s2p1d contracted to 3s1p1d pattern {311/2/1}

Atom   0C    basis set group =>   1
Atom   1C    basis set group =>   1
Atom   2C    basis set group =>   1
Atom   3C    basis set group =>   1
Atom   4O    basis set group =>   2
Atom   5H    basis set group =>   3
Atom   6H    basis set group =>   3
Atom   7H    basis set group =>   3
Atom   8H    basis set group =>   3
Atom   9H    basis set group =>   3
Atom  10H    basis set group =>   3
Atom  11H    basis set group =>   3
Atom  12H    basis set group =>   3
Atom  13H    basis set group =>   3
Atom  14H    basis set group =>   3

Checking for AutoStart:
The File: sp.gbw exists
Trying to determine its content:
     ... Fine, the file contains calculation information
     ... Fine, the calculation information was read
     ... Fine, the file contains a basis set
     ... Fine, the basis set was read
     ... Fine, the file contains a geometry
     ... Fine, the geometry was read
     ... Fine, the file contains a set of orbitals
     ... Fine, the orbitals can be read
     => possible old guess file was deleted
     => GBW file was renamed to GES file
     => GES file is set as startup file
     => Guess is set to MORead
     ... now leaving AutoStart

------------------------------------------------------------------------------
                             ORCA STARTUP CALCULATIONS
                           -- RI-GTO INTEGRALS CHOSEN --
------------------------------------------------------------------------------
------------------------------------------------------------------------------
                   ___                                                        
                  /   \      - P O W E R E D   B Y -                         
                 /     \                                                     
                 |  |  |   _    _      __       _____    __    __             
                 |  |  |  | |  | |    /  \     |  _  \  |  |  /  |          
                  \  \/   | |  | |   /    \    | | | |  |  | /  /          
                 / \  \   | |__| |  /  /\  \   | |_| |  |  |/  /          
                |  |  |   |  __  | /  /__\  \  |    /   |      \           
                |  |  |   | |  | | |   __   |  |    \   |  |\   \          
                \     /   | |  | | |  |  |  |  | |\  \  |  | \   \       
                 \___/    |_|  |_| |__|  |__|  |_| \__\ |__|  \__/        
                                                                              
                      - O R C A' S   B I G   F R I E N D -                    
                                      &                                       
                       - I N T E G R A L  F E E D E R -                       
                                                                              
 v1 FN, 2020, v2 2021, v3 2022-2024                                           
------------------------------------------------------------------------------


----------------------
SHARK INTEGRAL PACKAGE
----------------------

Number of atoms                             ...     15
Number of basis functions                   ...    215
Number of shells                            ...     95
Maximum angular momentum                    ...      3
Integral batch strategy                     ... SHARK/LIBINT Hybrid
RI-J (if used) integral strategy            ... SPLIT-RIJ (Revised 2003 algorithm where possible)
Printlevel                                  ...      1
Contraction scheme used                     ... SEGMENTED contraction
Prescreening option                         ... SCHWARTZ
   Thresh                                   ... 3.000e-11
   Tcut                                     ... 1.000e-12
   Tpresel                                  ... 1.000e-12 
Coulomb Range Separation                    ... NOT USED
Exchange Range Separation                   ... Long Range
   Mu parameter                             ... 3.000e-01
   Scaling (regular/separated)              ... 1.670e-01 8.330e-01
Multipole approximations                    ... NOT USED
Finite Nucleus Model                        ... NOT USED
CABS basis                                  ... NOT available
Auxiliary Coulomb fitting basis             ... AVAILABLE
   # of basis functions in Aux-J            ...    355
   # of shells in Aux-J                     ...    125
   Maximum angular momentum in Aux-J        ...      4
Auxiliary J/K fitting basis                 ... NOT available
Auxiliary Correlation fitting basis         ... NOT available
Auxiliary 'external' fitting basis          ... NOT available

Checking pre-screening integrals            ... done (  0.0 sec) Dimension = 95
Check shell pair data                       ... done (  0.0 sec)
Shell pair information
Shell pair cut-off parameter TPreSel        ...   1.0e-12
Total number of shell pairs                 ...      4560
Shell pairs after pre-screening             ...      4454
Total number of primitive shell pairs       ...     13020
Primitive shell pairs kept                  ...     10227
          la=0 lb=0:   1457 shell pairs
          la=1 lb=0:   1358 shell pairs
          la=1 lb=1:    325 shell pairs
          la=2 lb=0:    544 shell pairs
          la=2 lb=1:    250 shell pairs
          la=2 lb=2:     55 shell pairs
          la=3 lb=0:    275 shell pairs
          la=3 lb=1:    125 shell pairs
          la=3 lb=2:     50 shell pairs
          la=3 lb=3:     15 shell pairs

Calculating one electron integrals          ... done (  0.0 sec)
Calculating RI/J V-Matrix + Cholesky decomp.... done (  0.0 sec)
Calculating Nuclear repulsion               ... done (  0.0 sec) ENN=    199.234206248202 Eh

Diagonalization of the overlap matrix:
Smallest eigenvalue                        ... 2.539e-04
Time for diagonalization                   ...    0.003 sec
Threshold for overlap eigenvalues          ... 1.000e-07
Number of eigenvalues below threshold      ... 0
Time for construction of square roots      ...    0.001 sec
Total time needed                          ...    0.005 sec

-------------------
DFT GRID GENERATION
-------------------

General Integration Accuracy     IntAcc      ... 4.388
Radial Grid Type                 RadialGrid  ... OptM3 with GC (2021)
Angular Grid (max. ang.)         AngularGrid ... 4 (Lebedev-302)
Angular grid pruning method      GridPruning ... 4 (adaptive)
Weight generation scheme         WeightScheme... mBecke (2022)
Basis function cutoff            BFCut       ... 1.0000e-11
Integration weight cutoff        WCut        ... 1.0000e-14
Partially contracted basis set               ... off
Rotationally invariant grid construction     ... off
Angular grids for H and He will be reduced by one unit

Total number of grid points                  ...    62300
Total number of batches                      ...      980
Average number of points per batch           ...       63
Average number of grid points per atom       ...     4153

--------------------
COSX GRID GENERATION
--------------------

GRIDX 1
-------
General Integration Accuracy     IntAcc      ... 3.816
Radial Grid Type                 RadialGrid  ... OptM3 with GC (2021)
Angular Grid (max. ang.)         AngularGrid ... 1 (Lebedev-50)
Angular grid pruning method      GridPruning ... 4 (adaptive)
Weight generation scheme         WeightScheme... mBecke (2022)
Basis function cutoff            BFCut       ... 1.0000e-11
Integration weight cutoff        WCut        ... 1.0000e-14
Partially contracted basis set               ... on
Rotationally invariant grid construction     ... off
Angular grids for H and He will be reduced by one unit

Total number of grid points                  ...     8003
Total number of batches                      ...       70
Average number of points per batch           ...      114
Average number of grid points per atom       ...      534
UseSFitting                                  ... on

GRIDX 2
-------
General Integration Accuracy     IntAcc      ... 4.020
Radial Grid Type                 RadialGrid  ... OptM3 with GC (2021)
Angular Grid (max. ang.)         AngularGrid ... 2 (Lebedev-110)
Angular grid pruning method      GridPruning ... 4 (adaptive)
Weight generation scheme         WeightScheme... mBecke (2022)
Basis function cutoff            BFCut       ... 1.0000e-11
Integration weight cutoff        WCut        ... 1.0000e-14
Partially contracted basis set               ... on
Rotationally invariant grid construction     ... off
Angular grids for H and He will be reduced by one unit

Total number of grid points                  ...    16664
Total number of batches                      ...      137
Average number of points per batch           ...      121
Average number of grid points per atom       ...     1111
UseSFitting                                  ... on

GRIDX 3
-------
General Integration Accuracy     IntAcc      ... 4.338
Radial Grid Type                 RadialGrid  ... OptM3 with GC (2021)
Angular Grid (max. ang.)         AngularGrid ... 3 (Lebedev-194)
Angular grid pruning method      GridPruning ... 4 (adaptive)
Weight generation scheme         WeightScheme... mBecke (2022)
Basis function cutoff            BFCut       ... 1.0000e-11
Integration weight cutoff        WCut        ... 1.0000e-14
Partially contracted basis set               ... on
Rotationally invariant grid construction     ... off
Angular grids for H and He will be reduced by one unit

Total number of grid points                  ...    36319
Total number of batches                      ...      292
Average number of points per batch           ...      124
Average number of grid points per atom       ...     2421
UseSFitting                                  ... on
Initializing property integral containers    ... done (  0.0 sec)

SHARK setup successfully completed in   0.8 seconds

Maximum memory used throughout the entire STARTUP-calculation: 33.1 MB
-------------------------------------------------------------------------------
                                 ORCA GUESS
                   Start orbitals & Density for SCF / CASSCF
-------------------------------------------------------------------------------

------------
SCF SETTINGS
------------
Hamiltonian:
 Density Functional     Method          .... DFT(GTOs)
 Exchange Functional    Exchange        .... WB97X-V
 Correlation Functional Correlation     .... WB97X-V
 Gradients option       PostSCFGGA      .... off
 Hybrid DFT is turned on
   Fraction HF Exchange ScalHFX         ....  0.167000
   Scaling of DF-GGA-X  ScalDFX         ....  0.000000
   Scaling of DF-GGA-C  ScalDFC         ....  1.000000
   Scaling of DF-LDA-C  ScalLDAC        ....  1.000000
   Perturbative correction              ....  0.000000
 Long-range corrected/Screened/Range-Separated Hybrid DFT is turned on
   Amount of maximum screened exact exchange              ....  0.833000
   Range separation parameter mu (erf(mu*r12)/r12)        ....  0.300000
   NL short-range parameter             ....  6.000000
   NL long-range parameter              ....  0.010000
 RI-approximation to the Coulomb term is turned on
   Number of AuxJ basis functions       .... 355
   RIJ-COSX (HFX calculated with COS-X)).... on


General Settings:
 Integral files         IntName         .... sp
 Hartree-Fock type      HFTyp           .... RHF
 Total Charge           Charge          ....    0
 Multiplicity           Mult            ....    1
 Number of Electrons    NEL             ....   42
 Basis Dimension        Dim             ....  215
 Nuclear Repulsion      ENuc            ....    199.2342062482 Eh

Convergence Acceleration:
 AO-DIIS                CNVDIIS         .... on
   Start iteration      DIISMaxIt       ....    12
   Startup error        DIISStart       ....  0.200000
   # of expansion vecs  DIISMaxEq       ....     5
   Bias factor          DIISBfac        ....   1.050
   Max. coefficient     DIISMaxC        ....  10.000
 MO-DIIS                CNVKDIIS        .... off
 Trust-Rad. Augm. Hess. CNVTRAH         .... auto
   Auto Start mean grad. ratio tolernc. ....  1.125000
   Auto Start start iteration           ....     1
   Auto Start num. interpolation iter.  ....    10
   Max. Number of Micro iterations      ....    24
   Max. Number of Macro iterations      .... Maxiter - #DIIS iter
   Number of Davidson start vectors     ....     2
   Converg. threshold    (grad. norm)   ....   1.000e-04
   Grad. Scal. Fac. for Micro threshold ....   0.100
   Minimum threshold for Micro iter.    ....   1.000e-02
   NR start threshold (gradient norm)   ....   1.000e-04
   Initial trust radius                 ....   0.400
   Minimum AH scaling param. (alpha)    ....   1.000
   Maximum AH scaling param. (alpha)    .... 1000.000
   Quad. conv. algorithm                .... NR
   White noise on init. David. guess    .... on
   Maximum white noise                  ....   0.010
   Pseudo random numbers                .... off
   Inactive MOs                         .... canonical
   Orbital update algorithm             .... Taylor
   Preconditioner                       .... Diag
   Full preconditioner red. dimension   ....   250
 SOSCF                  CNVSOSCF        .... on
   Start iteration      SOSCFMaxIt      ....   150
   Startup grad/error   SOSCFStart      ....  0.003300
   Hessian update       SOSCFHessUp     .... L-BFGS
 Level Shifting         CNVShift        .... on
   Level shift para.    LevelShift      ....    0.2500
   Turn off err/grad.   ShiftErr        ....    0.0010
 Zerner damping         CNVZerner       .... off
 Static damping         CNVDamp         .... on
   Fraction old density DampFac         ....    0.7000
   Max. Damping (<1)    DampMax         ....    0.9800
   Min. Damping (>=0)   DampMin         ....    0.0000
   Turn off err/grad.   DampErr         ....    0.1000

SCF Procedure:
 Maximum # iterations   MaxIter         ....   125
 SCF integral mode      SCFMode         .... Direct
   Integral package                     .... SHARK and LIBINT hybrid scheme
 Reset frequency        DirectResetFreq ....    20
 Integral Threshold     Thresh          ....  3.000e-11 Eh
 Primitive CutOff       TCut            ....  1.000e-12 Eh

Convergence Tolerance:
 Convergence Check Mode ConvCheckMode   .... Total+1el-Energy
 Convergence forced     ConvForced      .... 0
 Energy Change          TolE            ....  1.000e-07 Eh
 1-El. energy change                    ....  1.000e-04 Eh
 Orbital Gradient       TolG            ....  1.000e-04
 Orbital Rotation angle TolX            ....  1.000e-04
 DIIS Error             TolErr          ....  1.000e-07

---------------------
INITIAL GUESS: MOREAD
---------------------
Guess MOs are being read from file: sp.ges
Input Geometry matches current geometry (good)
Atom 0: N(Shells)= 11 and 9 - projection required
Input basis set needs projection
NBasis(read)= 150
NBasis(calc)= 215
Basis set overlap was calculated
Using GuessMode=FMatrix for the initial guess
C*T matrix was formed
Effective Fockian was calculated
Effective Fockian was diagonalized
Initial density was built
                      ------------------
                      INITIAL GUESS DONE (   0.0 sec)
                      ------------------
             **** ENERGY FILE WAS UPDATED (sp.en.tmp) ****
Finished Guess after   0.0 sec
Maximum memory used throughout the entire GUESS-calculation: 18.1 MB

-------------------------------------------------------------------------------------------
                                      ORCA LEAN-SCF
                              memory conserving SCF solver
-------------------------------------------------------------------------------------------

----------------------------------------D-I-I-S--------------------------------------------
Iteration    Energy (Eh)           Delta-E    RMSDP     MaxDP     DIISErr   Damp  Time(sec)
-------------------------------------------------------------------------------------------
               ***  Starting incremental Fock matrix formation  ***
    1    -233.8476999993975198     0.00e+00  9.34e-04  2.46e-02  5.54e-02  0.700   5.3
    2    -233.8506985208937010    -3.00e-03  8.19e-04  2.34e-02  4.01e-02  0.700   2.6
                               ***Turning on AO-DIIS***
    3    -233.8529689717394433    -2.27e-03  6.90e-04  2.06e-02  2.85e-02  0.700   2.6
    4    -233.8546424905248102    -1.67e-03  1.74e-03  5.27e-02  2.01e-02  0.000   2.6
                              *** Initializing SOSCF ***
---------------------------------------S-O-S-C-F--------------------------------------
Iteration    Energy (Eh)           Delta-E    RMSDP     MaxDP     MaxGrad    Time(sec)
--------------------------------------------------------------------------------------
    5    -233.8589131996567687    -4.27e-03  8.49e-05  2.50e-03  6.55e-04     2.7
               *** Restarting incremental Fock matrix formation ***
    6    -233.8589311629226870    -1.80e-05  3.29e-05  7.15e-04  1.33e-04     5.4
    7    -233.8589324704340413    -1.31e-06  1.66e-05  3.11e-04  4.99e-05     4.1
    8    -233.8589325773472467    -1.07e-07  5.58e-06  1.28e-04  5.47e-05     3.9
    9    -233.8589326461041367    -6.88e-08  9.89e-07  2.12e-05  6.11e-06     3.6
                 **** Energy Check signals convergence ****

               *****************************************************
               *                     SUCCESS                       *
               *           SCF CONVERGED AFTER   9 CYCLES          *
               *****************************************************


------------------
NL GRID GENERATION
------------------

General Integration Accuracy     IntAcc      ... 4.004
Radial Grid Type                 RadialGrid  ... OptM3 with GC (2021)
Angular Grid (max. ang.)         AngularGrid ... 2 (Lebedev-110)
Angular grid pruning method      GridPruning ... 4 (adaptive)
Weight generation scheme         WeightScheme... mBecke (2022)
Basis function cutoff            BFCut       ... 1.0000e-10
Integration weight cutoff        WCut        ... 1.0000e-14
Partially contracted basis set               ... off
Rotationally invariant grid construction     ... off
Angular grids for H and He will be reduced by one unit

Total number of grid points                  ...    18411
Total number of batches                      ...      297
Average number of points per batch           ...       61
Average number of grid points per atom       ...     1227
Final grid set up in    0.1 sec

-------------------------------------------------------------------------------
                    post-SCF DFT-NL dispersion correction                      
-------------------------------------------------------------------------------

SCF Energy:     -233.858932646 
NL    Energy:      0.161316482 
SC+NL Energy:   -233.697616164 
NL done in  :              1.0 sec
-------------------------------------------------------------------------------
Recomputing exchange energy using gridx3       ... done (    9.833 sec)
Old exchange energy                            :    -10.900778931 Eh
New exchange energy                            :    -10.900794042 Eh
Exchange energy change after final integration :     -0.000015111 Eh
Total energy after final integration           :   -233.697631275 Eh
             **** ENERGY FILE WAS UPDATED (sp.en.tmp) ****

----------------
TOTAL SCF ENERGY
----------------

Total Energy       :       -233.69763127519437 Eh           -6359.23584 eV

Components:
Nuclear Repulsion  :        199.23420624820213 Eh            5421.43837 eV
Electronic Energy  :       -433.09313889430626 Eh          -11785.06345 eV
One Electron Energy:       -710.29686165891269 Eh          -19328.16023 eV
Two Electron Energy:        277.20372276460643 Eh            7543.09678 eV

Virial components:
Potential Energy   :       -466.39172523168043 Eh          -12691.16405 eV
Kinetic Energy     :        232.69409395648606 Eh            6331.92821 eV
Virial Ratio       :          2.00431268925500

DFT components:
N(Alpha)           :       20.999920435295 electrons
N(Beta)            :       20.999920435295 electrons
N(Total)           :       41.999840870590 electrons
E(X)               :      -21.591352682068 Eh       
E(C)               :       -1.692523571773 Eh       
NL Energy, E(C,NL) :        0.161316481955 Eh       
E(XC)              :      -23.122559771886 Eh       

---------------
SCF CONVERGENCE
---------------

  Last Energy change         ...    6.8757e-08  Tolerance :   1.0000e-07
  Last MAX-Density change    ...    2.1234e-05  Tolerance :   1.0000e-05
  Last RMS-Density change    ...    9.8883e-07  Tolerance :   1.0000e-06
  Last DIIS Error            ...    6.5532e-04  Tolerance :   1.0000e-07
  Last Orbital Gradient      ...    6.1078e-06  Tolerance :   1.0000e-04
  Last Orbital Rotation      ...    8.3904e-06  Tolerance :   1.0000e-04


----------------
ORBITAL ENERGIES
----------------

  NO   OCC          E(Eh)            E(eV) 
   0   2.0000     -19.204903      -522.5920 
   1   2.0000     -10.328923      -281.0643 
   2   2.0000     -10.260854      -279.2120 
   3   2.0000     -10.260842      -279.2117 
   4   2.0000     -10.255245      -279.0594 
   5   2.0000      -1.146859       -31.2076 
   6   2.0000      -0.925646       -25.1881 
   7   2.0000      -0.824173       -22.4269 
   8   2.0000      -0.822999       -22.3949 
   9   2.0000      -0.689395       -18.7594 
  10   2.0000      -0.605687       -16.4816 
  11   2.0000      -0.568321       -15.4648 
  12   2.0000      -0.564943       -15.3729 
  13   2.0000      -0.525421       -14.2974 
  14   2.0000      -0.509275       -13.8581 
  15   2.0000      -0.487693       -13.2708 
  16   2.0000      -0.474195       -12.9035 
  17   2.0000      -0.460778       -12.5384 
  18   2.0000      -0.454251       -12.3608 
  19   2.0000      -0.424619       -11.5545 
  20   2.0000      -0.379237       -10.3196 
  21   0.0000       0.096340         2.6216 
  22   0.0000       0.145823         3.9680 
  23   0.0000       0.156782         4.2663 
  24   0.0000       0.164932         4.4880 
  25   0.0000       0.169360         4.6085 
  26   0.0000       0.183287         4.9875 
  27   0.0000       0.187839         5.1114 
  28   0.0000       0.212680         5.7873 
  29   0.0000       0.230075         6.2607 
  30   0.0000       0.234858         6.3908 
  31   0.0000       0.248117         6.7516 
*Only the first 10 virtual orbitals were printed.

                    ********************************
                    * MULLIKEN POPULATION ANALYSIS *
                    ********************************

-----------------------
MULLIKEN ATOMIC CHARGES
-----------------------
   0 C :   -0.354089
   1 C :    0.188613
   2 C :   -0.318829
   3 C :   -0.354155
   4 O :   -0.444954
   5 H :    0.100373
   6 H :    0.123570
   7 H :    0.106103
   8 H :    0.115007
   9 H :    0.100944
  10 H :    0.114993
  11 H :    0.100384
  12 H :    0.106110
  13 H :    0.123590
  14 H :    0.292341
Sum of atomic charges:   -0.0000000

--------------------------------
MULLIKEN REDUCED ORBITAL CHARGES
--------------------------------
  0 C s       :     3.246729  s :     3.246729
      pz      :     1.044024  p :     3.050467
      px      :     1.023868
      py      :     0.982574
      dz2     :     0.014530  d :     0.053620
      dxz     :     0.004928
      dyz     :     0.006315
      dx2y2   :     0.016976
      dxy     :     0.010871
      f0      :     0.000948  f :     0.003273
      f+1     :     0.000152
      f-1     :     0.000298
      f+2     :     0.000127
      f-2     :     0.000290
      f+3     :     0.000809
      f-3     :     0.000648

  1 C s       :     3.078412  s :     3.078412
      pz      :     0.671894  p :     2.500022
      px      :     0.972792
      py      :     0.855337
      dz2     :     0.048349  d :     0.217999
      dxz     :     0.041093
      dyz     :     0.048310
      dx2y2   :     0.038186
      dxy     :     0.042061
      f0      :     0.002351  f :     0.014953
      f+1     :     0.003248
      f-1     :     0.003952
      f+2     :     0.000710
      f-2     :     0.000944
      f+3     :     0.001305
      f-3     :     0.002443

  2 C s       :     3.216899  s :     3.216899
      pz      :     1.021145  p :     3.046268
      px      :     0.946787
      py      :     1.078336
      dz2     :     0.015959  d :     0.052327
      dxz     :     0.006552
      dyz     :     0.002683
      dx2y2   :     0.006928
      dxy     :     0.020205
      f0      :     0.000943  f :     0.003335
      f+1     :     0.000505
      f-1     :     0.000014
      f+2     :     0.000265
      f-2     :     0.000194
      f+3     :     0.000812
      f-3     :     0.000603

  3 C s       :     3.246752  s :     3.246752
      pz      :     1.044116  p :     3.050512
      px      :     1.024080
      py      :     0.982317
      dz2     :     0.014518  d :     0.053618
      dxz     :     0.004913
      dyz     :     0.006343
      dx2y2   :     0.016930
      dxy     :     0.010914
      f0      :     0.000948  f :     0.003273
      f+1     :     0.000151
      f-1     :     0.000299
      f+2     :     0.000127
      f-2     :     0.000290
      f+3     :     0.000809
      f-3     :     0.000649

  4 O s       :     3.773005  s :     3.773005
      pz      :     1.307396  p :     4.641568
      px      :     1.429720
      py      :     1.904452
      dz2     :     0.009436  d :     0.028833
      dxz     :     0.007859
      dyz     :     0.003330
      dx2y2   :     0.006556
      dxy     :     0.001652
      f0      :     0.000488  f :     0.001549
      f+1     :     0.000150
      f-1     :     0.000205
      f+2     :     0.000276
      f-2     :     0.000044
      f+3     :     0.000319
      f-3     :     0.000065

  5 H s       :     0.878730  s :     0.878730
      pz      :     0.005136  p :     0.020898
      px      :     0.011521
      py      :     0.004241

  6 H s       :     0.855354  s :     0.855354
      pz      :     0.004974  p :     0.021076
      px      :     0.005899
      py      :     0.010203

  7 H s       :     0.872887  s :     0.872887
      pz      :     0.012505  p :     0.021010
      px      :     0.004249
      py      :     0.004256

  8 H s       :     0.863890  s :     0.863890
      pz      :     0.004991  p :     0.021103
      px      :     0.006508
      py      :     0.009604

  9 H s       :     0.878269  s :     0.878269
      pz      :     0.012522  p :     0.020788
      px      :     0.004115
      py      :     0.004151

 10 H s       :     0.863904  s :     0.863904
      pz      :     0.004991  p :     0.021103
      px      :     0.006522
      py      :     0.009589

 11 H s       :     0.878718  s :     0.878718
      pz      :     0.005134  p :     0.020898
      px      :     0.011521
      py      :     0.004243

 12 H s       :     0.872880  s :     0.872880
      pz      :     0.012504  p :     0.021010
      px      :     0.004249
      py      :     0.004257

 13 H s       :     0.855335  s :     0.855335
      pz      :     0.004978  p :     0.021075
      px      :     0.005912
      py      :     0.010185

 14 H s       :     0.660367  s :     0.660367
      pz      :     0.012499  p :     0.047292
      px      :     0.017723
      py      :     0.017070


------------------------
MULLIKEN OVERLAP CHARGES
------------------------
B(  0-C ,  1-C ) :   0.7456 B(  0-C ,  2-C ) :  -0.1581 B(  0-C ,  3-C ) :  -0.1295 
B(  0-C ,  4-O ) :  -0.0780 B(  0-C ,  5-H ) :   0.7895 B(  0-C ,  6-H ) :   0.8300 
B(  0-C ,  7-H ) :   0.7997 B(  1-C ,  2-C ) :   0.5901 B(  1-C ,  3-C ) :   0.7456 
B(  1-C ,  4-O ) :   0.5897 B(  1-C ,  5-H ) :  -0.0521 B(  1-C ,  6-H ) :  -0.0826 
B(  1-C ,  7-H ) :  -0.0618 B(  1-C ,  8-H ) :  -0.0689 B(  1-C , 10-H ) :  -0.0689 
B(  1-C , 11-H ) :  -0.0521 B(  1-C , 12-H ) :  -0.0618 B(  1-C , 13-H ) :  -0.0826 
B(  1-C , 14-H ) :  -0.0663 B(  2-C ,  3-C ) :  -0.1580 B(  2-C ,  4-O ) :  -0.1627 
B(  2-C ,  8-H ) :   0.8124 B(  2-C ,  9-H ) :   0.7841 B(  2-C , 10-H ) :   0.8124 
B(  3-C ,  4-O ) :  -0.0779 B(  3-C , 11-H ) :   0.7895 B(  3-C , 12-H ) :   0.7997 
B(  3-C , 13-H ) :   0.8300 B(  4-O , 14-H ) :   0.5848 


                     *******************************
                     * LOEWDIN POPULATION ANALYSIS *
                     *******************************

----------------------
LOEWDIN ATOMIC CHARGES
----------------------
   0 C :   -0.268564
   1 C :   -0.456575
   2 C :   -0.257963
   3 C :   -0.268572
   4 O :   -0.008435
   5 H :    0.116760
   6 H :    0.123502
   7 H :    0.122707
   8 H :    0.123933
   9 H :    0.121487
  10 H :    0.123926
  11 H :    0.116762
  12 H :    0.122711
  13 H :    0.123503
  14 H :    0.164818

-------------------------------
LOEWDIN REDUCED ORBITAL CHARGES
-------------------------------
  0 C s       :     2.829513  s :     2.829513
      pz      :     1.065697  p :     3.158670
      px      :     1.051619
      py      :     1.041355
      dz2     :     0.068894  d :     0.256395
      dxz     :     0.024633
      dyz     :     0.031883
      dx2y2   :     0.077582
      dxy     :     0.053403
      f0      :     0.003890  f :     0.023985
      f+1     :     0.001037
      f-1     :     0.002263
      f+2     :     0.004105
      f-2     :     0.003932
      f+3     :     0.004496
      f-3     :     0.004263

  1 C s       :     2.718826  s :     2.718826
      pz      :     0.807872  p :     2.866063
      px      :     1.035650
      py      :     1.022541
      dz2     :     0.193023  d :     0.771244
      dxz     :     0.140993
      dyz     :     0.155637
      dx2y2   :     0.134590
      dxy     :     0.147001
      f0      :     0.018700  f :     0.100442
      f+1     :     0.020270
      f-1     :     0.023361
      f+2     :     0.007957
      f-2     :     0.008437
      f+3     :     0.007094
      f-3     :     0.014623

  2 C s       :     2.825175  s :     2.825175
      pz      :     1.059336  p :     3.154048
      px      :     1.024256
      py      :     1.070457
      dz2     :     0.074433  d :     0.254367
      dxz     :     0.037014
      dyz     :     0.012937
      dx2y2   :     0.038694
      dxy     :     0.091289
      f0      :     0.003805  f :     0.024374
      f+1     :     0.003192
      f-1     :     0.000568
      f+2     :     0.004235
      f-2     :     0.004164
      f+3     :     0.004529
      f-3     :     0.003881

  3 C s       :     2.829513  s :     2.829513
      pz      :     1.065718  p :     3.158679
      px      :     1.051698
      py      :     1.041263
      dz2     :     0.068855  d :     0.256395
      dxz     :     0.024553
      dyz     :     0.031997
      dx2y2   :     0.077421
      dxy     :     0.053569
      f0      :     0.003892  f :     0.023985
      f+1     :     0.001032
      f-1     :     0.002264
      f+2     :     0.004103
      f-2     :     0.003932
      f+3     :     0.004495
      f-3     :     0.004268

  4 O s       :     3.364095  s :     3.364095
      pz      :     1.336497  p :     4.575599
      px      :     1.453707
      py      :     1.785396
      dz2     :     0.020169  d :     0.064632
      dxz     :     0.022405
      dyz     :     0.011064
      dx2y2   :     0.010088
      dxy     :     0.000904
      f0      :     0.001241  f :     0.004109
      f+1     :     0.000924
      f-1     :     0.000757
      f+2     :     0.000591
      f-2     :     0.000052
      f+3     :     0.000538
      f-3     :     0.000005

  5 H s       :     0.823375  s :     0.823375
      pz      :     0.015895  p :     0.059866
      px      :     0.031297
      py      :     0.012674

  6 H s       :     0.815796  s :     0.815796
      pz      :     0.015354  p :     0.060701
      px      :     0.017990
      py      :     0.027358

  7 H s       :     0.816971  s :     0.816971
      pz      :     0.034473  p :     0.060322
      px      :     0.013014
      py      :     0.012835

  8 H s       :     0.815539  s :     0.815539
      pz      :     0.015320  p :     0.060528
      px      :     0.017489
      py      :     0.027720

  9 H s       :     0.818381  s :     0.818381
      pz      :     0.034216  p :     0.060132
      px      :     0.012542
      py      :     0.013374

 10 H s       :     0.815546  s :     0.815546
      pz      :     0.015319  p :     0.060527
      px      :     0.017524
      py      :     0.027684

 11 H s       :     0.823373  s :     0.823373
      pz      :     0.015890  p :     0.059865
      px      :     0.031302
      py      :     0.012673

 12 H s       :     0.816967  s :     0.816967
      pz      :     0.034473  p :     0.060322
      px      :     0.013014
      py      :     0.012835

 13 H s       :     0.815795  s :     0.815795
      pz      :     0.015367  p :     0.060702
      px      :     0.018025
      py      :     0.027310

 14 H s       :     0.678447  s :     0.678447
      pz      :     0.033169  p :     0.156736
      px      :     0.077040
      py      :     0.046526


---------------------------------
LOEWDIN BOND ORDERS (THRESH 0.050000)
---------------------------------
B(  0-C ,  1-C ) :   1.1896 B(  0-C ,  2-C ) :   0.1444 B(  0-C ,  3-C ) :   0.1450 
B(  0-C ,  4-O ) :   0.1161 B(  0-C ,  5-H ) :   0.8986 B(  0-C ,  6-H ) :   0.8988 
B(  0-C ,  7-H ) :   0.8976 B(  1-C ,  2-C ) :   1.1888 B(  1-C ,  3-C ) :   1.1896 
B(  1-C ,  4-O ) :   1.4380 B(  1-C ,  5-H ) :   0.0796 B(  1-C ,  6-H ) :   0.0787 
B(  1-C ,  7-H ) :   0.0773 B(  1-C ,  8-H ) :   0.0801 B(  1-C ,  9-H ) :   0.0791 
B(  1-C , 10-H ) :   0.0801 B(  1-C , 11-H ) :   0.0796 B(  1-C , 12-H ) :   0.0773 
B(  1-C , 13-H ) :   0.0787 B(  1-C , 14-H ) :   0.0915 B(  2-C ,  3-C ) :   0.1444 
B(  2-C ,  4-O ) :   0.1190 B(  2-C ,  8-H ) :   0.8967 B(  2-C ,  9-H ) :   0.8972 
B(  2-C , 10-H ) :   0.8968 B(  3-C ,  4-O ) :   0.1161 B(  3-C , 11-H ) :   0.8986 
B(  3-C , 12-H ) :   0.8976 B(  3-C , 13-H ) :   0.8988 B(  4-O , 14-H ) :   1.0270 


------------------------------------------
LOEWDIN REDUCED ORBITAL POPULATIONS PER MO
-------------------------------------------
THRESHOLD FOR PRINTING IS 0.1%%
                      0         1         2         3         4         5   
                 -19.20490 -10.32892 -10.26085 -10.26084 -10.25525  -1.14686
                   2.00000   2.00000   2.00000   2.00000   2.00000   2.00000
                  --------  --------  --------  --------  --------  --------
 0 C  s               0.0       0.0      25.3      74.1       0.0       1.0
 0 C  pz              0.0       0.0       0.0       0.0       0.0       0.6
 0 C  px              0.0       0.0       0.0       0.0       0.0       0.3
 0 C  py              0.0       0.1       0.0       0.0       0.0       0.9
 0 C  dyz             0.0       0.0       0.0       0.0       0.0       0.2
 1 C  s               0.0      99.1       0.0       0.0       0.0       9.3
 1 C  pz              0.0       0.0       0.0       0.0       0.0       7.6
 1 C  py              0.0       0.0       0.1       0.0       0.0       0.0
 1 C  dz2             0.1       0.0       0.0       0.0       0.0       3.0
 1 C  dx2y2           0.0       0.0       0.0       0.0       0.1       0.0
 1 C  dxy             0.0       0.0       0.2       0.0       0.0       0.0
 1 C  f0              0.0       0.0       0.0       0.0       0.0       0.6
 2 C  s               0.0       0.0       0.0       0.0      99.4       1.0
 2 C  pz              0.0       0.0       0.0       0.0       0.0       0.8
 2 C  px              0.0       0.1       0.0       0.0       0.0       1.1
 2 C  dxz             0.0       0.1       0.0       0.0       0.0       0.3
 3 C  s               0.0       0.0      74.1      25.3       0.0       1.0
 3 C  pz              0.0       0.0       0.0       0.0       0.0       0.6
 3 C  px              0.0       0.0       0.0       0.0       0.0       0.3
 3 C  py              0.0       0.1       0.0       0.0       0.0       0.9
 3 C  dyz             0.0       0.0       0.0       0.0       0.0       0.2
 4 O  s              99.8       0.0       0.0       0.0       0.0      52.0
 4 O  pz              0.0       0.1       0.0       0.0       0.0       0.8
 4 O  px              0.0       0.0       0.0       0.0       0.0       1.3
 5 H  s               0.0       0.0       0.0       0.0       0.0       0.2
 6 H  s               0.0       0.0       0.0       0.0       0.0       0.2
 8 H  s               0.0       0.0       0.0       0.0       0.1       0.2
10 H  s               0.0       0.0       0.0       0.0       0.1       0.2
11 H  s               0.0       0.0       0.0       0.0       0.0       0.2
13 H  s               0.0       0.0       0.0       0.0       0.0       0.2
14 H  s               0.0       0.0       0.0       0.0       0.0      11.5
14 H  pz              0.0       0.0       0.0       0.0       0.0       0.5
14 H  px              0.0       0.0       0.0       0.0       0.0       2.3

                      6         7         8         9        10        11   
                  -0.92565  -0.82417  -0.82300  -0.68939  -0.60569  -0.56832
                   2.00000   2.00000   2.00000   2.00000   2.00000   2.00000
                  --------  --------  --------  --------  --------  --------
 0 C  s              10.6      19.4       7.0       1.7       0.9       0.0
 0 C  pz              0.0       0.0       0.0       1.1       0.1       9.3
 0 C  px              0.6       0.0       1.1       1.4       0.6       5.6
 0 C  py              1.8       0.8       0.0       2.8      12.6       1.2
 0 C  dz2             0.2       0.0       0.0       0.1       0.1       0.1
 0 C  dxz             0.0       0.0       0.0       0.1       0.0       0.1
 0 C  dyz             0.0       0.0       0.0       0.2       0.0       0.2
 0 C  dx2y2           0.1       0.1       0.1       0.1       0.3       0.0
 0 C  dxy             0.3       0.0       0.1       0.3       0.4       0.0
 1 C  s              15.7       0.0       0.0       8.8       2.4       0.0
 1 C  pz              6.4       0.0       0.0       2.4       8.9       4.9
 1 C  px              0.0       0.0      17.6       0.1       4.1       7.3
 1 C  py              0.0      16.7       0.0       0.0       0.0       0.0
 1 C  dz2             1.9       0.0       0.0       0.1       0.1       0.6
 1 C  dxz             0.0       0.0       0.6       0.3       0.8       0.3
 1 C  dyz             0.0       0.6       0.0       0.0       0.0       0.0
 1 C  dx2y2           0.0       0.0       1.5       0.0       0.1       0.4
 1 C  dxy             0.0       1.8       0.0       0.0       0.0       0.0
 1 C  f+3             0.2       0.0       0.0       0.0       0.0       0.0
 2 C  s              10.7       0.0      24.3       4.3       0.0       0.7
 2 C  pz              0.0       0.0       0.0       3.3       5.2       0.0
 2 C  px              2.5       0.0       0.6       6.2       2.4      11.8
 2 C  py              0.0       1.1       0.0       0.0       0.0       0.0
 2 C  dz2             0.2       0.0       0.0       0.0       0.0       0.0
 2 C  dxz             0.0       0.0       0.0       0.7       0.1       0.0
 2 C  dx2y2           0.4       0.0       0.0       0.5       0.3       0.3
 2 C  dxy             0.0       0.3       0.0       0.0       0.0       0.0
 3 C  s              10.6      19.5       6.8       1.6       0.9       0.0
 3 C  pz              0.0       0.0       0.0       1.1       0.2       9.3
 3 C  px              0.6       0.0       1.1       1.4       0.6       5.6
 3 C  py              1.8       0.8       0.0       2.8      12.6       1.2
 3 C  dz2             0.2       0.0       0.0       0.1       0.1       0.1
 3 C  dxz             0.0       0.0       0.0       0.1       0.0       0.1
 3 C  dyz             0.0       0.0       0.0       0.2       0.0       0.2
 3 C  dx2y2           0.1       0.1       0.1       0.1       0.3       0.0
 3 C  dxy             0.3       0.0       0.1       0.3       0.4       0.0
 4 O  s               5.8       0.0       0.1       0.6       1.1       2.3
 4 O  pz              4.1       0.0       0.2      22.7       5.3       5.6
 4 O  px              0.4       0.0       1.3       4.3      15.4       6.3
 4 O  py              0.0       0.7       0.0       0.0       0.0       0.0
 4 O  dz2             0.2       0.0       0.0       0.6       0.0       0.0
 4 O  dxz             0.0       0.0       0.1       0.2       0.0       0.1
 4 O  dx2y2           0.0       0.0       0.0       0.1       0.1       0.0
 5 H  s               2.0       5.3       2.9       1.5       1.2       4.7
 5 H  px              0.2       0.5       0.2       0.1       0.1       0.1
 5 H  py              0.0       0.0       0.0       0.0       0.1       0.0
 6 H  s               2.0       6.3       1.5       1.1       4.9       0.6
 6 H  pz              0.0       0.1       0.0       0.0       0.0       0.1
 6 H  px              0.0       0.2       0.0       0.1       0.2       0.0
 6 H  py              0.1       0.4       0.1       0.0       0.1       0.0
 7 H  s               2.4       5.3       2.0       2.1       0.2       4.2
 7 H  pz              0.2       0.5       0.2       0.1       0.0       0.1
 7 H  py              0.0       0.0       0.0       0.0       0.1       0.0
 8 H  s               2.0       0.1       7.1       2.5       0.9       2.5
 8 H  pz              0.0       0.0       0.1       0.1       0.0       0.0
 8 H  px              0.1       0.0       0.2       0.0       0.0       0.0
 8 H  py              0.1       0.0       0.5       0.2       0.1       0.2
 9 H  s               2.4       0.0       6.5       4.9       1.7       0.1
 9 H  pz              0.2       0.0       0.6       0.3       0.1       0.0
 9 H  px              0.0       0.0       0.0       0.0       0.0       0.1
10 H  s               2.0       0.1       7.1       2.5       0.9       2.5
10 H  pz              0.0       0.0       0.1       0.1       0.0       0.0
10 H  px              0.1       0.0       0.2       0.0       0.0       0.0
10 H  py              0.1       0.0       0.5       0.2       0.1       0.2
11 H  s               2.0       5.4       2.8       1.5       1.2       4.6
11 H  px              0.2       0.5       0.2       0.1       0.1       0.1
11 H  py              0.0       0.0       0.0       0.0       0.1       0.0
12 H  s               2.4       5.4       1.9       2.1       0.2       4.2
12 H  pz              0.2       0.5       0.2       0.1       0.0       0.1
12 H  py              0.0       0.0       0.0       0.0       0.1       0.0
13 H  s               2.0       6.4       1.5       1.1       4.9       0.5
13 H  pz              0.0       0.1       0.0       0.0       0.0       0.1
13 H  px              0.0       0.2       0.0       0.1       0.2       0.0
13 H  py              0.1       0.4       0.1       0.0       0.1       0.0
14 H  s               2.5       0.0       0.2       7.2       5.5       0.0
14 H  pz              0.0       0.0       0.0       0.0       0.0       0.2
14 H  px              0.5       0.0       0.0       0.6       0.1       0.1

                     12        13        14        15        16        17   
                  -0.56494  -0.52542  -0.50927  -0.48769  -0.47420  -0.46078
                   2.00000   2.00000   2.00000   2.00000   2.00000   2.00000
                  --------  --------  --------  --------  --------  --------
 0 C  s               0.4       0.0       0.0       0.0       0.0       0.0
 0 C  pz              3.3       7.0      19.5       0.1       0.0       7.1
 0 C  px             10.8       8.4       2.7       0.2      11.3       2.2
 0 C  py              1.1       6.2       0.0       0.5       5.6       0.1
 0 C  dz2             0.1       0.3       0.5       0.0       0.0       1.1
 0 C  dxz             0.2       0.0       0.1       0.0       0.2       0.3
 0 C  dyz             0.0       0.1       0.0       0.0       0.1       0.3
 0 C  dx2y2           0.0       0.1       0.1       0.0       1.0       0.4
 0 C  dxy             0.1       0.1       0.0       0.0       0.4       0.1
 1 C  s               0.0       0.2       0.0       0.2       0.0       0.2
 1 C  pz              0.0       0.2       0.0       2.8       0.0       6.5
 1 C  px              0.0       0.3       0.0       0.3       0.0       3.0
 1 C  py             15.3       0.0       0.5       0.0       0.1       0.0
 1 C  dz2             0.0       0.7       0.0       1.9       0.0       1.1
 1 C  dxz             0.0       2.6       0.0       0.3       0.0       0.0
 1 C  dyz             0.1       0.0       3.3       0.0       0.0       0.0
 1 C  dx2y2           0.0       1.9       0.0       0.2       0.0       0.4
 1 C  dxy             0.7       0.0       1.4       0.0       0.0       0.0
 1 C  f0              0.0       0.0       0.0       0.1       0.0       0.1
 1 C  f+1             0.0       0.1       0.0       0.4       0.0       0.2
 1 C  f+2             0.0       0.0       0.0       0.0       0.0       0.1
 1 C  f-3             0.0       0.0       0.0       0.0       0.7       0.0
 2 C  s               0.0       0.0       0.0       0.0       0.0       0.1
 2 C  pz              0.0       0.2       0.0      42.2       0.0       0.1
 2 C  px              0.0       1.4       0.0       0.7       0.0       9.6
 2 C  py             17.3       0.0       6.9       0.0      17.3       0.0
 2 C  dz2             0.0       0.1       0.0       3.3       0.0       0.0
 2 C  dxz             0.0       0.0       0.0       0.3       0.0       0.0
 2 C  dyz             0.4       0.0       0.0       0.0       0.2       0.0
 2 C  dx2y2           0.0       0.0       0.0       0.0       0.0       0.2
 2 C  dxy             0.0       0.0       0.2       0.0       1.2       0.0
 2 C  f+3             0.0       0.0       0.0       0.1       0.0       0.0
 3 C  s               0.4       0.0       0.0       0.0       0.0       0.0
 3 C  pz              3.3       7.0      19.5       0.1       0.0       7.1
 3 C  px             10.8       8.4       2.7       0.2      11.4       2.2
 3 C  py              1.1       6.2       0.0       0.5       5.5       0.1
 3 C  dz2             0.1       0.3       0.5       0.0       0.0       1.1
 3 C  dxz             0.2       0.0       0.1       0.0       0.2       0.3
 3 C  dyz             0.0       0.1       0.0       0.0       0.1       0.3
 3 C  dx2y2           0.0       0.1       0.1       0.0       1.0       0.4
 3 C  dxy             0.1       0.1       0.0       0.0       0.4       0.1
 4 O  s               0.0       2.3       0.0       0.5       0.0       1.5
 4 O  pz              0.0       0.1       0.0       5.8       0.0      17.1
 4 O  px              0.0      12.8       0.0       1.9       0.0      13.2
 4 O  py              8.6       0.0       5.6       0.0       0.1       0.0
 4 O  dxz             0.0       0.1       0.0       0.2       0.0       0.0
 4 O  dyz             0.2       0.0       0.0       0.0       0.0       0.0
 5 H  s               3.7       1.2       5.1       0.1       5.9       4.4
 5 H  pz              0.2       0.2       0.1       0.0       0.1       0.0
 5 H  px              0.1       0.0       0.2       0.0       0.1       0.1
 6 H  s               0.3       9.1       0.2       0.0       7.9       0.0
 6 H  pz              0.0       0.0       0.2       0.0       0.1       0.1
 6 H  py              0.1       0.2       0.0       0.0       0.1       0.0
 7 H  s               3.0       3.6       9.5       0.0       0.0       4.7
 7 H  pz              0.1       0.1       0.2       0.0       0.0       0.0
 7 H  px              0.1       0.1       0.1       0.0       0.2       0.0
 8 H  s               4.8       0.2       2.2       3.9       6.7       1.1
 8 H  pz              0.0       0.0       0.0       0.3       0.1       0.0
 8 H  px              0.1       0.0       0.0       0.0       0.1       0.1
 8 H  py              0.0       0.0       0.0       0.2       0.0       0.1
 9 H  s               0.0       0.0       0.0      24.9       0.0       0.1
 9 H  pz              0.0       0.0       0.0       0.4       0.0       0.0
 9 H  px              0.0       0.0       0.0       0.0       0.0       0.1
 9 H  py              0.2       0.0       0.1       0.0       0.3       0.0
10 H  s               4.8       0.2       2.2       3.9       6.7       1.1
10 H  pz              0.0       0.0       0.0       0.3       0.1       0.0
10 H  px              0.1       0.0       0.0       0.0       0.1       0.1
10 H  py              0.0       0.0       0.0       0.2       0.0       0.1
11 H  s               3.7       1.2       5.1       0.1       5.9       4.4
11 H  pz              0.2       0.2       0.1       0.0       0.1       0.0
11 H  px              0.1       0.0       0.2       0.0       0.1       0.1
12 H  s               3.0       3.6       9.5       0.0       0.0       4.7
12 H  pz              0.1       0.1       0.2       0.0       0.0       0.0
12 H  px              0.1       0.1       0.1       0.0       0.2       0.0
13 H  s               0.3       9.1       0.2       0.0       7.9       0.0
13 H  pz              0.0       0.0       0.2       0.0       0.1       0.1
13 H  py              0.1       0.2       0.0       0.0       0.1       0.0
14 H  s               0.0       2.2       0.0       2.0       0.0       0.5
14 H  pz              0.0       0.0       0.0       0.1       0.0       0.6
14 H  px              0.0       0.0       0.0       0.0       0.0       0.1
14 H  py              0.1       0.0       0.2       0.0       0.0       0.0

                     18        19        20        21        22        23   
                  -0.45425  -0.42462  -0.37924   0.09634   0.14582   0.15678
                   2.00000   2.00000   2.00000   0.00000   0.00000   0.00000
                  --------  --------  --------  --------  --------  --------
 0 C  s               0.2       0.3       0.7       3.7       0.5       0.2
 0 C  pz              2.2       1.0       1.8       0.1       2.7       3.8
 0 C  px              0.4       5.6       1.2       0.8       1.2       0.8
 0 C  py             11.9       1.8       4.8       0.4       0.7       0.8
 0 C  dz2             0.6       0.1       0.2       0.3       0.2       2.6
 0 C  dxz             0.1       0.0       0.0       0.1       0.3       0.1
 0 C  dyz             0.3       0.0       0.0       0.0       0.1       0.0
 0 C  dx2y2           0.1       1.3       0.1       0.1       0.1       0.1
 0 C  dxy             0.4       0.2       0.1       0.2       0.0       0.1
 1 C  s               0.0       0.1       0.0       0.4       0.0       0.0
 1 C  pz              0.0       0.7       0.0       0.5       0.4       2.5
 1 C  px              0.0      18.9       0.0       0.1       0.3       0.0
 1 C  py             10.4       0.0       8.0       0.0       0.0       0.0
 1 C  dz2             0.0       0.1       0.0       0.0       0.3       3.1
 1 C  dxz             0.0       1.9       0.0       0.1       0.2       0.0
 1 C  dyz             0.0       0.0       3.8       0.0       0.0       0.0
 1 C  dx2y2           0.0       2.1       0.0       0.0       0.2       0.0
 1 C  dxy             1.6       0.0       1.7       0.0       0.0       0.0
 1 C  f0              0.0       0.0       0.0       0.1       0.0       0.2
 1 C  f+1             0.0       0.2       0.0       0.0       0.0       0.0
 1 C  f-1             0.3       0.0       0.9       0.0       0.0       0.0
 1 C  f+2             0.0       0.2       0.0       0.0       0.1       0.0
 1 C  f-2             0.3       0.0       0.0       0.0       0.0       0.0
 1 C  f+3             0.0       0.0       0.0       0.0       0.0       0.1
 2 C  s               0.0       0.8       0.0       2.6       2.4       0.0
 2 C  pz              0.0       1.1       0.0       0.4       0.3       3.3
 2 C  px              0.0      14.8       0.0       0.2       1.9       0.6
 2 C  py             10.6       0.0       0.2       0.0       0.0       0.0
 2 C  dz2             0.0       0.0       0.0       0.2       0.1       2.4
 2 C  dxz             0.0       0.3       0.0       0.0       0.1       0.0
 2 C  dx2y2           0.0       0.1       0.0       0.1       0.2       0.1
 2 C  dxy             2.2       0.0       0.7       0.0       0.0       0.0
 2 C  f-2             0.1       0.0       0.0       0.0       0.0       0.0
 3 C  s               0.2       0.3       0.7       3.7       0.5       0.2
 3 C  pz              2.2       1.0       1.8       0.1       2.7       3.8
 3 C  px              0.4       5.6       1.2       0.8       1.2       0.8
 3 C  py             11.9       1.8       4.9       0.4       0.7       0.8
 3 C  dz2             0.6       0.1       0.2       0.3       0.2       2.6
 3 C  dxz             0.1       0.0       0.0       0.1       0.3       0.1
 3 C  dyz             0.3       0.0       0.0       0.0       0.1       0.0
 3 C  dx2y2           0.1       1.3       0.1       0.1       0.1       0.1
 3 C  dxy             0.4       0.2       0.1       0.2       0.0       0.1
 4 O  s               0.0       2.3       0.0       1.7       1.3       1.1
 4 O  pz              0.0       5.0       0.0       0.5       0.9       1.2
 4 O  px              0.0      15.8       0.0       1.3       3.9       0.1
 4 O  py             13.9       0.0      60.3       0.0       0.0       0.0
 4 O  dxz             0.0       0.5       0.0       0.1       0.1       0.0
 4 O  dyz             0.1       0.0       0.2       0.0       0.0       0.0
 4 O  dx2y2           0.0       0.1       0.0       0.1       0.3       0.0
 5 H  s               0.5       2.4       0.1       8.6       1.2       8.9
 5 H  pz              0.0       0.0       0.0       0.4       0.1       0.0
 5 H  px              0.0       0.0       0.0       0.7       0.0       1.1
 5 H  py              0.2       0.0       0.1       0.1       0.0       0.0
 6 H  s               5.7       0.7       0.4       3.6       4.9       3.9
 6 H  pz              0.0       0.0       0.0       0.1       0.1       0.1
 6 H  px              0.1       0.0       0.0       0.3       0.1       0.3
 6 H  py              0.0       0.1       0.1       0.2       0.3       0.4
 7 H  s               1.7       0.7       1.1       6.8       4.1       9.2
 7 H  pz              0.0       0.0       0.0       1.0       0.3       0.7
 7 H  py              0.2       0.0       0.1       0.0       0.0       0.0
 8 H  s               5.0       1.2       0.3       3.1       5.5       2.6
 8 H  pz              0.0       0.0       0.0       0.1       0.1       0.1
 8 H  px              0.1       0.2       0.0       0.0       0.0       0.0
 8 H  py              0.0       0.0       0.0       0.3       0.7       0.3
 9 H  s               0.0       0.2       0.0       6.7       3.8      10.9
 9 H  pz              0.0       0.0       0.0       0.7       0.5       1.0
 9 H  px              0.0       0.2       0.0       0.1       0.1       0.0
 9 H  py              0.1       0.0       0.0       0.0       0.0       0.0
10 H  s               5.0       1.2       0.3       3.1       5.5       2.6
10 H  pz              0.0       0.0       0.0       0.1       0.1       0.1
10 H  px              0.1       0.2       0.0       0.0       0.0       0.0
10 H  py              0.0       0.0       0.0       0.3       0.7       0.3
11 H  s               0.5       2.4       0.1       8.6       1.2       8.9
11 H  pz              0.0       0.0       0.0       0.4       0.1       0.0
11 H  px              0.0       0.0       0.0       0.7       0.0       1.1
11 H  py              0.2       0.0       0.1       0.1       0.0       0.0
12 H  s               1.7       0.6       1.1       6.8       4.1       9.2
12 H  pz              0.0       0.0       0.0       1.0       0.3       0.7
12 H  py              0.2       0.0       0.1       0.0       0.0       0.0
13 H  s               5.7       0.7       0.4       3.6       4.9       3.9
13 H  pz              0.0       0.0       0.0       0.1       0.1       0.1
13 H  px              0.1       0.0       0.0       0.3       0.1       0.3
13 H  py              0.0       0.1       0.1       0.2       0.3       0.4
14 H  s               0.0       2.2       0.0      19.2      32.3       0.9
14 H  pz              0.0       0.2       0.0       0.3       0.9       0.1
14 H  px              0.0       0.1       0.0       1.9       2.8       0.0
14 H  py              0.3       0.0       1.7       0.0       0.0       0.0

                     24        25        26        27        28        29   
                   0.16493   0.16936   0.18329   0.18784   0.21268   0.23007
                   0.00000   0.00000   0.00000   0.00000   0.00000   0.00000
                  --------  --------  --------  --------  --------  --------
 0 C  s               5.1       1.6       0.2       0.1       0.2       0.1
 0 C  pz              0.2       1.2       0.8       0.7       0.0       7.2
 0 C  px              0.6       2.7       2.1       4.6       3.8       1.4
 0 C  py              6.0       0.7       2.4       1.1      13.6       0.2
 0 C  dz2             0.0       0.0       0.0       0.0       0.3       2.9
 0 C  dxz             0.0       0.1       0.4       0.9       0.2       0.0
 0 C  dyz             0.0       0.0       0.2       0.3       0.4       0.0
 0 C  dx2y2           0.0       0.2       0.1       0.9       2.2       0.4
 0 C  dxy             0.0       0.0       0.9       0.3       6.4       0.0
 1 C  s               0.0       0.0       0.0       0.1       7.8       0.0
 1 C  pz              0.0       0.0       0.0       0.6       0.6       0.0
 1 C  px              0.0       0.9       0.0       0.3       0.0       0.0
 1 C  py              0.8       0.0       0.8       0.0       0.0       0.3
 1 C  dz2             0.0       0.0       0.0       0.0       0.2       0.0
 1 C  dxz             0.0       0.5       0.0       0.0       0.0       0.0
 1 C  dyz             0.1       0.0       0.0       0.0       0.0       1.1
 1 C  dx2y2           0.0       0.7       0.0       2.3       0.0       0.0
 1 C  dxy             0.5       0.0       2.9       0.0       0.0       1.1
 1 C  f0              0.0       0.0       0.0       0.0       0.1       0.0
 1 C  f-1             0.0       0.0       0.0       0.0       0.0       0.1
 1 C  f+2             0.0       0.0       0.0       0.1       0.0       0.0
 1 C  f-2             0.0       0.0       0.2       0.0       0.0       0.1
 2 C  s               0.0       6.1       0.0       0.4       0.2       0.0
 2 C  pz              0.0       0.4       0.0       2.7       0.5       0.0
 2 C  px              0.0       7.4       0.0       1.7      16.2       0.0
 2 C  py              1.9       0.0       8.8       0.0       0.0       0.9
 2 C  dz2             0.0       0.0       0.0       0.3       0.1       0.0
 2 C  dxz             0.0       0.0       0.0       0.0       1.2       0.0
 2 C  dyz             0.0       0.0       1.7       0.0       0.0       0.3
 2 C  dx2y2           0.0       0.0       0.0       0.6       7.4       0.0
 2 C  dxy             0.2       0.0       2.2       0.0       0.0       1.1
 3 C  s               5.1       1.6       0.2       0.1       0.2       0.1
 3 C  pz              0.2       1.2       0.8       0.7       0.0       7.2
 3 C  px              0.6       2.7       2.1       4.6       3.8       1.4
 3 C  py              6.0       0.8       2.4       1.0      13.6       0.2
 3 C  dz2             0.0       0.0       0.1       0.0       0.3       2.9
 3 C  dxz             0.0       0.1       0.4       0.9       0.2       0.0
 3 C  dyz             0.0       0.0       0.2       0.3       0.4       0.0
 3 C  dx2y2           0.0       0.2       0.1       0.9       2.2       0.4
 3 C  dxy             0.0       0.0       0.9       0.3       6.4       0.0
 4 O  s               0.0       0.3       0.0       1.3       0.4       0.0
 4 O  pz              0.0       0.5       0.0       1.5       0.3       0.0
 4 O  px              0.0       0.0       0.0       0.4       0.1       0.0
 4 O  py              0.8       0.0       0.4       0.0       0.0       0.3
 4 O  dz2             0.0       0.0       0.0       0.0       0.4       0.0
[...]
 2 C  f-2             0.0       0.0       0.2       0.2       0.0       0.0
 2 C  f+3             0.0       0.1       0.0       0.0       0.0       0.0
 3 C  s               0.0       0.0       0.1       0.1       0.1       0.1
 3 C  pz              0.1       0.0       0.1       0.0       0.0       0.0
 3 C  dxz             0.0       0.1       0.0       0.1       0.0       0.0
 3 C  dyz             0.0       0.1       0.1       0.3       0.0       0.1
 3 C  f0              0.0       0.0       0.0       0.4       0.0       0.2
 3 C  f+1             0.0       0.1       0.0       0.0       0.0       0.0
 3 C  f-1             0.2       0.0       0.1       0.0       0.1       0.0
 3 C  f+2             0.2       0.0       0.0       0.0       0.1       0.1
 3 C  f-2             0.0       0.0       0.1       0.2       0.1       0.0
 4 O  s               0.0       0.0       0.0       0.0       1.3       2.1
 4 O  pz              0.0       0.1       0.0       0.0       5.4       4.7
 4 O  px              0.0       0.6       0.0       0.0       1.6       0.0
 4 O  py              0.1       0.0       0.1       1.2       0.0       0.0
 4 O  dz2             0.0       0.6       0.0       0.0       5.9       8.8
 4 O  dxz             0.0       0.6       0.0       0.0       2.2       6.2
 4 O  dyz             0.0       0.0       0.7      14.8       0.0       0.0
 4 O  dx2y2           0.0       3.2       0.0       0.0       0.1       0.3
 4 O  dxy             3.3       0.0       0.2       0.0       0.0       0.0
 4 O  f0              0.0       0.1       0.0       0.0      20.8      11.6
 4 O  f+1             0.0       0.7       0.0       0.0      29.6      44.3
 4 O  f-1             0.3       0.0       1.0      66.9       0.0       0.0
 4 O  f+2             0.0      34.9       0.0       0.0      15.1       1.7
 4 O  f-2            21.5       0.0      66.9       0.8       0.0       0.0
 4 O  f+3             0.0      47.1       0.0       0.0       1.9       2.9
 4 O  f-3            68.6       0.0      23.2       0.0       0.0       0.0
 7 H  s               0.0       0.0       0.0       0.1       0.0       0.1
 9 H  s               0.0       0.1       0.0       0.0       0.2       0.0
12 H  s               0.0       0.0       0.0       0.1       0.0       0.1
14 H  s               0.0       0.3       0.0       0.0       0.6       0.6
14 H  pz              0.0       0.8       0.0       0.0       0.4       1.4
14 H  px              0.0       0.0       0.0       0.0       0.3       0.1
14 H  py              0.6       0.0       2.1       0.0       0.0       0.0

                    204       205       206       207       208       209   
                   6.40195   6.59276   6.85382   6.94500   7.11457   7.29124
                   0.00000   0.00000   0.00000   0.00000   0.00000   0.00000
                  --------  --------  --------  --------  --------  --------
 0 C  s               0.0       0.1       0.1       0.0       0.0       0.0
 0 C  pz              0.1       0.0       0.0       0.2       0.0       0.0
 1 C  s               0.1       0.0       0.1       0.0       0.8       0.0
 1 C  pz              0.2       0.0       0.3       0.0       2.4       0.0
 1 C  px              0.2       0.0       0.1       0.0       0.1       0.3
 1 C  py              0.0       0.1       0.0       0.7       0.0       0.0
 1 C  dz2             0.8       0.0       0.3       0.0       1.5       0.0
 1 C  dxz             0.1       0.0       0.9       0.0       0.1       0.6
 1 C  dyz             0.0       0.0       0.0       2.0       0.0       0.0
 1 C  dx2y2           0.8       0.0       0.0       0.0       0.0       0.3
 1 C  dxy             0.0       0.9       0.0       0.0       0.0       0.0
 1 C  f0              0.1       0.0       0.0       0.0       0.4       0.0
 1 C  f+1             0.2       0.0       0.3       0.0       0.0       0.7
 1 C  f-1             0.0       0.0       0.0       1.0       0.0       0.0
 1 C  f+2             0.1       0.0       0.0       0.0       0.0       0.0
 2 C  px              0.0       0.0       0.0       0.0       0.1       0.0
 2 C  dz2             0.1       0.0       0.0       0.0       0.0       0.1
 2 C  dxz             0.2       0.0       0.0       0.0       0.0       0.0
 3 C  s               0.0       0.1       0.1       0.0       0.0       0.0
 3 C  pz              0.1       0.0       0.0       0.2       0.0       0.0
 4 O  s               5.0       0.0       1.6       0.0       2.2       3.3
 4 O  pz              0.0       0.0       0.0       0.0       3.1       0.6
 4 O  px              3.5       0.0       3.0       0.0       0.0       1.4
 4 O  py              0.0       0.0       0.0       1.1       0.0       0.0
 4 O  dz2             1.0       0.0       0.1       0.0      79.9       1.2
 4 O  dxz             9.4       0.0      36.5       0.0       0.9      43.7
 4 O  dyz             0.0       1.3       0.0      82.3       0.0       0.0
 4 O  dx2y2          35.9       0.0      45.9       0.0       0.1      13.7
 4 O  dxy             0.0      93.5       0.0       1.3       0.0       0.0
 4 O  f0             10.1       0.0       1.8       0.0       6.9       5.4
 4 O  f+1             0.3       0.0       1.2       0.0       0.3       4.7
 4 O  f-1             0.0       0.1       0.0       9.5       0.0       0.0
 4 O  f+2            17.0       0.0       0.3       0.0       0.0       8.2
 4 O  f-2             0.0       0.0       0.0       1.0       0.0       0.0
 4 O  f+3             6.9       0.0       4.6       0.0       0.2       7.7
 4 O  f-3             0.0       2.6       0.0       0.0       0.0       0.0
14 H  s               5.5       0.0       1.8       0.0       0.0       7.1
14 H  pz              0.1       0.0       0.2       0.0       0.0       0.1
14 H  px              1.6       0.0       0.1       0.0       0.1       0.3
14 H  py              0.0       0.3       0.0       0.0       0.0       0.0

                    210       211       212       213       214   
                  22.44726  22.48751  22.49788  22.69135  44.09716
                   0.00000   0.00000   0.00000   0.00000   0.00000
                  --------  --------  --------  --------  --------
 0 C  s              40.4      49.3       7.4       1.6       0.0
 1 C  s               4.5       0.0       0.2      94.0       0.1
 1 C  px              0.0       0.0       0.1       0.0       0.0
 1 C  py              0.0       0.1       0.0       0.0       0.0
 1 C  dxy             0.0       0.1       0.0       0.0       0.0
 2 C  s              13.3       0.0      83.7       1.6       0.0
 3 C  s              40.4      49.4       7.3       1.6       0.0
 4 O  s               0.0       0.0       0.0       0.2      99.7
 4 O  pz              0.0       0.0       0.0       0.3       0.0
 4 O  dz2             0.0       0.0       0.0       0.1       0.0
 5 H  s               0.1       0.1       0.0       0.0       0.0
 7 H  s               0.1       0.1       0.0       0.0       0.0
 8 H  s               0.0       0.0       0.2       0.0       0.0
 9 H  s               0.0       0.0       0.2       0.0       0.0
10 H  s               0.0       0.0       0.2       0.0       0.0
11 H  s               0.1       0.1       0.0       0.0       0.0
12 H  s               0.1       0.1       0.0       0.0       0.0


                      *****************************
                      * MAYER POPULATION ANALYSIS *
                      *****************************

  NA   - Mulliken gross atomic population
  ZA   - Total nuclear charge
  QA   - Mulliken gross atomic charge
  VA   - Mayer's total valence
  BVA  - Mayer's bonded valence
  FA   - Mayer's free valence

  ATOM       NA         ZA         QA         VA         BVA        FA
  0 C      6.3541     6.0000    -0.3541     3.9038     3.9038    -0.0000
  1 C      5.8114     6.0000     0.1886     3.9733     3.9733    -0.0000
  2 C      6.3188     6.0000    -0.3188     3.8365     3.8365    -0.0000
  3 C      6.3542     6.0000    -0.3542     3.9038     3.9038    -0.0000
  4 O      8.4450     8.0000    -0.4450     1.9371     1.9371    -0.0000
  5 H      0.8996     1.0000     0.1004     0.9821     0.9821    -0.0000
  6 H      0.8764     1.0000     0.1236     0.9799     0.9799    -0.0000
  7 H      0.8939     1.0000     0.1061     0.9793     0.9793    -0.0000
  8 H      0.8850     1.0000     0.1150     0.9864     0.9864     0.0000
  9 H      0.8991     1.0000     0.1009     0.9769     0.9769    -0.0000
 10 H      0.8850     1.0000     0.1150     0.9864     0.9864    -0.0000
 11 H      0.8996     1.0000     0.1004     0.9821     0.9821     0.0000
 12 H      0.8939     1.0000     0.1061     0.9793     0.9793    -0.0000
 13 H      0.8764     1.0000     0.1236     0.9799     0.9799    -0.0000
 14 H      0.7077     1.0000     0.2923     0.9329     0.9329     0.0000

  Mayer bond orders larger than 0.100000
B(  0-C ,  1-C ) :   0.9929 B(  0-C ,  5-H ) :   0.9690 B(  0-C ,  6-H ) :   0.9821 
B(  0-C ,  7-H ) :   0.9716 B(  1-C ,  2-C ) :   0.9606 B(  1-C ,  3-C ) :   0.9930 
B(  1-C ,  4-O ) :   0.9936 B(  2-C ,  8-H ) :   0.9797 B(  2-C ,  9-H ) :   0.9721 
B(  2-C , 10-H ) :   0.9797 B(  3-C , 11-H ) :   0.9690 B(  3-C , 12-H ) :   0.9716 
B(  3-C , 13-H ) :   0.9821 B(  4-O , 14-H ) :   0.9052 

-------
TIMINGS
-------

Total SCF time: 0 days 0 hours 0 min 43 sec 

Total time                  ....      43.844 sec
Sum of individual times     ....      42.837 sec  ( 97.7%)

SCF preparation             ....       0.047 sec  (  0.1%)
Fock matrix formation       ....      42.546 sec  ( 97.0%)
  Startup                   ....       0.002 sec  (  0.0% of F)
  Split-RI-J                ....       1.434 sec  (  3.4% of F)
  Chain of spheres X        ....      37.197 sec  ( 87.4% of F)
  XC integration            ....       4.878 sec  ( 11.5% of F)
    Basis function eval.    ....       1.302 sec  ( 26.7% of XC)
    Density eval.           ....       1.014 sec  ( 20.8% of XC)
    XC-Functional eval.     ....       1.257 sec  ( 25.8% of XC)
    XC-Potential eval.      ....       1.227 sec  ( 25.2% of XC)
Diagonalization             ....       0.000 sec  (  0.0%)
Density matrix formation    ....       0.008 sec  (  0.0%)
Total Energy calculation    ....       0.002 sec  (  0.0%)
Population analysis         ....       0.092 sec  (  0.2%)
Orbital Transformation      ....       0.011 sec  (  0.0%)
Orbital Orthonormalization  ....       0.000 sec  (  0.0%)
DIIS solution               ....       0.038 sec  (  0.1%)
  MO trafo                  ....       0.000 sec  (  0.0 % of DIIS)
  Orb grad                  ....       0.000 sec  (  0.0 % of DIIS)
  Energy W gradient         ....       0.000 sec  (  0.0 % of DIIS)
  DIIS error                ....       0.005 sec  ( 12.1 % of DIIS)
  DIIS work                 ....       0.027 sec  ( 72.3 % of DIIS)
  Form Q                    ....       0.000 sec  (  0.0 % of DIIS)
  Form QpQm                 ....       0.000 sec  (  0.0 % of DIIS)
  Exp/Cayley                ....       0.000 sec  (  0.0 % of DIIS)
  Orb update                ....       0.000 sec  (  0.0 % of DIIS)
  Wake-sleep                ....       0.000 sec  (  0.9 % of DIIS)
SOSCF solution              ....       0.019 sec  (  0.0%)
  MO trafo                  ....       0.010 sec  ( 55.3 % of SOSCF)
  Orb grad                  ....       0.000 sec  (  0.8 % of SOSCF)
  Rot update                ....       0.001 sec  (  2.7 % of SOSCF)
  Step                      ....       0.008 sec  ( 41.0 % of SOSCF)
Grid generation             ....       0.075 sec  (  0.2%)
Finished LeanSCF after  43.8 sec

Maximum memory used throughout the entire LEANSCF-calculation: 26.3 MB
------------------   -----------------
gCP correction             0.010745164
------------------   -----------------

-------------------------   --------------------
FINAL SINGLE POINT ENERGY      -233.686886111694
-------------------------   --------------------


------------------------------------------------------------------------------
                              ORCA PROPERTY CALCULATIONS
------------------------------------------------------------------------------

GBWName                                 ... sp.gbw
Number of atoms                         ...     15
Number of basis functions               ...    215
Max core memory                         ...   1024 MB

Electric properties:
Dipole moment                           ... YES
Quadrupole moment                       ...  NO
Static polarizability (Dipole/Dipole)   ...  NO
Static polarizability (Dipole/Quad.)    ...  NO
Static polarizability (Quad./Quad.)     ...  NO
Static polarizability (Velocity)        ...  NO

Atomic electric properties:
Dipole moment                           ...  NO
Quadrupole moment                       ...  NO
Static polarizability                   ...  NO

Choice of electric origin               ... Center of mass
Position of electric origin             ...    -0.001091     0.000043    -0.000905

General magnetic properties:
Magnetizability                         ...  NO

EPR properties:
g-Tensor (aka g-matrix)                 ...  NO
Zero-Field splitting spin-orbit         ...  NO
Zero-field splitting spin-spin          ...  NO
Hyperfine couplings                     ...  NO (   0 nuclei)
Quadrupole couplings                    ...  NO (   0 nuclei)
Contact density                         ...  NO (   0 nuclei)

NMR properties:
Chemical shifts                         ...  NO (   0 nuclei)
Spin-rotation constants                 ...  NO (   0 nuclei)
Spin-spin couplings                     ...  NO (   0 nuclei,    0 pairs)

Choice of magnetic origin               ... GIAO
Position of magnetic origin             ...     0.000000     0.000000     0.000000

Properties with geometric perturbations:
SCF Hessian                             ...  NO
IR spectrum                             ...  NO
VCD spectrum                            ...  NO
X-ray spectroscopy properties:
SCF XES/XAS/RIXS spectra                ...  NO


-------------
DIPOLE MOMENT
-------------

Method             : SCF
Type of density    : Electron Density
Multiplicity       :   1
Irrep              :   0
Energy             :  -233.6976312751943681 Eh
Relativity type    : 
Basis              : AO
                                X                 Y                 Z
Electronic contribution:     -0.496612734      -0.001507041       3.185740814
Nuclear contribution   :      1.017595426       0.002371258      -3.552259719
                        -----------------------------------------
Total Dipole Moment    :      0.520982692       0.000864217      -0.366518905
                        -----------------------------------------
Magnitude (a.u.)       :      0.636992794
Magnitude (Debye)      :      1.619107011



--------------------
Rotational spectrum 
--------------------
 
Rotational constants in cm-1:             0.156653             0.155709             0.150492 
Rotational constants in MHz :          4696.325955          4668.039660          4511.625647 

Dipole components along the rotational axes: 
x,y,z [a.u.] :    -0.544959    -0.000453    -0.329818 
x,y,z [Debye]:    -1.385175    -0.001150    -0.838330 

 

Dipole moment calculation done in   0.0 sec 

Maximum memory used throughout the entire PROP-calculation: 15.5 MB

--------------------------------
SUGGESTED CITATIONS FOR THIS RUN
--------------------------------

Below you find a list of papers that are relevant to this ORCA run
We neither can nor want to force you to cite these papers, but we appreciate if you do
You receive ORCA, which is the product of decades of hard work by many enthusiastic individuals, for free
The only thing we kindly ask in return is that you cite our papers,
We deeply appreciate it, if you show your appreciation for ORCA by not just citing the generic ORCA reference.

Please note that relegating all ORCA citations to the supporting information does *not* help us.
SI sections are not indexed - citations you put there will not count into any citation statistics
But we need these citations in order to attract the funding resources that allow us to do what we are doing

Therefore, if you are a happy ORCA user, please consider citing a few of the papers listed below in the main body of your paper

In addition to the list printed below, the program has created the file sp.bibtex that contains the list in bibtex format
You can import this file easily into all common literature databanks and citation aid programs


List of essential papers. We consider these as the minimum necessary citations

  1. Neese,F.
     Software update: the ORCA program system, version 5.0
     WIRES Comput. Molec. Sci., 2022 12(1)e1606
     doi.org/10.1002/wcms.1606

List of papers to cite with high priority. The work reported in these papers was absolutely
necessary for this run to complete.
Our perspective: the developers of density functionals and basis sets usually get cited in chemistry papers
Good! But without the algorithms to do something with them, the functionals or basis sets would not do anything.
Hence, in our opinion, the algorithm design and method developments papers are equally worthy of getting cited

  1. Neese,F.
     An improvement of the resolution of the identity approximation for the formation of the Coulomb matrix
     J. Comp. Chem., 2003 24(14)1740-1747
     doi.org/10.1002/jcc.10318
  2. Neese,F.; Wennmohs,F.; Hansen,A.; Becker,U.
     Efficient, approximate and parallel Hartree-Fock and hybrid DFT calculations. A 'chain-of-spheres' algorithm for the Hartree-Fock exchange
     Chem. Phys., 2009 356(1-3)98-109
     doi.org/10.1016/j.chemphys.2008.10.036
  3. Helmich-Paris,B.; de Souza,B.; Neese,F.; Izsák,R.
     An improved chain of spheres for exchange algorithm
     J. Chem. Phys., 2021 155 104109
     doi.org/doi: 10.1063/5.0058766.
  4. Neese,F.
     The SHARK Integral Generation and Digestion System
     J. Comp. Chem., 2022  1-16
     doi.org/10.1002/jcc.26942

List of suggested additional citations. These are papers that are important in the 'surrounding' of 
of this run, or papers that preceded the highly important papers. If you like your results we are grateful for a citation.

  1. Izsak,R.; Neese,F.
     An overlap fitted chain of spheres exchange method
     J. Chem. Phys., 2011 135 144105
     doi.org/10.1063/1.3646921
  2. Izsak,R.; Hansen,A.; Neese,F.
     The resolution of identity and chain of spheres approximations for the LPNO-CCSD singles Fock term
     Molec. Phys., 2012 110 2413-2417
     doi.org/10.1080/00268976.2012.687466
  3. Neese,F.
     The ORCA program system
     WIRES Comput. Molec. Sci., 2012 2(1)73-78
     doi.org/10.1002/wcms.81
  4. Izsak,R.; Neese,F.; Klopper,W.
     Robust fitting techniques in the chain of spheres approximation to the Fock exchange: The role of the complementary space
     J. Chem. Phys., 2013 139 
     doi.org/10.1063/1.4819264
  5. Neese,F.
     Software update: the ORCA program system, version 4.0
     WIRES Comput. Molec. Sci., 2018 8(1)1-6
     doi.org/10.1002/wcms.1327
  6. Neese,F.; Wennmohs,F.; Becker,U.; Riplinger,C.
     The ORCA quantum chemistry program package
     J. Chem. Phys., 2020 152 Art. No. L224108
     doi.org/10.1063/5.0004608

List of optional additional citations

  1. Neese,F.
     Approximate second-order SCF convergence for spin unrestricted wavefunctions
     Chem. Phys. Lett., 2000 325(1-3)93-98
     doi.org/10.1016/s0009-2614(00)00662-x

Timings for individual modules:

Sum of individual times          ...       44.747 sec (=   0.746 min)
Startup calculation              ...        0.791 sec (=   0.013 min)   1.8 %
SCF iterations                   ...       43.919 sec (=   0.732 min)  98.1 %
Property calculations            ...        0.037 sec (=   0.001 min)   0.1 %
                             ****ORCA TERMINATED NORMALLY****
TOTAL RUN TIME: 0 days 0 hours 0 minutes 44 seconds 795 msec
