      -----------------------------------------------------------      
     |                   =====================                   |     
     |                           x T B                           |     
     |                   =====================                   |     
     |                         S. Grimme                         |     
     |          Mulliken Center for Theoretical Chemistry        |     
     |                    University of Bonn                     |     
      -----------------------------------------------------------      

   * xtb version 6.7.1 (41059b4) compiled by 'michael@archlinux' on 2025-03-24

   xtb is free software: you can redistribute it and/or modify it under
   the terms of the GNU Lesser General Public License as published by
   the Free Software Foundation, either version 3 of the License, or
   (at your option) any later version.
   
   xtb is distributed in the hope that it will be useful,
   but WITHOUT ANY WARRANTY; without even the implied warranty of
   MERCHANTABILITY or FITNESS FOR A PARTICULAR PURPOSE.  See the
   GNU Lesser General Public License for more details.
   
   Cite this work as:
   * C. Bannwarth, E. Caldeweyher, S. Ehlert, A. Hansen, P. Pracht,
     J. Seibert, S. Spicher, S. Grimme, WIREs Comput. Mol. Sci., 2020, 11,
     e01493. DOI: 10.1002/wcms.1493
   
   for GFN2-xTB:
   * C. Bannwarth, S. Ehlert and S. Grimme., J. Chem. Theory Comput., 2019,
     15, 1652-1671. DOI: 10.1021/acs.jctc.8b01176
   for GFN1-xTB:
   * S. Grimme, C. Bannwarth, P. Shushkov, J. Chem. Theory Comput., 2017,
     13, 1989-2009. DOI: 10.1021/acs.jctc.7b00118
   for GFN0-xTB:
   * P. Pracht, E. Caldeweyher, S. Ehlert, S. Grimme, ChemRxiv, 2019, preprint.
     DOI: 10.26434/chemrxiv.8326202.v1
   for GFN-FF:
   * S. Spicher and S. Grimme, Angew. Chem. Int. Ed., 2020, 59, 15665-15673.
     DOI: 10.1002/anie.202004239
   
   for ALPB and GBSA implicit solvation:
   * S. Ehlert, M. Stahn, S. Spicher, S. Grimme, J. Chem. Theory Comput.,
     2021, 17, 4250-4261. DOI: 10.1021/acs.jctc.1c00471
   
   for ddCOSMO and CPCM-X implicit solvation:
   * M. Stahn, S. Ehlert, S. Grimme, J. Phys. Chem. A,
     2023, XX, XXXX-XXXX. DOI: 10.1021/acs.jpca.3c04382
   
   for DFT-D4:
   * E. Caldeweyher, C. Bannwarth and S. Grimme, J. Chem. Phys., 2017,
     147, 034112. DOI: 10.1063/1.4993215
   * E. Caldeweyher, S. Ehlert, A. Hansen, H. Neugebauer, S. Spicher,
     C. Bannwarth and S. Grimme, J. Chem. Phys., 2019, 150, 154122.
     DOI: 10.1063/1.5090222
   * E. Caldeweyher, J.-M. Mewes, S. Ehlert and S. Grimme, Phys. Chem. Chem. Phys.
     2020, 22, 8499-8512. DOI: 10.1039/D0CP00502A
   
   for sTDA-xTB:
   * S. Grimme and C. Bannwarth, J. Chem. Phys., 2016, 145, 054103.
     DOI: 10.1063/1.4959605
   
   in the mass-spec context:
   * V. Asgeirsson, C. Bauer and S. Grimme, Chem. Sci., 2017, 8, 4879.
     DOI: 10.1039/c7sc00601b
   * J. Koopman and S. Grimme, ACS Omega 2019, 4, 12, 15120-15133.
     DOI: 10.1021/acsomega.9b02011
   
   for metadynamics refer to:
   * S. Grimme, J. Chem. Theory Comput., 2019, 155, 2847-2862
     DOI: 10.1021/acs.jctc.9b00143
   
   for SPH calculations refer to:
   * S. Spicher and S. Grimme, J. Chem. Theory Comput., 2021, 17, 1701-1714
     DOI: 10.1021/acs.jctc.0c01306
   
   for ONIOM refer to:
   * C. Plett, A. Katbashev, S. Ehlert, S. Grimme, M. Bursch,
     Phys. Chem. Chem. Phys., 2023, 25, 17860-17868. DOI: 10.1039/D3CP02178E
   
   for DIPRO refer to:
   * J. Kohn, N. Gildemeister, S. Grimme, D. Fazzi, A. Hansen,
     J. Chem. Phys., 2023, just accepted.
   
   for PTB refer to:
   * S. Grimme, M. Mueller, A. Hansen, J. Chem. Phys., 2023, 158, 124111.
     DOI: 10.1063/5.0137838
   
   with help from (in alphabetical order)
   P. Atkinson, C. Bannwarth, F. Bohle, G. Brandenburg, E. Caldeweyher
   M. Checinski, S. Dohm, S. Ehlert, S. Ehrlich, I. Gerasimov, C. Hölzer
   A. Katbashev, J. Kohn, J. Koopman, C. Lavigne, S. Lehtola, F. März, M. Müller,
   F. Musil, H. Neugebauer, J. Pisarek, C. Plett, P. Pracht, F. Pultar,
   J. Seibert, P. Shushkov, S. Spicher, M. Stahn, M. Steiner, T. Strunk,
   J. Stückrath, T. Rose, and J. Unsleber
   
 * started run on 2025/04/08 at 22:38:17.321     
   ID    Z sym.   atoms
    1    6 C      1-3, 6
    2    8 O      4, 5
    3    1 H      7-14

           -------------------------------------------------
          |                Calculation Setup                |
           -------------------------------------------------

          program call               : /usr/bin/xtb xtb_rrho.coord --gfn2 --ohess vtight --chrg 0 --enso --norestart -I rrho-xcontrol-inp --parallel 1
          coordinate file            : xtb_rrho.coord
          omp threads                :                     1


           -------------------------------------------------
          |                 G F N 2 - x T B                 |
           -------------------------------------------------

        Reference                      10.1021/acs.jctc.8b01176
      * Hamiltonian:
        H0-scaling (s, p, d)           1.850000    2.230000    2.230000
        zeta-weighting                 0.500000
      * Dispersion:
        s8                             2.700000
        a1                             0.520000
        a2                             5.000000
        s9                             5.000000
      * Repulsion:
        kExp                           1.500000    1.000000
        rExp                           1.000000
      * Coulomb:
        alpha                          2.000000
        third order                    shell-resolved
        anisotropic                    true
        a3                             3.000000
        a5                             4.000000
        cn-shift                       1.200000
        cn-exp                         4.000000
        max-rad                        5.000000


          ...................................................
          :                      SETUP                      :
          :.................................................:
          :  # basis functions                  32          :
          :  # atomic orbitals                  32          :
          :  # shells                           20          :
          :  # electrons                        36          :
          :  max. iterations                   250          :
          :  Hamiltonian                  GFN2-xTB          :
          :  restarted?                      false          :
          :  GBSA solvation                  false          :
          :  PC potential                    false          :
          :  electronic temp.          300.0000000     K    :
          :  accuracy                    1.0000000          :
          :  -> integral cutoff          0.2500000E+02      :
          :  -> integral neglect         0.1000000E-07      :
          :  -> SCF convergence          0.1000000E-05 Eh   :
          :  -> wf. convergence          0.1000000E-03 e    :
          :  Broyden damping             0.4000000          :
          :  net charge                          0          :
          :  unpaired electrons                  0          :
          ...................................................

 iter      E             dE          RMSdq      gap      omega  full diag
   1    -20.9409678 -0.209410E+02  0.445E+00    5.95       0.0  T
   2    -20.9920802 -0.511125E-01  0.228E+00    4.78       1.0  T
   3    -20.9945484 -0.246821E-02  0.129E+00    5.27       1.0  T
   4    -20.9973651 -0.281670E-02  0.169E-01    4.98       1.0  T
   5    -20.9975206 -0.155438E-03  0.767E-02    5.03       1.0  T
   6    -20.9975237 -0.314204E-05  0.143E-02    5.03       1.9  T
   7    -20.9975240 -0.309192E-06  0.583E-03    5.03       4.6  T
   8    -20.9975241 -0.809313E-07  0.182E-03    5.03      14.7  T
   9    -20.9975241 -0.400619E-08  0.825E-04    5.03      32.4  T
  10    -20.9975241 -0.197383E-08  0.187E-04    5.03     142.7  T

   *** convergence criteria satisfied after 10 iterations ***

         #    Occupation            Energy/Eh            Energy/eV
      -------------------------------------------------------------
         1        2.0000           -0.7397853             -20.1306
       ...           ...                  ...                  ...
        12        2.0000           -0.4962483             -13.5036
        13        2.0000           -0.4814811             -13.1018
        14        2.0000           -0.4769756             -12.9792
        15        2.0000           -0.4616047             -12.5609
        16        2.0000           -0.4514542             -12.2847
        17        2.0000           -0.4446105             -12.0985
        18        2.0000           -0.4160494             -11.3213 (HOMO)
        19                         -0.2312556              -6.2928 (LUMO)
        20                         -0.0077743              -0.2115
        21                          0.1053487               2.8667
        22                          0.1176049               3.2002
        23                          0.1276567               3.4737
       ...                                ...                  ...
        32                          0.6337166              17.2443
      -------------------------------------------------------------
                  HL-Gap            0.1847938 Eh            5.0285 eV
             Fermi-level           -0.3236525 Eh           -8.8070 eV

 SCC (total)                   0 d,  0 h,  0 min,  0.010 sec
 SCC setup                      ...        0 min,  0.000 sec (  1.215%)
 Dispersion                     ...        0 min,  0.000 sec (  0.983%)
 classical contributions        ...        0 min,  0.000 sec (  0.269%)
 integral evaluation            ...        0 min,  0.001 sec (  9.780%)
 iterations                     ...        0 min,  0.005 sec ( 49.159%)
 molecular gradient             ...        0 min,  0.003 sec ( 25.093%)
 printout                       ...        0 min,  0.001 sec ( 13.342%)

         :::::::::::::::::::::::::::::::::::::::::::::::::::::
         ::                     SUMMARY                     ::
         :::::::::::::::::::::::::::::::::::::::::::::::::::::
         :: total energy             -20.782660011449 Eh    ::
         :: gradient norm              0.027222199315 Eh/a0 ::
         :: HOMO-LUMO gap              5.028494130450 eV    ::
         ::.................................................::
         :: SCC energy               -20.997525577375 Eh    ::
         :: -> isotropic ES            0.045060203065 Eh    ::
         :: -> anisotropic ES          0.002312181440 Eh    ::
         :: -> anisotropic XC          0.004622793044 Eh    ::
         :: -> dispersion             -0.006848397375 Eh    ::
         :: repulsion energy           0.214865565926 Eh    ::
         :: add. restraining           0.000000000000 Eh    ::
         :: total charge              -0.000000000000 e     ::
         :::::::::::::::::::::::::::::::::::::::::::::::::::::

      ----------------------------------------------------------- 
     |                   =====================                   |
     |                        A N C O P T                        |
     |                   =====================                   |
     |               Approximate Normal Coordinate               |
     |                Rational Function Optimizer                |
      ----------------------------------------------------------- 

          ...................................................
          :                      SETUP                      :
          :.................................................:
          :   optimization level         verytight          :
          :   max. optcycles                   280          :
          :   ANC micro-cycles                  20          :
          :   degrees of freedom                36          :
          :.................................................:
          :   RF solver                   davidson          :
          :   write xtbopt.log                true          :
          :   linear?                        false          :
          :   energy convergence         0.1000000E-06 Eh   :
          :   grad. convergence          0.2000000E-03 Eh/α :
          :   maximum RF displ.          1.0000000          :
          :   Hlow (freq-cutoff)         0.1000000E-01      :
          :   Hmax (freq-cutoff)         5.0000000          :
          :   S6 in model hess.         20.0000000          :
          ...................................................

generating ANC from exact Hessian ...
Using Lindh-Hessian (1995)
 Shifting diagonal of input Hessian by    7.0589848340626270E-003
 Lowest  eigenvalues of input Hessian
    0.000000    0.000000    0.000000    0.000000    0.000000    0.000000
    0.010000    0.011955    0.013997    0.018563    0.029186    0.034423
    0.037679    0.051078    0.060829    0.061283    0.075513    0.092656
 Highest eigenvalues
    1.144564    1.153027    1.217047    1.308890    1.713275    2.303714


........................................................................
.............................. CYCLE    1 ..............................
........................................................................

 iter      E             dE          RMSdq      gap      omega  full diag
   1    -20.9975241 -0.209975E+02  0.673E-05    5.03       0.0  T
   2    -20.9975241 -0.818190E-11  0.414E-05    5.03     645.8  T
   3    -20.9975241 -0.866862E-12  0.214E-05    5.03    1248.4  T
     SCC iter.                  ...        0 min,  0.003 sec
     gradient                   ...        0 min,  0.005 sec
 * total energy  :   -20.7826600 Eh     change       -0.3039702E-10 Eh
   gradient norm :     0.0272224 Eh/α   predicted     0.0000000E+00 (-100.00%)
   displ. norm   :     0.0749212 α      lambda       -0.1057245E-02
   maximum displ.:     0.0440830 α      in ANC's #7, #11, #25, ...

........................................................................
.............................. CYCLE    2 ..............................
........................................................................

 iter      E             dE          RMSdq      gap      omega  full diag
   1    -21.0050920 -0.210051E+02  0.912E-02    5.13       0.0  T
   2    -21.0051054 -0.133264E-04  0.541E-02    5.11       1.0  T
   3    -21.0051055 -0.133061E-06  0.245E-02    5.12       1.1  T
   4    -21.0051073 -0.184284E-05  0.345E-03    5.11       7.7  T
   5    -21.0051074 -0.216256E-07  0.178E-03    5.11      15.0  T
   6    -21.0051074 -0.559802E-08  0.601E-04    5.11      44.4  T
   7    -21.0051074 -0.357481E-09  0.271E-04    5.11      98.6  T
     SCC iter.                  ...        0 min,  0.002 sec
     gradient                   ...        0 min,  0.005 sec
 * total energy  :   -20.7833313 Eh     change       -0.6712920E-03 Eh
   gradient norm :     0.0099284 Eh/α   predicted    -0.5315896E-03 ( -20.81%)
   displ. norm   :     0.0354144 α      lambda       -0.1688958E-03
   maximum displ.:     0.0193759 α      in ANC's #7, #6, #3, ...

........................................................................
.............................. CYCLE    3 ..............................
........................................................................

 iter      E             dE          RMSdq      gap      omega  full diag
   1    -21.0074179 -0.210074E+02  0.397E-02    5.14       0.0  T
   2    -21.0074242 -0.626897E-05  0.244E-02    5.13       1.1  T
   3    -21.0074245 -0.305917E-06  0.130E-02    5.13       2.1  T
   4    -21.0074246 -0.811749E-07  0.278E-03    5.13       9.6  T
   5    -21.0074246 -0.445675E-07  0.772E-04    5.13      34.6  T
   6    -21.0074246 -0.110912E-08  0.245E-04    5.13     109.0  T
     SCC iter.                  ...        0 min,  0.003 sec
     gradient                   ...        0 min,  0.007 sec
 * total energy  :   -20.7834266 Eh     change       -0.9526010E-04 Eh
   gradient norm :     0.0033361 Eh/α   predicted    -0.8455466E-04 ( -11.24%)
   displ. norm   :     0.0085121 α      lambda       -0.1314788E-04
   maximum displ.:     0.0070121 α      in ANC's #6, #33, #7, ...

........................................................................
.............................. CYCLE    4 ..............................
........................................................................

 iter      E             dE          RMSdq      gap      omega  full diag
   1    -21.0071974 -0.210072E+02  0.120E-02    5.13       0.0  T
   2    -21.0071980 -0.603199E-06  0.696E-03    5.13       3.8  T
   3    -21.0071980 -0.700062E-08  0.362E-03    5.13       7.4  T
   4    -21.0071980  0.125649E-09  0.678E-04    5.13      39.4  T
   5    -21.0071980 -0.385808E-08  0.195E-04    5.13     136.7  T
     SCC iter.                  ...        0 min,  0.007 sec
     gradient                   ...        0 min,  0.003 sec
 * total energy  :   -20.7834349 Eh     change       -0.8358067E-05 Eh
   gradient norm :     0.0010923 Eh/α   predicted    -0.6573404E-05 ( -21.35%)
   displ. norm   :     0.0071537 α      lambda       -0.2213847E-05
   maximum displ.:     0.0041186 α      in ANC's #6, #7, #3, ...

........................................................................
.............................. CYCLE    5 ..............................
........................................................................

 iter      E             dE          RMSdq      gap      omega  full diag
   1    -21.0067726 -0.210068E+02  0.829E-03    5.12       0.0  T
   2    -21.0067727 -0.154019E-06  0.469E-03    5.12       5.7  T
   3    -21.0067727 -0.156484E-08  0.188E-03    5.12      14.2  T
   4    -21.0067727 -0.313566E-09  0.182E-04    5.12     147.0  T
   5    -21.0067727 -0.335767E-10  0.946E-05    5.12     282.6  T
     SCC iter.                  ...        0 min,  0.002 sec
     gradient                   ...        0 min,  0.003 sec
 * total energy  :   -20.7834360 Eh     change       -0.1106030E-05 Eh
   gradient norm :     0.0005501 Eh/α   predicted    -0.1108200E-05 (   0.20%)
   displ. norm   :     0.0015912 α      lambda       -0.2775816E-06
   maximum displ.:     0.0010580 α      in ANC's #6, #7, #33, ...

........................................................................
.............................. CYCLE    6 ..............................
........................................................................

 iter      E             dE          RMSdq      gap      omega  full diag
   1    -21.0068725 -0.210069E+02  0.230E-03    5.13       0.0  T
   2    -21.0068725 -0.170224E-07  0.131E-03    5.13      20.4  T
   3    -21.0068725 -0.802132E-10  0.611E-04    5.13      43.7  T
   4    -21.0068725 -0.119904E-10  0.661E-05    5.13     404.1  T
     SCC iter.                  ...        0 min,  0.001 sec
     gradient                   ...        0 min,  0.003 sec
 * total energy  :   -20.7834362 Eh     change       -0.2134878E-06 Eh
   gradient norm :     0.0000647 Eh/α   predicted    -0.1381858E-06 ( -35.27%)
   displ. norm   :     0.0004717 α      lambda       -0.2369111E-08
   maximum displ.:     0.0002664 α      in ANC's #3, #4, #6, ...

........................................................................
.............................. CYCLE    7 ..............................
........................................................................

 iter      E             dE          RMSdq      gap      omega  full diag
   1    -21.0068884 -0.210069E+02  0.318E-04    5.13       0.0  T
   2    -21.0068884 -0.193044E-09  0.196E-04    5.13     136.7  T
   3    -21.0068884 -0.509814E-11  0.883E-05    5.13     302.6  T
     SCC iter.                  ...        0 min,  0.001 sec
     gradient                   ...        0 min,  0.003 sec
 * total energy  :   -20.7834362 Eh     change       -0.5138595E-08 Eh
   gradient norm :     0.0000251 Eh/α   predicted    -0.2842201E-08 ( -44.69%)
   displ. norm   :     0.0004102 α      lambda       -0.4682951E-08
   maximum displ.:     0.0002909 α      in ANC's #3, #4, #6, ...

   *** GEOMETRY OPTIMIZATION CONVERGED AFTER 7 ITERATIONS ***

------------------------------------------------------------------------
 total energy gain   :        -0.0007762 Eh       -0.4871 kcal/mol
 total RMSD          :         0.0288081 a0        0.0152 Å
 total power (kW/mol):        -0.2911435 (step)  -29.2347 (real)
------------------------------------------------------------------------

 ANCopt (total)                0 d,  0 h,  0 min,  0.070 sec
 optimizer setup                ...        0 min,  0.000 sec (  0.100%)
 model hessian                  ...        0 min,  0.003 sec (  4.155%)
 ANC generation                 ...        0 min,  0.000 sec (  0.343%)
 coordinate transformation      ...        0 min,  0.000 sec (  0.048%)
 single point calculation       ...        0 min,  0.063 sec ( 90.863%)
 optimization log               ...        0 min,  0.002 sec (  2.201%)
 hessian update                 ...        0 min,  0.000 sec (  0.055%)
 rational function              ...        0 min,  0.001 sec (  0.842%)

================
 final structure:
================
$coord
       -4.70735299624175       -0.13506566277958        0.02048374113023      C
       -2.32051539057989        1.46879533322279       -0.01844109047625      C
        0.03846330896504       -0.14157565141366       -0.00630263090047      C
        0.10520632260714       -2.40998083271727       -0.00652392818674      O
        2.11502603974881        1.31616002308513        0.00293553856264      O
        4.46803090351093        0.02215309175806        0.01054122224529      C
       -6.37488606030019        1.06358619795110        0.00093907270448      H
       -4.75705246324847       -1.37469147194531       -1.61597095778775      H
       -4.74878620038240       -1.30809265795701        1.70559060635785      H
       -2.24003612208872        2.71899466362947        1.62115760306335      H
       -2.25864268081022        2.66055718877909       -1.70219779659458      H
        5.92176920384734        1.47276849531529        0.02214220149880      H
        4.63899130666140       -1.16389190785111       -1.66917281606979      H
        4.62236137081793       -1.17428582546468        1.68447332111993      H
$end

 Bond Distances (Angstroems)
 ---------------------------
C1-C2=1.5219         C1-H7=1.0868         C1-H8=1.0867         C1-H9=1.0867         C2-C1=1.5219         C2-C3=1.5115         
C2-H10=1.0919        C2-H11=1.0921        C3-C2=1.5115         C3-O4=1.2009         C3-O5=1.3426         O4-C3=1.2009         
O5-C3=1.3426         O5-C6=1.4210         C6-O5=1.4210         C6-H12=1.0868        C6-H13=1.0919        C6-H14=1.0919        
H7-C1=1.0868         H8-C1=1.0867         H9-C1=1.0867         H10-C2=1.0919        H11-C2=1.0921        H12-C6=1.0868        
H13-C6=1.0919        H14-C6=1.0919        
 C  H  Rav=1.0893 sigma=0.0026  Rmin=1.0867  Rmax=1.0921     8
 C  C  Rav=1.5167 sigma=0.0052  Rmin=1.5115  Rmax=1.5219     2
 O  C  Rav=1.3215 sigma=0.0911  Rmin=1.2009  Rmax=1.4210     3

 selected bond angles (degree)
 --------------------
H7-C1-C2=110.38                H8-C1-C2=110.24                H8-C1-H7=108.97                H9-C1-C2=110.27                
H9-C1-H7=108.95                H9-C1-H8=107.97                C3-C2-C1=111.77                H10-C2-C1=111.07               
H10-C2-C3=107.82               H11-C2-C1=110.98               H11-C2-C3=107.72               H11-C2-H10=107.29              
O4-C3-C2=126.00                O5-C3-C2=110.61                O5-C3-O4=123.38                C6-O5-C3=116.12                
H12-C6-O5=106.25               H13-C6-O5=110.32               H13-C6-H12=110.61              H14-C6-O5=110.32               
H14-C6-H12=110.61              H14-C6-H13=108.72              

 selected dihedral angles (degree)
 ---------------------------------
C3-C2-C1-H7=180.30            C3-C2-C1-H8=300.73            C3-C2-C1-H9= 59.86            H10-C2-C1-H7= 59.83           
H10-C2-C1-H8=180.27           H10-C2-C1-H9=299.40           H11-C2-C1-H7=300.57           H11-C2-C1-H8= 61.00           
H11-C2-C1-H9=180.13           O4-C3-C2-C1=  1.12            O4-C3-C2-H10=123.46           O4-C3-C2-H11=238.96           
O5-C3-C2-C1=181.06            O5-C3-C2-H10=303.41           O5-C3-C2-H11= 58.91           C6-O5-C3-C2=180.10            
C6-O5-C3-O4=  0.05            H12-C6-O5-C3=180.14           H13-C6-O5-C3= 60.21           H14-C6-O5-C3=300.07           
           -------------------------------------------------
          |                Final Singlepoint                |
           -------------------------------------------------

          ...................................................
          :                      SETUP                      :
          :.................................................:
          :  # basis functions                  32          :
          :  # atomic orbitals                  32          :
          :  # shells                           20          :
          :  # electrons                        36          :
          :  max. iterations                   250          :
          :  Hamiltonian                  GFN2-xTB          :
          :  restarted?                      false          :
          :  GBSA solvation                  false          :
          :  PC potential                    false          :
          :  electronic temp.          300.0000000     K    :
          :  accuracy                    1.0000000          :
          :  -> integral cutoff          0.2500000E+02      :
          :  -> integral neglect         0.1000000E-07      :
          :  -> SCF convergence          0.1000000E-05 Eh   :
          :  -> wf. convergence          0.1000000E-03 e    :
          :  Broyden damping             0.4000000          :
          :  net charge                          0          :
          :  unpaired electrons                  0          :
          ...................................................

 iter      E             dE          RMSdq      gap      omega  full diag
   1    -21.0068884 -0.210069E+02  0.151E-05    5.13       0.0  T
   2    -21.0068884 -0.909495E-12  0.821E-06    5.13    3254.2  T
   3    -21.0068884 -0.156319E-12  0.429E-06    5.13    6226.6  T

   *** convergence criteria satisfied after 3 iterations ***

         #    Occupation            Energy/Eh            Energy/eV
      -------------------------------------------------------------
         1        2.0000           -0.7439917             -20.2450
       ...           ...                  ...                  ...
        12        2.0000           -0.4973845             -13.5345
        13        2.0000           -0.4795060             -13.0480
        14        2.0000           -0.4762459             -12.9593
        15        2.0000           -0.4608590             -12.5406
        16        2.0000           -0.4514000             -12.2832
        17        2.0000           -0.4445180             -12.0960
        18        2.0000           -0.4154428             -11.3048 (HOMO)
        19                         -0.2270692              -6.1789 (LUMO)
        20                          0.0109367               0.2976
        21                          0.1186649               3.2290
        22                          0.1236509               3.3647
        23                          0.1327636               3.6127
       ...                                ...                  ...
        32                          0.6606594              17.9775
      -------------------------------------------------------------
                  HL-Gap            0.1883736 Eh            5.1259 eV
             Fermi-level           -0.3212560 Eh           -8.7418 eV

 SCC (total)                   0 d,  0 h,  0 min,  0.005 sec
 SCC setup                      ...        0 min,  0.000 sec (  0.957%)
 Dispersion                     ...        0 min,  0.000 sec (  0.680%)
 classical contributions        ...        0 min,  0.000 sec (  0.282%)
 integral evaluation            ...        0 min,  0.001 sec ( 20.067%)
 iterations                     ...        0 min,  0.001 sec ( 22.363%)
 molecular gradient             ...        0 min,  0.003 sec ( 54.412%)
 printout                       ...        0 min,  0.000 sec (  1.073%)

         :::::::::::::::::::::::::::::::::::::::::::::::::::::
         ::                     SUMMARY                     ::
         :::::::::::::::::::::::::::::::::::::::::::::::::::::
         :: total energy             -20.783436246275 Eh    ::
         :: gradient norm              0.000024764932 Eh/a0 ::
         :: HOMO-LUMO gap              5.125907421809 eV    ::
         ::.................................................::
         :: SCC energy               -21.006889712046 Eh    ::
         :: -> isotropic ES            0.044620355453 Eh    ::
         :: -> anisotropic ES          0.002216884113 Eh    ::
         :: -> anisotropic XC          0.004060743997 Eh    ::
         :: -> dispersion             -0.006874641902 Eh    ::
         :: repulsion energy           0.223453465771 Eh    ::
         :: add. restraining           0.000000000000 Eh    ::
         :: total charge               0.000000000000 e     ::
         :::::::::::::::::::::::::::::::::::::::::::::::::::::

           ------------------------------------------------- 
          |                Numerical Hessian                |
           ------------------------------------------------- 
step length          :   0.00500
SCC accuracy         :   0.30000
Hessian scale factor :   1.00000
frozen atoms in %    :   0.00000    0
RMS gradient         :   0.00002
estimated CPU  time      0.01 min
estimated wall time      0.01 min

writing file <hessian>, containing the non-mass-weighted Hessian matrix in atomic units (Eₕ/Bohr²).

 projected vibrational frequencies (cm⁻¹)
eigval :       -0.00    -0.00    -0.00     0.00     0.00     0.00
eigval :        9.18    55.19   148.68   188.56   200.06   297.86
eigval :      432.00   566.65   645.63   815.01   876.10  1008.04
eigval :     1046.49  1060.92  1111.50  1123.67  1143.85  1159.74
eigval :     1217.26  1316.81  1387.37  1410.56  1442.85  1442.88
eigval :     1464.94  1486.45  1497.80  1785.60  2970.85  2975.96
eigval :     2985.91  2988.06  3044.61  3045.71  3050.90  3056.89
           -------------------------------------------------
          |                Property Printout                |
           -------------------------------------------------

    * Orbital Energies and Occupations

         #    Occupation            Energy/Eh            Energy/eV
      -------------------------------------------------------------
         1        2.0000           -0.7439917             -20.2450
       ...           ...                  ...                  ...
         6        2.0000           -0.5886403             -16.0177
         7        2.0000           -0.5882081             -16.0060
         8        2.0000           -0.5643589             -15.3570
         9        2.0000           -0.5550325             -15.1032
        10        2.0000           -0.5245795             -14.2745
        11        2.0000           -0.5104552             -13.8902
        12        2.0000           -0.4973845             -13.5345
        13        2.0000           -0.4795059             -13.0480
        14        2.0000           -0.4762459             -12.9593
        15        2.0000           -0.4608590             -12.5406
        16        2.0000           -0.4514000             -12.2832
        17        2.0000           -0.4445180             -12.0960
        18        2.0000           -0.4154428             -11.3048 (HOMO)
        19                         -0.2270692              -6.1789 (LUMO)
        20                          0.0109368               0.2976
        21                          0.1186649               3.2290
        22                          0.1236509               3.3647
        23                          0.1327636               3.6127
        24                          0.1538267               4.1858
        25                          0.1547255               4.2103
        26                          0.1820895               4.9549
        27                          0.1911488               5.2014
        28                          0.1923836               5.2350
        29                          0.2564853               6.9793
       ...                                ...                  ...
        32                          0.6606594              17.9775
      -------------------------------------------------------------
                  HL-Gap            0.1883737 Eh            5.1259 eV
             Fermi-level           -0.3212560 Eh           -8.7418 eV

     #   Z          covCN         q      C6AA      α(0)
     1   6          3.753    -0.105    22.558     6.773
     2   6          3.802    -0.086    22.149     6.700
     3   6          2.722     0.356    20.960     7.495
     4   8          0.856    -0.402    21.715     6.248
     5   8          1.704    -0.271    18.488     5.805
     6   6          3.655     0.034    20.301     6.468
     7   1          0.925     0.044     2.398     2.422
     8   1          0.925     0.054     2.276     2.359
     9   1          0.925     0.053     2.285     2.364
    10   1          0.924     0.066     2.131     2.283
    11   1          0.924     0.066     2.128     2.281
    12   1          0.925     0.068     2.109     2.271
    13   1          0.924     0.062     2.178     2.308
    14   1          0.924     0.062     2.176     2.307

 Mol. C6AA /au·bohr⁶  :       1542.730687
 Mol. C8AA /au·bohr⁸  :      32696.921770
 Mol. α(0) /au        :         58.083645


Wiberg/Mayer (AO) data.
largest (>0.10) Wiberg bond orders for each atom

 ---------------------------------------------------------------------------
     #   Z sym  total        # sym  WBO       # sym  WBO       # sym  WBO
 ---------------------------------------------------------------------------
     1   6      3.992 --     2      1.020     7      0.987     9      0.986
                             8      0.986
     2   6      3.995 --     1      1.020     3      0.972    10      0.956
                            11      0.955
     3   6      3.914 --     4      1.767     5      1.118     2      0.972
     4   8      2.047 --     3      1.767     5      0.170
     5   8      2.291 --     3      1.118     6      0.958     4      0.170
     6   6      3.927 --    12      0.982    13      0.978    14      0.978
                             5      0.958
     7   1      0.997 --     1      0.987
     8   1      0.997 --     1      0.986
     9   1      0.997 --     1      0.986
    10   1      0.996 --     2      0.956
    11   1      0.996 --     2      0.955
    12   1      0.995 --     6      0.982
    13   1      0.996 --     6      0.978
    14   1      0.996 --     6      0.978
 ---------------------------------------------------------------------------

Topologies differ in total number of bonds
Writing topology from bond orders to xtbtopo.mol

molecular dipole:
                 x           y           z       tot (Debye)
 q only:        0.135       0.664      -0.000
   full:        0.192       0.784      -0.001       2.051
molecular quadrupole (traceless):
                xx          xy          yy          xz          yz          zz
 q only:        6.793      -1.379      -5.253       0.027      -0.019      -1.539
  q+dip:        5.093      -1.774      -5.862       0.033      -0.013       0.770
   full:        5.670      -1.804      -6.425       0.027      -0.019       0.754

           -------------------------------------------------
          |                Geometry Summary                 |
           -------------------------------------------------

      molecular mass/u    :       88.1052794
   center of mass at/Å    :        0.0000078       0.0000131       0.0003926
  moments of inertia/u·Å² :        0.5268153E+02   0.2336699E+03   0.2769347E+03
rotational constants/cm⁻¹ :        0.3199913E+00   0.7214292E-01   0.6087224E-01

 * 12 selected distances

     #   Z          #   Z                                           value/Å
     1   6          2   6                                         1.5218681 (max)
     3   6          4   8                                         1.2009079
     3   6          5   8                                         1.3426085
     5   8          6   6                                         1.4210300
     1   6          7   1                                         1.0867882
     1   6          8   1                                         1.0866995 (min)
     1   6          9   1                                         1.0867212
     2   6         10   1                                         1.0919223
     2   6         11   1                                         1.0921020
     6   6         12   1                                         1.0867831
     6   6         13   1                                         1.0918723
     6   6         14   1                                         1.0918676

 * 3 distinct bonds (by element types)

   Z      Z             #   av. dist./Å        max./Å        min./Å
   1 H    6 C           8     1.0893445     1.0921020     1.0866995
   6 C    6 C           1     1.5218681     1.5218681     1.5218681
   6 C    8 O           3     1.3215155     1.4210300     1.2009079

           -------------------------------------------------
          |               Frequency Printout                |
           -------------------------------------------------
 projected vibrational frequencies (cm⁻¹)
eigval :       -0.00    -0.00    -0.00     0.00     0.00     0.00
eigval :        9.18    55.19   148.68   188.56   200.06   297.86
eigval :      432.00   566.65   645.63   815.01   876.10  1008.04
eigval :     1046.49  1060.92  1111.50  1123.67  1143.85  1159.74
eigval :     1217.26  1316.81  1387.37  1410.56  1442.85  1442.88
eigval :     1464.94  1486.45  1497.80  1785.60  2970.85  2975.96
eigval :     2985.91  2988.06  3044.61  3045.71  3050.90  3056.89
 reduced masses (amu)
    1:      3.59    2:      4.48    3:      5.30    4:      5.60    5:      4.59    6:      4.74
    7:      2.10    8:      1.10    9:      1.52   10:      3.00   11:      1.73   12:      4.21
   13:      4.14   14:      2.57   15:      4.17   16:      1.37   17:      2.92   18:      4.48
   19:      1.56   20:      1.47   21:      2.92   22:      1.29   23:      3.19   24:      2.20
   25:      1.23   26:      1.76   27:      1.15   28:      1.21   29:      1.09   30:      1.07
Molecule has the following symmetry elements: (sigma) 
It seems to be the Cs point group
   31:      1.06   32:      1.05   33:      1.06   34:     12.10   35:      1.10   36:      1.09
   37:      1.05   38:      1.04   39:      1.08   40:      1.07   41:      1.09   42:      1.05
 IR intensities (km·mol⁻¹)
    1:      0.38    2:      1.70    3:      0.38    4:      0.49    5:      0.43    6:      0.49
    7:      0.06    8:      0.11    9:      2.89   10:      2.04   11:      5.63   12:     16.69
   13:      0.12   14:     11.16   15:      3.39   16:     35.16   17:     25.61   18:     13.88
   19:      4.56   20:      5.34   21:      5.75   22:      1.49   23:    233.97   24:    126.83
   25:      0.92   26:     44.00   27:      7.52   28:      5.24   29:      9.95   30:      8.97
   31:      4.27   32:      3.60   33:      4.64   34:    410.36   35:     11.26   36:     18.12
   37:      9.54   38:     21.31   39:     12.19   40:     30.52   41:     25.20   42:     16.60
 Raman intensities (Ä⁴*amu⁻¹)
    1:      0.00    2:      0.00    3:      0.00    4:      0.00    5:      0.00    6:      0.00
    7:      0.00    8:      0.00    9:      0.00   10:      0.00   11:      0.00   12:      0.00
   13:      0.00   14:      0.00   15:      0.00   16:      0.00   17:      0.00   18:      0.00
   19:      0.00   20:      0.00   21:      0.00   22:      0.00   23:      0.00   24:      0.00
   25:      0.00   26:      0.00   27:      0.00   28:      0.00   29:      0.00   30:      0.00
   31:      0.00   32:      0.00   33:      0.00   34:      0.00   35:      0.00   36:      0.00
   37:      0.00   38:      0.00   39:      0.00   40:      0.00   41:      0.00   42:      0.00
 output can be read by thermo (or use thermo option).
 writing <g98.out> molden fake output.
 recommended (thermochemical) frequency scaling factor: 1.0
           -------------------------------------------------
          |             Thermodynamic Functions             |
           -------------------------------------------------

cs  symmetry found (for desy threshold:  0.10E+00) used in thermo

          ...................................................
          :                      SETUP                      :
          :.................................................:
          :  # frequencies                          36      :
          :  # imaginary freq.                       0      :
          :  linear?                             false      :
          :  only rotor calc.                    false      :
          :  symmetry                               cs      :
          :  rotational number                       1      :
          :  scaling factor                  1.0000000      :
          :  rotor cutoff                    0.0000000 cm⁻¹ :
          :  imag. cutoff                 -100.0000000 cm⁻¹ :
          :.................................................:

    mode    ω/cm⁻¹     T·S(HO)/kcal·mol⁻¹    T·S(FR)/kcal·mol⁻¹   T·S(vib)
   ------------------------------------------------------------------------
       1      9.18    -2.43892 (100.00%)    -1.55567 (  0.00%)    -2.43892
       2     55.19    -1.37805 (100.00%)    -1.02679 (  0.00%)    -1.37805
       3    148.68    -0.80173 (100.00%)    -0.73353 (  0.00%)    -0.80173
       4    188.56    -0.66842 (100.00%)    -0.66317 (  0.00%)    -0.66842
       5    200.06    -0.63581 (100.00%)    -0.64565 (  0.00%)    -0.63581
       6    297.86    -0.42602 (100.00%)    -0.52779 (  0.00%)    -0.42602
   ------------------------------------------------------------------------

   temp. (K)  partition function   enthalpy   heat capacity  entropy
                                   cal/mol     cal/K/mol   cal/K/mol   J/K/mol
 298.15  VIB   948.                 3098.356     18.857     24.014
         ROT  0.141E+06              888.727      2.981     26.543
         INT  0.134E+09             3987.084     21.837     50.556
         TR   0.253E+26             1481.212      4.968     39.341
         TOT                        5468.2960    26.8055    89.8969   376.1288

       T/K    H(0)-H(T)+PV         H(T)/Eh          T*S/Eh         G(T)/Eh
   ------------------------------------------------------------------------
    298.15    0.871428E-02    0.123672E+00    0.427129E-01    0.809590E-01
   ------------------------------------------------------------------------

         :::::::::::::::::::::::::::::::::::::::::::::::::::::
         ::                  THERMODYNAMIC                  ::
         :::::::::::::::::::::::::::::::::::::::::::::::::::::
         :: total free energy         -20.702477264779 Eh   ::
         ::.................................................::
         :: total energy              -20.783436246275 Eh   ::
         :: zero point energy           0.114957632330 Eh   ::
         :: G(RRHO) w/o ZPVE           -0.033998650834 Eh   ::
         :: G(RRHO) contrib.            0.080958981496 Eh   ::
         :::::::::::::::::::::::::::::::::::::::::::::::::::::

optimized geometry written to: xtbopt.coord


           -------------------------------------------------
          | TOTAL ENERGY              -20.783436246275 Eh   |
          | TOTAL ENTHALPY            -20.659764329639 Eh   |
          | TOTAL FREE ENERGY         -20.702477264779 Eh   |
          | GRADIENT NORM               0.000024764779 Eh/α |
          | HOMO-LUMO GAP               5.125908222210 eV   |
           -------------------------------------------------

------------------------------------------------------------------------
 * finished run on 2025/04/08 at 22:38:17.990     
------------------------------------------------------------------------
 total:
 * wall-time:     0 d,  0 h,  0 min,  0.669 sec
 *  cpu-time:     0 d,  0 h,  0 min,  0.507 sec
 * ratio c/w:     0.759 speedup
 SCF:
 * wall-time:     0 d,  0 h,  0 min,  0.010 sec
 *  cpu-time:     0 d,  0 h,  0 min,  0.009 sec
 * ratio c/w:     0.871 speedup
 ANC optimizer:
 * wall-time:     0 d,  0 h,  0 min,  0.076 sec
 *  cpu-time:     0 d,  0 h,  0 min,  0.046 sec
 * ratio c/w:     0.607 speedup
 analytical hessian:
 * wall-time:     0 d,  0 h,  0 min,  0.575 sec
 *  cpu-time:     0 d,  0 h,  0 min,  0.445 sec
 * ratio c/w:     0.774 speedup

