      -----------------------------------------------------------      
     |                   =====================                   |     
     |                           x T B                           |     
     |                   =====================                   |     
     |                         S. Grimme                         |     
     |          Mulliken Center for Theoretical Chemistry        |     
     |                    University of Bonn                     |     
      -----------------------------------------------------------      

   * xtb version 6.7.1 (41059b4) compiled by 'michael@archlinux' on 2025-03-24

   xtb is free software: you can redistribute it and/or modify it under
   the terms of the GNU Lesser General Public License as published by
   the Free Software Foundation, either version 3 of the License, or
   (at your option) any later version.
   
   xtb is distributed in the hope that it will be useful,
   but WITHOUT ANY WARRANTY; without even the implied warranty of
   MERCHANTABILITY or FITNESS FOR A PARTICULAR PURPOSE.  See the
   GNU Lesser General Public License for more details.
   
   Cite this work as:
   * C. Bannwarth, E. Caldeweyher, S. Ehlert, A. Hansen, P. Pracht,
     J. Seibert, S. Spicher, S. Grimme, WIREs Comput. Mol. Sci., 2020, 11,
     e01493. DOI: 10.1002/wcms.1493
   
   for GFN2-xTB:
   * C. Bannwarth, S. Ehlert and S. Grimme., J. Chem. Theory Comput., 2019,
     15, 1652-1671. DOI: 10.1021/acs.jctc.8b01176
   for GFN1-xTB:
   * S. Grimme, C. Bannwarth, P. Shushkov, J. Chem. Theory Comput., 2017,
     13, 1989-2009. DOI: 10.1021/acs.jctc.7b00118
   for GFN0-xTB:
   * P. Pracht, E. Caldeweyher, S. Ehlert, S. Grimme, ChemRxiv, 2019, preprint.
     DOI: 10.26434/chemrxiv.8326202.v1
   for GFN-FF:
   * S. Spicher and S. Grimme, Angew. Chem. Int. Ed., 2020, 59, 15665-15673.
     DOI: 10.1002/anie.202004239
   
   for ALPB and GBSA implicit solvation:
   * S. Ehlert, M. Stahn, S. Spicher, S. Grimme, J. Chem. Theory Comput.,
     2021, 17, 4250-4261. DOI: 10.1021/acs.jctc.1c00471
   
   for ddCOSMO and CPCM-X implicit solvation:
   * M. Stahn, S. Ehlert, S. Grimme, J. Phys. Chem. A,
     2023, XX, XXXX-XXXX. DOI: 10.1021/acs.jpca.3c04382
   
   for DFT-D4:
   * E. Caldeweyher, C. Bannwarth and S. Grimme, J. Chem. Phys., 2017,
     147, 034112. DOI: 10.1063/1.4993215
   * E. Caldeweyher, S. Ehlert, A. Hansen, H. Neugebauer, S. Spicher,
     C. Bannwarth and S. Grimme, J. Chem. Phys., 2019, 150, 154122.
     DOI: 10.1063/1.5090222
   * E. Caldeweyher, J.-M. Mewes, S. Ehlert and S. Grimme, Phys. Chem. Chem. Phys.
     2020, 22, 8499-8512. DOI: 10.1039/D0CP00502A
   
   for sTDA-xTB:
   * S. Grimme and C. Bannwarth, J. Chem. Phys., 2016, 145, 054103.
     DOI: 10.1063/1.4959605
   
   in the mass-spec context:
   * V. Asgeirsson, C. Bauer and S. Grimme, Chem. Sci., 2017, 8, 4879.
     DOI: 10.1039/c7sc00601b
   * J. Koopman and S. Grimme, ACS Omega 2019, 4, 12, 15120-15133.
     DOI: 10.1021/acsomega.9b02011
   
   for metadynamics refer to:
   * S. Grimme, J. Chem. Theory Comput., 2019, 155, 2847-2862
     DOI: 10.1021/acs.jctc.9b00143
   
   for SPH calculations refer to:
   * S. Spicher and S. Grimme, J. Chem. Theory Comput., 2021, 17, 1701-1714
     DOI: 10.1021/acs.jctc.0c01306
   
   for ONIOM refer to:
   * C. Plett, A. Katbashev, S. Ehlert, S. Grimme, M. Bursch,
     Phys. Chem. Chem. Phys., 2023, 25, 17860-17868. DOI: 10.1039/D3CP02178E
   
   for DIPRO refer to:
   * J. Kohn, N. Gildemeister, S. Grimme, D. Fazzi, A. Hansen,
     J. Chem. Phys., 2023, just accepted.
   
   for PTB refer to:
   * S. Grimme, M. Mueller, A. Hansen, J. Chem. Phys., 2023, 158, 124111.
     DOI: 10.1063/5.0137838
   
   with help from (in alphabetical order)
   P. Atkinson, C. Bannwarth, F. Bohle, G. Brandenburg, E. Caldeweyher
   M. Checinski, S. Dohm, S. Ehlert, S. Ehrlich, I. Gerasimov, C. Hölzer
   A. Katbashev, J. Kohn, J. Koopman, C. Lavigne, S. Lehtola, F. März, M. Müller,
   F. Musil, H. Neugebauer, J. Pisarek, C. Plett, P. Pracht, F. Pultar,
   J. Seibert, P. Shushkov, S. Spicher, M. Stahn, M. Steiner, T. Strunk,
   J. Stückrath, T. Rose, and J. Unsleber
   
 * started run on 2025/04/09 at 01:31:51.538     
   ID    Z sym.   atoms
    1    6 C      1-3, 5-10
    2    7 N      4
    3    1 H      11-19

           -------------------------------------------------
          |                Calculation Setup                |
           -------------------------------------------------

          program call               : /usr/bin/xtb xtb_rrho.coord --gfn2 --ohess vtight --chrg 0 --enso --norestart -I rrho-xcontrol-inp --parallel 1
          coordinate file            : xtb_rrho.coord
          omp threads                :                     1


           -------------------------------------------------
          |                 G F N 2 - x T B                 |
           -------------------------------------------------

        Reference                      10.1021/acs.jctc.8b01176
      * Hamiltonian:
        H0-scaling (s, p, d)           1.850000    2.230000    2.230000
        zeta-weighting                 0.500000
      * Dispersion:
        s8                             2.700000
        a1                             0.520000
        a2                             5.000000
        s9                             5.000000
      * Repulsion:
        kExp                           1.500000    1.000000
        rExp                           1.000000
      * Coulomb:
        alpha                          2.000000
        third order                    shell-resolved
        anisotropic                    true
        a3                             3.000000
        a5                             4.000000
        cn-shift                       1.200000
        cn-exp                         4.000000
        max-rad                        5.000000


          ...................................................
          :                      SETUP                      :
          :.................................................:
          :  # basis functions                  49          :
          :  # atomic orbitals                  49          :
          :  # shells                           29          :
          :  # electrons                        50          :
          :  max. iterations                   250          :
          :  Hamiltonian                  GFN2-xTB          :
          :  restarted?                      false          :
          :  GBSA solvation                  false          :
          :  PC potential                    false          :
          :  electronic temp.          300.0000000     K    :
          :  accuracy                    1.0000000          :
          :  -> integral cutoff          0.2500000E+02      :
          :  -> integral neglect         0.1000000E-07      :
          :  -> SCF convergence          0.1000000E-05 Eh   :
          :  -> wf. convergence          0.1000000E-03 e    :
          :  Broyden damping             0.4000000          :
          :  net charge                          0          :
          :  unpaired electrons                  0          :
          ...................................................

 iter      E             dE          RMSdq      gap      omega  full diag
   1    -27.1947891 -0.271948E+02  0.400E+00    3.22       0.0  T
   2    -27.2417042 -0.469151E-01  0.261E+00    3.54       1.0  T
   3    -27.2420372 -0.332983E-03  0.137E+00    3.57       1.0  T
   4    -27.2465668 -0.452959E-02  0.577E-01    3.49       1.0  T
   5    -27.2513989 -0.483211E-02  0.120E-01    3.52       1.0  T
   6    -27.2514952 -0.962940E-04  0.590E-02    3.53       1.0  T
   7    -27.2515255 -0.303125E-04  0.225E-02    3.52       1.0  T
   8    -27.2515253  0.147345E-06  0.913E-03    3.52       2.5  T
   9    -27.2515262 -0.856943E-06  0.239E-03    3.52       9.6  T
  10    -27.2515262 -0.356707E-07  0.103E-03    3.52      22.2  T
  11    -27.2515262 -0.703853E-08  0.451E-04    3.52      50.9  T
  12    -27.2515262 -0.163858E-08  0.143E-04    3.52     160.5  T

   *** convergence criteria satisfied after 12 iterations ***

         #    Occupation            Energy/Eh            Energy/eV
      -------------------------------------------------------------
         1        2.0000           -0.6628756             -18.0378
       ...           ...                  ...                  ...
        19        2.0000           -0.4452659             -12.1163
        20        2.0000           -0.4434380             -12.0666
        21        2.0000           -0.4199665             -11.4279
        22        2.0000           -0.4094918             -11.1428
        23        2.0000           -0.4046050             -11.0099
        24        2.0000           -0.3739568             -10.1759
        25        2.0000           -0.3547569              -9.6534 (HOMO)
        26                         -0.2253074              -6.1309 (LUMO)
        27                         -0.1930397              -5.2529
        28                         -0.1522514              -4.1430
        29                         -0.0679153              -1.8481
        30                          0.0200316               0.5451
       ...                                ...                  ...
        49                          0.7060737              19.2132
      -------------------------------------------------------------
                  HL-Gap            0.1294494 Eh            3.5225 eV
             Fermi-level           -0.2900322 Eh           -7.8922 eV

 SCC (total)                   0 d,  0 h,  0 min,  0.009 sec
 SCC setup                      ...        0 min,  0.000 sec (  0.691%)
 Dispersion                     ...        0 min,  0.000 sec (  0.949%)
 classical contributions        ...        0 min,  0.000 sec (  0.235%)
 integral evaluation            ...        0 min,  0.001 sec ( 14.231%)
 iterations                     ...        0 min,  0.004 sec ( 47.680%)
 molecular gradient             ...        0 min,  0.003 sec ( 35.466%)
 printout                       ...        0 min,  0.000 sec (  0.676%)

         :::::::::::::::::::::::::::::::::::::::::::::::::::::
         ::                     SUMMARY                     ::
         :::::::::::::::::::::::::::::::::::::::::::::::::::::
         :: total energy             -26.786150619408 Eh    ::
         :: gradient norm              0.023987410647 Eh/a0 ::
         :: HOMO-LUMO gap              3.522498776647 eV    ::
         ::.................................................::
         :: SCC energy               -27.251479596008 Eh    ::
         :: -> isotropic ES            0.005353948297 Eh    ::
         :: -> anisotropic ES          0.006430427421 Eh    ::
         :: -> anisotropic XC          0.015418473021 Eh    ::
         :: -> dispersion             -0.016666794379 Eh    ::
         :: repulsion energy           0.465328976600 Eh    ::
         :: add. restraining           0.000000000000 Eh    ::
         :: total charge               0.000000000000 e     ::
         :::::::::::::::::::::::::::::::::::::::::::::::::::::

      ----------------------------------------------------------- 
     |                   =====================                   |
     |                        A N C O P T                        |
     |                   =====================                   |
     |               Approximate Normal Coordinate               |
     |                Rational Function Optimizer                |
      ----------------------------------------------------------- 

          ...................................................
          :                      SETUP                      :
          :.................................................:
          :   optimization level         verytight          :
          :   max. optcycles                   380          :
          :   ANC micro-cycles                  20          :
          :   degrees of freedom                51          :
          :.................................................:
          :   RF solver                   davidson          :
          :   write xtbopt.log                true          :
          :   linear?                        false          :
          :   energy convergence         0.1000000E-06 Eh   :
          :   grad. convergence          0.2000000E-03 Eh/α :
          :   maximum RF displ.          1.0000000          :
          :   Hlow (freq-cutoff)         0.1000000E-01      :
          :   Hmax (freq-cutoff)         5.0000000          :
          :   S6 in model hess.         20.0000000          :
          ...................................................

generating ANC from exact Hessian ...
Using Lindh-Hessian (1995)
 Shifting diagonal of input Hessian by    6.6077703373185505E-003
 Lowest  eigenvalues of input Hessian
    0.000000    0.000000    0.000000    0.000000    0.000000    0.000000
    0.010000    0.013189    0.016928    0.017010    0.021371    0.024451
    0.028212    0.040319    0.048636    0.053780    0.067565    0.069565
 Highest eigenvalues
    1.719496    1.815966    1.940927    1.959670    2.029719    2.142361


........................................................................
.............................. CYCLE    1 ..............................
........................................................................

 iter      E             dE          RMSdq      gap      omega  full diag
   1    -27.2515262 -0.272515E+02  0.687E-05    3.52       0.0  T
   2    -27.2515262 -0.203677E-10  0.431E-05    3.52     532.8  T
   3    -27.2515262 -0.834888E-11  0.273E-05    3.52     839.9  T
     SCC iter.                  ...        0 min,  0.001 sec
     gradient                   ...        0 min,  0.003 sec
 * total energy  :   -26.7861506 Eh     change       -0.5878320E-10 Eh
   gradient norm :     0.0239871 Eh/α   predicted     0.0000000E+00 (-100.00%)
   displ. norm   :     0.1060799 α      lambda       -0.1553227E-02
   maximum displ.:     0.0633136 α      in ANC's #25, #10, #9, ...

........................................................................
.............................. CYCLE    2 ..............................
........................................................................

 iter      E             dE          RMSdq      gap      omega  full diag
   1    -27.2700405 -0.272700E+02  0.116E-01    3.57       0.0  T
   2    -27.2700544 -0.138654E-04  0.683E-02    3.58       1.0  T
   3    -27.2700427  0.116531E-04  0.387E-02    3.58       1.0  T
   4    -27.2700593 -0.165730E-04  0.821E-03    3.58       2.8  T
   5    -27.2700601 -0.738357E-06  0.208E-03    3.58      11.0  T
   6    -27.2700601 -0.208885E-07  0.113E-03    3.58      20.4  T
   7    -27.2700601 -0.329572E-08  0.295E-04    3.58      77.6  T
   8    -27.2700601 -0.348340E-09  0.116E-04    3.58     197.4  T
     SCC iter.                  ...        0 min,  0.002 sec
     gradient                   ...        0 min,  0.003 sec
 * total energy  :   -26.7870955 Eh     change       -0.9448745E-03 Eh
   gradient norm :     0.0079504 Eh/α   predicted    -0.7853545E-03 ( -16.88%)
   displ. norm   :     0.0288476 α      lambda       -0.1104581E-03
   maximum displ.:     0.0168192 α      in ANC's #10, #25, #9, ...

........................................................................
.............................. CYCLE    3 ..............................
........................................................................

 iter      E             dE          RMSdq      gap      omega  full diag
   1    -27.2746275 -0.272746E+02  0.361E-02    3.59       0.0  T
   2    -27.2746311 -0.352280E-05  0.223E-02    3.59       1.0  T
   3    -27.2746313 -0.242899E-06  0.134E-02    3.59       1.7  T
   4    -27.2746324 -0.112421E-05  0.407E-03    3.59       5.6  T
   5    -27.2746326 -0.145060E-06  0.829E-04    3.59      27.7  T
   6    -27.2746326 -0.552318E-08  0.372E-04    3.59      61.7  T
     SCC iter.                  ...        0 min,  0.002 sec
     gradient                   ...        0 min,  0.003 sec
 * total energy  :   -26.7871540 Eh     change       -0.5852644E-04 Eh
   gradient norm :     0.0019959 Eh/α   predicted    -0.5533537E-04 (  -5.45%)
   displ. norm   :     0.0053272 α      lambda       -0.3638369E-05
   maximum displ.:     0.0029023 α      in ANC's #4, #16, #25, ...

........................................................................
.............................. CYCLE    4 ..............................
........................................................................

 iter      E             dE          RMSdq      gap      omega  full diag
   1    -27.2744548 -0.272745E+02  0.815E-03    3.59       0.0  T
   2    -27.2744551 -0.279345E-06  0.512E-03    3.59       4.5  T
   3    -27.2744551 -0.605963E-07  0.287E-03    3.59       8.0  T
   4    -27.2744552 -0.328470E-07  0.122E-03    3.59      18.8  T
   5    -27.2744552 -0.119756E-07  0.213E-04    3.59     107.8  T
   6    -27.2744552 -0.444398E-09  0.785E-05    3.59     292.2  T
     SCC iter.                  ...        0 min,  0.002 sec
     gradient                   ...        0 min,  0.003 sec
 * total energy  :   -26.7871572 Eh     change       -0.3135592E-05 Eh
   gradient norm :     0.0004246 Eh/α   predicted    -0.1964132E-05 ( -37.36%)
   displ. norm   :     0.0025969 α      lambda       -0.3082689E-06
   maximum displ.:     0.0014614 α      in ANC's #4, #25, #10, ...

........................................................................
.............................. CYCLE    5 ..............................
........................................................................

 iter      E             dE          RMSdq      gap      omega  full diag
   1    -27.2742148 -0.272742E+02  0.291E-03    3.59       0.0  T
   2    -27.2742148 -0.613876E-08  0.176E-03    3.59      13.1  T
   3    -27.2742148  0.801739E-08  0.950E-04    3.59      24.2  T
   4    -27.2742148 -0.116981E-07  0.139E-04    3.59     165.6  T
     SCC iter.                  ...        0 min,  0.001 sec
     gradient                   ...        0 min,  0.003 sec
 * total energy  :   -26.7871574 Eh     change       -0.2429429E-06 Eh
   gradient norm :     0.0001220 Eh/α   predicted    -0.1650443E-06 ( -32.06%)
   displ. norm   :     0.0010567 α      lambda       -0.9958512E-08
   maximum displ.:     0.0008037 α      in ANC's #4, #9, #16, ...

........................................................................
.............................. CYCLE    6 ..............................
........................................................................

 iter      E             dE          RMSdq      gap      omega  full diag
   1    -27.2742893 -0.272743E+02  0.764E-04    3.59       0.0  T
   2    -27.2742893 -0.276120E-09  0.422E-04    3.59      54.4  T
   3    -27.2742893  0.143046E-09  0.145E-04    3.59     157.7  T
     SCC iter.                  ...        0 min,  0.001 sec
     gradient                   ...        0 min,  0.003 sec
 * total energy  :   -26.7871574 Eh     change       -0.2484697E-07 Eh
   gradient norm :     0.0000379 Eh/α   predicted    -0.1569335E-07 ( -36.84%)
   displ. norm   :     0.0007953 α      lambda        0.2525787E-07
   maximum displ.:     0.0004799 α      in ANC's #4, #9, #10, ...

   *** GEOMETRY OPTIMIZATION CONVERGED AFTER 6 ITERATIONS ***

------------------------------------------------------------------------
 total energy gain   :        -0.0010068 Eh       -0.6318 kcal/mol
 total RMSD          :         0.0309285 a0        0.0164 Å
 total power (kW/mol):        -0.4405608 (step)  -67.1704 (real)
------------------------------------------------------------------------

 ANCopt (total)                0 d,  0 h,  0 min,  0.039 sec
 optimizer setup                ...        0 min,  0.000 sec (  0.098%)
 model hessian                  ...        0 min,  0.001 sec (  3.641%)
 ANC generation                 ...        0 min,  0.000 sec (  0.606%)
 coordinate transformation      ...        0 min,  0.000 sec (  0.041%)
 single point calculation       ...        0 min,  0.037 sec ( 94.277%)
 optimization log               ...        0 min,  0.000 sec (  0.577%)
 hessian update                 ...        0 min,  0.000 sec (  0.054%)
 rational function              ...        0 min,  0.000 sec (  0.376%)

================
 final structure:
================
$coord
       -4.89845853519920        2.66043438726846       -0.00006723168151      C
       -3.03919552479501        0.54580355789477       -0.00008072616482      C
       -3.53674405619976       -1.98028880493438       -0.00015095175883      C
       -1.32559101668007       -3.33361548288399       -0.00010045323571      N
        0.65836318238150       -1.68855307756337       -0.00007879005406      C
       -0.34822257566556        0.79122829490265       -0.00003140979995      C
        1.29446809773803        2.85184652853040        0.00005144549328      C
        3.85660448381686        2.40288406712451        0.00008025527764      C
        4.82212023224957       -0.05577986847521        0.00003554770556      C
        3.24606553837931       -2.12898497847459       -0.00003690133663      C
       -4.64197781752112        3.84557800203656        1.66456920293731      H
       -4.64201557655288        3.84556320865712       -1.66472086448998      H
       -6.81826883788311        1.92836194272056       -0.00004355138644      H
       -5.32809716400338       -2.93317871469586       -0.00018388225656      H
       -1.19366266423067       -5.22858357743829       -0.00037912816797      H
        0.56289735021500        4.75706559924845        0.00009294529221      H
        5.16063281193597        3.97388701459646        0.00014050171077      H
        6.84501343987290       -0.32936801994681        0.00006236950343      H
        3.99150300151108       -4.03007761642681       -0.00006676330678      H
$end

 Bond Distances (Angstroems)
 ---------------------------
C1-C2=1.4900         C1-H11=1.0898        C1-H12=1.0898        C1-H13=1.0873        C2-C1=1.4900         C2-C3=1.3624         
C2-C6=1.4299         C3-C2=1.3624         C3-N4=1.3719         C3-H14=1.0737        N4-C3=1.3719         N4-C5=1.3638         
N4-H15=1.0052        C5-N4=1.3638         C5-C6=1.4162         C5-C10=1.3890        C6-C2=1.4299         C6-C5=1.4162         
C6-C7=1.3945         C7-C6=1.3945         C7-C8=1.3765         C7-H16=1.0800        C8-C7=1.3765         C8-C9=1.3978         
C8-H17=1.0804        C9-C8=1.3978         C9-C10=1.3781        C9-H18=1.0802        C10-C5=1.3890        C10-C9=1.3781        
C10-H19=1.0806       H11-C1=1.0898        H12-C1=1.0898        H13-C1=1.0873        H14-C3=1.0737        H15-N4=1.0052        
H16-C7=1.0800        H17-C8=1.0804        H18-C9=1.0802        H19-C10=1.0806       
 C  H  Rav=1.0827 sigma=0.0053  Rmin=1.0737  Rmax=1.0898     8
 C  C  Rav=1.4038 sigma=0.0361  Rmin=1.3624  Rmax=1.4900     9
 N  H  Rav=1.0052 sigma=0.0000  Rmin=1.0052  Rmax=1.0052     1
 N  C  Rav=1.3678 sigma=0.0040  Rmin=1.3638  Rmax=1.3719     2

 selected bond angles (degree)
 --------------------
H11-C1-C2=110.48               H12-C1-C2=110.48               H12-C1-H11=107.86              H13-C1-C2=110.45               
H13-C1-H11=108.75              H13-C1-H12=108.75              C3-C2-C1=127.53                C6-C2-C1=126.11                
C6-C2-C3=106.35                N4-C3-C2=110.33                H14-C3-C2=129.15               H14-C3-N4=120.52               
C5-N4-C3=108.87                H15-N4-C3=125.45               H15-N4-C5=125.68               C6-C5-N4=107.57                
C10-C5-N4=130.68               C10-C5-C6=121.75               C5-C6-C2=106.88                C7-C6-C2=133.77                
C7-C6-C5=119.35                C8-C7-C6=118.62                H16-C7-C6=120.43               H16-C7-C8=120.94               
C9-C8-C7=121.38                H17-C8-C7=119.76               H17-C8-C9=118.87               C10-C9-C8=121.32               
H18-C9-C8=119.14               H18-C9-C10=119.54              C9-C10-C5=117.58               H19-C10-C5=121.07              
H19-C10-C9=121.35              

 selected dihedral angles (degree)
 ---------------------------------
C3-C2-C1-H11=120.36           C3-C2-C1-H12=239.64           C3-C2-C1-H13=  0.00           C6-C2-C1-H11=300.36           
C6-C2-C1-H12= 59.64           C6-C2-C1-H13=180.00           N4-C3-C2-C1=180.00            N4-C3-C2-C6=  0.00            
H14-C3-C2-C1=  0.00           H14-C3-C2-C6=180.00           C5-N4-C3-C2=  0.00            C5-N4-C3-H14=180.00           
H15-N4-C3-C2=180.01           H15-N4-C3-H14=  0.00          C6-C5-N4-C3=  0.00            C6-C5-N4-H15=179.99           
C10-C5-N4-C3=180.00           C10-C5-N4-H15=  0.00          C5-C6-C2-C1=180.00            C5-C6-C2-C3=  0.00            
C7-C6-C2-C1=  0.00            C7-C6-C2-C3=180.00            C2-C6-C5-N4=  0.00            C2-C6-C5-C10=180.00           
C7-C6-C5-N4=180.00            C7-C6-C5-C10=  0.00           C8-C7-C6-C2=180.00            C8-C7-C6-C5=  0.00            
H16-C7-C6-C2=  0.00           H16-C7-C6-C5=180.00           C9-C8-C7-C6=  0.00            C9-C8-C7-H16=180.00           
H17-C8-C7-C6=180.00           H17-C8-C7-H16=  0.00          C10-C9-C8-C7=  0.00           C10-C9-C8-H17=180.00          
H18-C9-C8-C7=180.00           H18-C9-C8-H17=  0.00          C9-C10-C5-N4=180.00           C9-C10-C5-C6=  0.00           
H19-C10-C5-N4=  0.00          H19-C10-C5-C6=180.00          C5-C10-C9-C8=  0.00           C5-C10-C9-H18=180.00          
H19-C10-C9-C8=180.00          H19-C10-C9-H18=  0.00         
           -------------------------------------------------
          |                Final Singlepoint                |
           -------------------------------------------------

          ...................................................
          :                      SETUP                      :
          :.................................................:
          :  # basis functions                  49          :
          :  # atomic orbitals                  49          :
          :  # shells                           29          :
          :  # electrons                        50          :
          :  max. iterations                   250          :
          :  Hamiltonian                  GFN2-xTB          :
          :  restarted?                      false          :
          :  GBSA solvation                  false          :
          :  PC potential                    false          :
          :  electronic temp.          300.0000000     K    :
          :  accuracy                    1.0000000          :
          :  -> integral cutoff          0.2500000E+02      :
          :  -> integral neglect         0.1000000E-07      :
          :  -> SCF convergence          0.1000000E-05 Eh   :
          :  -> wf. convergence          0.1000000E-03 e    :
          :  Broyden damping             0.4000000          :
          :  net charge                          0          :
          :  unpaired electrons                  0          :
          ...................................................

 iter      E             dE          RMSdq      gap      omega  full diag
   1    -27.2742893 -0.272743E+02  0.299E-05    3.59       0.0  T
   2    -27.2742893 -0.416378E-11  0.244E-05    3.59     939.0  T
   3    -27.2742893 -0.101288E-10  0.568E-06    3.59    4040.7  T

   *** convergence criteria satisfied after 3 iterations ***

         #    Occupation            Energy/Eh            Energy/eV
      -------------------------------------------------------------
         1        2.0000           -0.6660566             -18.1243
       ...           ...                  ...                  ...
        19        2.0000           -0.4472630             -12.1706
        20        2.0000           -0.4433727             -12.0648
        21        2.0000           -0.4193884             -11.4121
        22        2.0000           -0.4086123             -11.1189
        23        2.0000           -0.4054924             -11.0340
        24        2.0000           -0.3743534             -10.1867
        25        2.0000           -0.3549916              -9.6598 (HOMO)
        26                         -0.2230065              -6.0683 (LUMO)
        27                         -0.1902417              -5.1767
        28                         -0.1480996              -4.0300
        29                         -0.0630451              -1.7155
        30                          0.0275745               0.7503
       ...                                ...                  ...
        49                          0.7272802              19.7903
      -------------------------------------------------------------
                  HL-Gap            0.1319851 Eh            3.5915 eV
             Fermi-level           -0.2889990 Eh           -7.8641 eV

 SCC (total)                   0 d,  0 h,  0 min,  0.006 sec
 SCC setup                      ...        0 min,  0.000 sec (  0.861%)
 Dispersion                     ...        0 min,  0.000 sec (  0.672%)
 classical contributions        ...        0 min,  0.000 sec (  0.283%)
 integral evaluation            ...        0 min,  0.001 sec ( 22.161%)
 iterations                     ...        0 min,  0.001 sec ( 16.641%)
 molecular gradient             ...        0 min,  0.003 sec ( 58.666%)
 printout                       ...        0 min,  0.000 sec (  0.602%)

         :::::::::::::::::::::::::::::::::::::::::::::::::::::
         ::                     SUMMARY                     ::
         :::::::::::::::::::::::::::::::::::::::::::::::::::::
         :: total energy             -26.787157424000 Eh    ::
         :: gradient norm              0.000038006055 Eh/a0 ::
         :: HOMO-LUMO gap              3.591498520086 eV    ::
         ::.................................................::
         :: SCC energy               -27.274242257205 Eh    ::
         :: -> isotropic ES            0.005445734281 Eh    ::
         :: -> anisotropic ES          0.006136254312 Eh    ::
         :: -> anisotropic XC          0.014812469496 Eh    ::
         :: -> dispersion             -0.016748123805 Eh    ::
         :: repulsion energy           0.487084833205 Eh    ::
         :: add. restraining           0.000000000000 Eh    ::
         :: total charge               0.000000000000 e     ::
         :::::::::::::::::::::::::::::::::::::::::::::::::::::

           ------------------------------------------------- 
          |                Numerical Hessian                |
           ------------------------------------------------- 
step length          :   0.00500
SCC accuracy         :   0.30000
Hessian scale factor :   1.00000
frozen atoms in %    :   0.00000    0
RMS gradient         :   0.00004
estimated CPU  time      0.01 min
estimated wall time      0.01 min

writing file <hessian>, containing the non-mass-weighted Hessian matrix in atomic units (Eₕ/Bohr²).

 projected vibrational frequencies (cm⁻¹)
eigval :       -0.00    -0.00    -0.00    -0.00     0.00     0.00
eigval :       98.73   149.36   210.05   218.65   306.93   395.49
eigval :      447.65   453.73   522.66   545.70   548.80   575.76
eigval :      698.39   708.31   767.92   778.09   789.36   856.45
eigval :      865.43   898.37   919.97   997.12  1039.87  1064.68
eigval :     1070.90  1085.76  1159.09  1178.36  1209.92  1238.39
eigval :     1300.50  1327.09  1363.80  1392.11  1404.46  1429.44
eigval :     1480.65  1488.95  1499.16  1581.00  1593.51  1626.46
eigval :     2996.49  3010.81  3040.30  3067.42  3072.35  3081.90
eigval :     3090.52  3145.17  3489.66
           -------------------------------------------------
          |                Property Printout                |
           -------------------------------------------------

    * Orbital Energies and Occupations

         #    Occupation            Energy/Eh            Energy/eV
      -------------------------------------------------------------
         1        2.0000           -0.6660565             -18.1243
       ...           ...                  ...                  ...
        13        2.0000           -0.4966324             -13.5141
        14        2.0000           -0.4815304             -13.1031
        15        2.0000           -0.4746503             -12.9159
        16        2.0000           -0.4732182             -12.8769
        17        2.0000           -0.4649184             -12.6511
        18        2.0000           -0.4550751             -12.3832
        19        2.0000           -0.4472630             -12.1706
        20        2.0000           -0.4433727             -12.0648
        21        2.0000           -0.4193884             -11.4121
        22        2.0000           -0.4086123             -11.1189
        23        2.0000           -0.4054924             -11.0340
        24        2.0000           -0.3743534             -10.1867
        25        2.0000           -0.3549916              -9.6598 (HOMO)
        26                         -0.2230065              -6.0683 (LUMO)
        27                         -0.1902417              -5.1767
        28                         -0.1480996              -4.0300
        29                         -0.0630451              -1.7155
        30                          0.0275745               0.7503
        31                          0.1131044               3.0777
        32                          0.1357733               3.6946
        33                          0.1509603               4.1078
        34                          0.1596635               4.3447
        35                          0.1627987               4.4300
        36                          0.1820075               4.9527
       ...                                ...                  ...
        49                          0.7272802              19.7903
      -------------------------------------------------------------
                  HL-Gap            0.1319851 Eh            3.5915 eV
             Fermi-level           -0.2889990 Eh           -7.8641 eV

     #   Z          covCN         q      C6AA      α(0)
     1   6          3.754    -0.102    22.499     6.764
     2   6          3.049    -0.024    28.555     8.764
     3   6          3.035    -0.011    28.249     8.718
     4   7          2.777    -0.109    23.377     7.181
     5   6          3.084     0.044    26.927     8.506
     6   6          3.121    -0.020    28.327     8.716
     7   6          2.912    -0.036    28.894     8.814
     8   6          2.920    -0.043    29.067     8.841
     9   6          2.924    -0.037    28.930     8.821
    10   6          2.908    -0.054    29.347     8.883
    11   1          0.925     0.042     2.421     2.433
    12   1          0.925     0.042     2.421     2.433
    13   1          0.925     0.035     2.520     2.483
    14   1          0.926     0.026     2.641     2.541
    15   1          0.860     0.154     1.376     1.837
    16   1          0.926     0.027     2.632     2.537
    17   1          0.926     0.023     2.689     2.564
    18   1          0.926     0.024     2.670     2.555
    19   1          0.926     0.019     2.744     2.590

 Mol. C6AA /au·bohr⁶  :       4396.432478
 Mol. C8AA /au·bohr⁸  :     106681.266208
 Mol. α(0) /au        :        105.982707


Wiberg/Mayer (AO) data.
largest (>0.10) Wiberg bond orders for each atom

 ---------------------------------------------------------------------------
     #   Z sym  total        # sym  WBO       # sym  WBO       # sym  WBO
 ---------------------------------------------------------------------------
     1   6      3.997 --     2      1.029    13      0.986    11      0.975
                            12      0.975
     2   6      3.979 --     3      1.592     6      1.201     1      1.029
     3   6      3.948 --     2      1.592     4      1.182    14      0.970
     4   7      3.536 --     3      1.182     5      1.179    15      0.949
     5   6      3.959 --    10      1.339     6      1.246     4      1.179
     6   6      3.984 --     7      1.334     5      1.246     2      1.201
     7   6      3.993 --     8      1.503     6      1.334    16      0.970
                            10      0.113
     8   6      3.991 --     7      1.503     9      1.372    17      0.972
     9   6      3.991 --    10      1.492     8      1.372    18      0.972
    10   6      3.989 --     9      1.492     5      1.339    19      0.969
                             7      0.113
    11   1      0.998 --     1      0.975
    12   1      0.998 --     1      0.975
    13   1      0.998 --     1      0.986
    14   1      0.999 --     3      0.970
    15   1      0.976 --     4      0.949
    16   1      0.999 --     7      0.970
    17   1      0.999 --     8      0.972
    18   1      0.999 --     9      0.972
    19   1      0.999 --    10      0.969
 ---------------------------------------------------------------------------

Topologies differ in total number of bonds
Writing topology from bond orders to xtbtopo.mol

molecular dipole:
                 x           y           z       tot (Debye)
 q only:       -0.354      -0.434      -0.000
   full:       -0.376      -0.687      -0.000       1.990
molecular quadrupole (traceless):
                xx          xy          yy          xz          yz          zz
 q only:       -0.991       0.307       3.648       0.000       0.000      -2.656
  q+dip:        0.107       1.212       7.687       0.000       0.001      -7.794
   full:       -1.080       0.936       6.118       0.000       0.001      -5.038

           -------------------------------------------------
          |                Geometry Summary                 |
           -------------------------------------------------

      molecular mass/u    :      131.1747931
   center of mass at/Å    :        0.0000112       0.0000086      -0.0000213
  moments of inertia/u·Å² :        0.1918751E+03   0.3924978E+03   0.5812444E+03
rotational constants/cm⁻¹ :        0.8785730E-01   0.4294962E-01   0.2900266E-01

 * 20 selected distances

     #   Z          #   Z                                           value/Å
     1   6          2   6                                         1.4900379 (max)
     2   6          3   6                                         1.3624333
     3   6          4   7                                         1.3718548
     4   7          5   6                                         1.3638310
     2   6          6   6                                         1.4299118
     5   6          6   6                                         1.4162320
     6   6          7   6                                         1.3945181
     7   6          8   6                                         1.3764825
     8   6          9   6                                         1.3977944
     5   6         10   6                                         1.3890458
     9   6         10   6                                         1.3781109
     1   6         11   1                                         1.0898177
     1   6         12   1                                         1.0898181
     1   6         13   1                                         1.0872760
     3   6         14   1                                         1.0737142
     4   7         15   1                                         1.0052013 (min)
     7   6         16   1                                         1.0799697
     8   6         17   1                                         1.0804214
     9   6         18   1                                         1.0802149
    10   6         19   1                                         1.0805885

 * 4 distinct bonds (by element types)

   Z      Z             #   av. dist./Å        max./Å        min./Å
   1 H    6 C           8     1.0827276     1.0898181     1.0737142
   6 C    6 C           9     1.4038408     1.4900379     1.3624333
   1 H    7 N           1     1.0052013     1.0052013     1.0052013
   6 C    7 N           2     1.3678429     1.3718548     1.3638310

           -------------------------------------------------
          |               Frequency Printout                |
           -------------------------------------------------
 projected vibrational frequencies (cm⁻¹)
eigval :       -0.00    -0.00    -0.00    -0.00     0.00     0.00
eigval :       98.73   149.36   210.05   218.65   306.93   395.49
eigval :      447.65   453.73   522.66   545.70   548.80   575.76
eigval :      698.39   708.31   767.92   778.09   789.36   856.45
eigval :      865.43   898.37   919.97   997.12  1039.87  1064.68
eigval :     1070.90  1085.76  1159.09  1178.36  1209.92  1238.39
eigval :     1300.50  1327.09  1363.80  1392.11  1404.46  1429.44
eigval :     1480.65  1488.95  1499.16  1581.00  1593.51  1626.46
eigval :     2996.49  3010.81  3040.30  3067.42  3072.35  3081.90
eigval :     3090.52  3145.17  3489.66
 reduced masses (amu)
    1:      6.38    2:      5.78    3:      4.26    4:      5.09    5:      5.48    6:      5.07
    7:      1.02    8:      3.27    9:      3.89   10:      2.94   11:      4.27   12:      2.99
   13:      3.65   14:      1.61   15:      6.00   16:      2.69   17:      5.75   18:      2.82
   19:      7.73   20:      5.51   21:      1.27   22:      4.72   23:      1.26   24:      5.33
   25:      1.27   26:      1.33   27:      1.21   28:      1.54   29:      1.39   30:      1.70
   31:      2.98   32:      1.25   33:      1.27   34:      1.12   35:      1.42   36:      1.68
   37:      3.26   38:      2.43   39:      8.68   40:      3.10   41:      1.30   42:      4.37
   43:      1.06   44:      1.15   45:      3.83   46:      8.05   47:      8.09   48:      8.50
   49:      1.09   50:      1.05   51:      1.07   52:      1.08   53:      1.08   54:      1.08
   55:      1.09   56:      1.09   57:      1.07
 IR intensities (km·mol⁻¹)
    1:      0.08    2:      0.10    3:      0.55    4:      0.15    5:      0.04    6:      0.15
    7:      0.05    8:      0.64    9:      1.92   10:      0.42   11:      0.02   12:      6.31
   13:      1.21   14:     72.89   15:      0.46   16:     11.95   17:      0.82   18:      6.09
   19:      0.19   20:      0.49   21:     16.04   22:      2.59   23:     19.14   24:      0.45
   25:      0.01   26:      0.38   27:      0.00   28:      4.93   29:      4.04   30:      1.32
   31:      5.43   32:     12.40   33:      2.11   34:      1.87   35:      1.94   36:     14.30
Molecule has the following symmetry elements: (sigma) 
It seems to be the Cs point group
   37:     62.29   38:     18.19   39:     17.48   40:      4.72   41:      1.96   42:     31.75
   43:      3.21   44:      6.70   45:      6.03   46:      0.87   47:      0.77   48:      9.27
   49:     32.74   50:     28.96   51:     37.19   52:     14.08   53:     18.58   54:     85.08
   55:     60.88   56:     29.48   57:     10.04
 Raman intensities (Ä⁴*amu⁻¹)
    1:      0.00    2:      0.00    3:      0.00    4:      0.00    5:      0.00    6:      0.00
    7:      0.00    8:      0.00    9:      0.00   10:      0.00   11:      0.00   12:      0.00
   13:      0.00   14:      0.00   15:      0.00   16:      0.00   17:      0.00   18:      0.00
   19:      0.00   20:      0.00   21:      0.00   22:      0.00   23:      0.00   24:      0.00
   25:      0.00   26:      0.00   27:      0.00   28:      0.00   29:      0.00   30:      0.00
   31:      0.00   32:      0.00   33:      0.00   34:      0.00   35:      0.00   36:      0.00
   37:      0.00   38:      0.00   39:      0.00   40:      0.00   41:      0.00   42:      0.00
   43:      0.00   44:      0.00   45:      0.00   46:      0.00   47:      0.00   48:      0.00
   49:      0.00   50:      0.00   51:      0.00   52:      0.00   53:      0.00   54:      0.00
   55:      0.00   56:      0.00   57:      0.00
 output can be read by thermo (or use thermo option).
 writing <g98.out> molden fake output.
 recommended (thermochemical) frequency scaling factor: 1.0
           -------------------------------------------------
          |             Thermodynamic Functions             |
           -------------------------------------------------

cs  symmetry found (for desy threshold:  0.10E+00) used in thermo

          ...................................................
          :                      SETUP                      :
          :.................................................:
          :  # frequencies                          51      :
          :  # imaginary freq.                       0      :
          :  linear?                             false      :
          :  only rotor calc.                    false      :
          :  symmetry                               cs      :
          :  rotational number                       1      :
          :  scaling factor                  1.0000000      :
          :  rotor cutoff                    0.0000000 cm⁻¹ :
          :  imag. cutoff                 -100.0000000 cm⁻¹ :
          :.................................................:

    mode    ω/cm⁻¹     T·S(HO)/kcal·mol⁻¹    T·S(FR)/kcal·mol⁻¹   T·S(vib)
   ------------------------------------------------------------------------
       1     98.73    -1.03735 (100.00%)    -0.85488 (  0.00%)    -1.03735
       2    149.36    -0.79917 (100.00%)    -0.73229 (  0.00%)    -0.79917
       3    210.05    -0.60918 (100.00%)    -0.63128 (  0.00%)    -0.60918
       4    218.65    -0.58743 (100.00%)    -0.61940 (  0.00%)    -0.58743
   ------------------------------------------------------------------------

   temp. (K)  partition function   enthalpy   heat capacity  entropy
                                   cal/mol     cal/K/mol   cal/K/mol   J/K/mol
 298.15  VIB   41.4                 3437.936     27.281     18.929
         ROT  0.505E+06              888.727      2.981     29.079
         INT  0.209E+08             4326.663     30.261     48.008
         TR   0.460E+26             1481.212      4.968     40.527
         TOT                        5807.8755    35.2294    88.5351   370.4309

       T/K    H(0)-H(T)+PV         H(T)/Eh          T*S/Eh         G(T)/Eh
   ------------------------------------------------------------------------
    298.15    0.925544E-02    0.162534E+00    0.420659E-01    0.120468E+00
   ------------------------------------------------------------------------

         :::::::::::::::::::::::::::::::::::::::::::::::::::::
         ::                  THERMODYNAMIC                  ::
         :::::::::::::::::::::::::::::::::::::::::::::::::::::
         :: total free energy         -26.666689068977 Eh   ::
         ::.................................................::
         :: total energy              -26.787157424000 Eh   ::
         :: zero point energy           0.153278806608 Eh   ::
         :: G(RRHO) w/o ZPVE           -0.032810451585 Eh   ::
         :: G(RRHO) contrib.            0.120468355023 Eh   ::
         :::::::::::::::::::::::::::::::::::::::::::::::::::::

optimized geometry written to: xtbopt.coord


           -------------------------------------------------
          | TOTAL ENERGY              -26.787157424000 Eh   |
          | TOTAL ENTHALPY            -26.624623178594 Eh   |
          | TOTAL FREE ENERGY         -26.666689068977 Eh   |
          | GRADIENT NORM               0.000037998970 Eh/α |
          | HOMO-LUMO GAP               3.591498176947 eV   |
           -------------------------------------------------

------------------------------------------------------------------------
 * finished run on 2025/04/09 at 01:31:52.339     
------------------------------------------------------------------------
 total:
 * wall-time:     0 d,  0 h,  0 min,  0.801 sec
 *  cpu-time:     0 d,  0 h,  0 min,  0.797 sec
 * ratio c/w:     0.995 speedup
 SCF:
 * wall-time:     0 d,  0 h,  0 min,  0.009 sec
 *  cpu-time:     0 d,  0 h,  0 min,  0.009 sec
 * ratio c/w:     0.987 speedup
 ANC optimizer:
 * wall-time:     0 d,  0 h,  0 min,  0.045 sec
 *  cpu-time:     0 d,  0 h,  0 min,  0.045 sec
 * ratio c/w:     0.991 speedup
 analytical hessian:
 * wall-time:     0 d,  0 h,  0 min,  0.741 sec
 *  cpu-time:     0 d,  0 h,  0 min,  0.737 sec
 * ratio c/w:     0.995 speedup

