14
 energy: -20.782665727972 gnorm: 0.027044276534 xtb: 6.7.1 (41059b4)
C           -2.48574550439604        0.02551651835994        0.31829448283280
C           -1.23294038995346        0.72946734267754       -0.18292335212527
C            0.03052549978057       -0.01544698882714        0.17388655223790
O            0.08569514926610       -1.10174053940274        0.70049542651498
O            1.12605729372308        0.69871343754264       -0.18486966599156
C            2.38614341580947        0.05673551706786        0.09944050224802
H           -2.46430813171341       -0.07935044903929        1.40579746503343
H           -3.37795037777278        0.59303891032672        0.04118627356576
H           -2.56450654882903       -0.97810838974113       -0.10560765341612
H           -1.14973222582268        1.74695228484597        0.21588622643722
H           -1.24667931383329        0.84248221831373       -1.27429238491350
H            2.46178412084191       -0.89157745153941       -0.43956030423654
H            2.48432087985971       -0.13406036557699        1.17152637924068
H            3.15202375149814        0.75447748412148       -0.23940594985095
14
 energy: -20.783331745014 gnorm: 0.009660688005 xtb: 6.7.1 (41059b4)
C           -2.47950719787902        0.02790215681431        0.31709496003056
C           -1.22915291444256        0.73112356315703       -0.18416407579558
C            0.02986823828878       -0.01993076404542        0.17491746543765
O            0.08265648906919       -1.09938707150612        0.69897114244921
O            1.12323542260481        0.68481192508503       -0.17973952241199
C            2.37924116000561        0.05923680270038        0.09864887279619
H           -2.45126702126898       -0.07243898064585        1.40040298038322
H           -3.36851065776361        0.59165452895239        0.04030531842613
H           -2.54972209501692       -0.97084820792722       -0.10885198997757
H           -1.14958308262623        1.74171693744477        0.22601666924535
H           -1.24986468900225        0.83421463452494       -1.27377037979834
H            2.45199855791384       -0.88731664763932       -0.43902748314586
H            2.47328668743757       -0.12995886386055        1.16900456487607
H            3.14200872113807        0.75631951607481       -0.23995452493819
14
 energy: -20.783423546421 gnorm: 0.003297137974 xtb: 6.7.1 (41059b4)
C           -2.47666886414928        0.02840614775710        0.31700556212780
C           -1.22722715622544        0.73474408395009       -0.18626275093707
C            0.02908872107572       -0.02208776700545        0.17449034443126
O            0.07930159109888       -1.10054089175473        0.69843166106476
O            1.12063923788397        0.67774332772013       -0.17811268986281
C            2.37317004537496        0.06081812258351        0.09813151588820
H           -2.44552119046311       -0.06956929586862        1.39872792978729
H           -3.36522935656321        0.58907499397735        0.03997421531058
H           -2.54204477139147       -0.96918066884473       -0.10844203331707
H           -1.14707784432546        1.74112664108131        0.22976508122725
H           -1.24993292633094        0.83417382630714       -1.27433388607733
H            2.45096588437747       -0.88645068000094       -0.43735354198303
H            2.47048003237107       -0.12870631729219        1.16802020762950
H            3.13474421572514        0.75754800651922       -0.24018761771247
14
 energy: -20.783432507109 gnorm: 0.001077798315 xtb: 6.7.1 (41059b4)
C           -2.47717163258094        0.02870641563423        0.31698990279610
C           -1.22721258845256        0.73571538216777       -0.18662459701137
C            0.02903009251951       -0.02270667289062        0.17385209130222
O            0.07759708713993       -1.10179708707743        0.69797732419101
O            1.12027520429773        0.67591177265515       -0.17844180770573
C            2.37197344173574        0.06139481923124        0.09782503357574
H           -2.44534191373541       -0.06806503548777        1.39880372913061
H           -3.36635917351904        0.58804257406299        0.03908642141987
H           -2.54028768793398       -0.96944357695839       -0.10753178209993
H           -1.14622823671629        1.74094655532414        0.23094536665771
H           -1.25023082580867        0.83566280952507       -1.27417848707070
H            2.45329654222961       -0.88696888896121       -0.43638944932930
H            2.47161331883658       -0.12857581763933        1.16801159406182
H            3.13373399044608        0.75827627954335       -0.24047134234121
14
 energy: -20.783434318416 gnorm: 0.000706054288 xtb: 6.7.1 (41059b4)
C           -2.47779736305928        0.02874523402885        0.31705464394278
C           -1.22748030021672        0.73622633716265       -0.18636528458700
C            0.02909124336800       -0.02320545033804        0.17310504067514
O            0.07579432471786       -1.10301054757232        0.69710759981555
O            1.12037799135009        0.67465732000358       -0.17927177650784
C            2.37177697950828        0.06167813927022        0.09744961499704
H           -2.44717065388731       -0.06600712032693        1.39930140425955
H           -3.36732591308168        0.58680448172555        0.03687332164396
H           -2.53915641442469       -0.97049764181527       -0.10567251061032
H           -1.14570929118892        1.74080299894709        0.23251783386821
H           -1.25068274262633        0.83802807821626       -1.27367556121756
H            2.45605713273882       -0.88768101869778       -0.43571922416455
H            2.47308855693629       -0.12832784587152        1.16807776801200
H            3.13382406832388        0.75888656439685       -0.24092887255011
14
 energy: -20.783434922131 gnorm: 0.000220060765 xtb: 6.7.1 (41059b4)
C           -2.47769802194364        0.02871519616077        0.31700138555943
C           -1.22745750237471        0.73612527643809       -0.18593027922723
C            0.02916552930269       -0.02328799930227        0.17311611057635
O            0.07589057184633       -1.10302243669915        0.69690022863024
O            1.12047010211724        0.67469569897173       -0.17941504206919
C            2.37203297513132        0.06150334622158        0.09733212785408
H           -2.44820295314540       -0.06511765656934        1.39934258198691
H           -3.36714162752055        0.58626971296939        0.03558411238413
H           -2.53858890013738       -0.97088338024965       -0.10489074890959
H           -1.14582615948194        1.74070152175166        0.23326058868143
H           -1.25070388215006        0.83855266816962       -1.27329002731050
H            2.45584772617111       -0.88765762828556       -0.43598710460000
H            2.47293250411453       -0.12824315907360        1.16792376633181
H            3.13396725652877        0.75874836862591       -0.24109370231100
14
 energy: -20.783435554824 gnorm: 0.000259002081 xtb: 6.7.1 (41059b4)
C           -2.47759187004532        0.02865427208428        0.31683097712485
C           -1.22737306571779        0.73639491025593       -0.18499876227402
C            0.02921336120396       -0.02341730127174        0.17324011280216
O            0.07584063912707       -1.10327374530980        0.69647055850097
O            1.12044756291324        0.67452429157155       -0.17963232592355
C            2.37217934185646        0.06118581717935        0.09689350458391
H           -2.45070312779656       -0.06243507257325        1.39945075711589
H           -3.36710568418058        0.58431936624508        0.03196552562819
H           -2.53630220129204       -0.97205204222091       -0.10267507810920
H           -1.14580796337706        1.74055246606147        0.23540038542049
H           -1.25050278466488        0.84026682882071       -1.27229516411695
H            2.45557772987927       -0.88777774378881       -0.43654783072104
H            2.47289271878860       -0.12831517957475        1.16741225543912
H            3.13392296176391        0.75847266165007       -0.24166091789398
14
 energy: -20.783435886997 gnorm: 0.000244399368 xtb: 6.7.1 (41059b4)
C           -2.47765306681419        0.02858226647463        0.31666169939013
C           -1.22733952877708        0.73677752945583       -0.18433762941025
C            0.02920872336720       -0.02332766724406        0.17342397290845
O            0.07588934851800       -1.10323006105326        0.69657656350272
O            1.12042540829220        0.67456777407672       -0.17958295764544
C            2.37220467058092        0.06094378047754        0.09650489687201
H           -2.45261084844065       -0.06042327066647        1.39950079810947
H           -3.36734464905680        0.58260261000251        0.02915636628363
H           -2.53433256942846       -0.97299512905974       -0.10105469519253
H           -1.14582020511780        1.74056759760663        0.23690206783501
H           -1.25022135229047        0.84152834788021       -1.27154257311026
H            2.45525177636330       -0.88788988221541       -0.43720164597086
H            2.47310517223906       -0.12882441315009        1.16694736736410
H            3.13392473902307        0.75822004654416       -0.24210023335935
14
 energy: -20.783436107921 gnorm: 0.000121832199 xtb: 6.7.1 (41059b4)
C           -2.47771409197444        0.02842784170527        0.31642680847078
C           -1.22730702616524        0.73730469332965       -0.18366398862215
C            0.02918655900252       -0.02291042704791        0.17407798358086
O            0.07592358300836       -1.10304563649779        0.69684550942462
O            1.12042800830788        0.67471381144420       -0.17930046234492
C            2.37211820992055        0.06066448053911        0.09600232406009
H           -2.45461771266337       -0.05830881806807        1.39949208105287
H           -3.36758570789043        0.58063121538050        0.02605342377429
H           -2.53207917251878       -0.97407621930470       -0.09937226366357
H           -1.14605419458995        1.74070293254827        0.23843683179489
H           -1.24977607551030        0.84282364102914       -1.27076761136246
H            2.45474540197290       -0.88805395154955       -0.43806035223473
H            2.47350841608179       -0.12961409515392        1.16634100371895
H            3.13391142147682        0.75784006077498       -0.24265729007268
14
 energy: -20.783436147652 gnorm: 0.000087799082 xtb: 6.7.1 (41059b4)
C           -2.47777273815792        0.02834870772544        0.31631275910502
C           -1.22728916341401        0.73767355842955       -0.18315086854792
C            0.02918652257631       -0.02278245242475        0.17413118924014
O            0.07594929619242       -1.10282896709501        0.69715807180198
O            1.12048194582639        0.67484956757743       -0.17908139771664
C            2.37206293449875        0.06050418908606        0.09570801190086
H           -2.45604618958171       -0.05688285492491        1.39952214074239
H           -3.36777685047159        0.57927927541990        0.02394368020224
H           -2.53052921402820       -0.97477444160660       -0.09819842961452
H           -1.14624314819410        1.74088476280719        0.23939884570117
H           -1.24953551871883        0.84360584841706       -1.27018792784007
H            2.45440138594610       -0.88807665577958       -0.43872394816245
H            2.47383886231794       -0.13029820977583        1.16594709892802
H            3.13395949366674        0.75759720127324       -0.24292522816337
