 Entering Gaussian System
 *********************************************
 Gaussian 98:
 frequency output generated by the xtb code
 *********************************************
                         Standard orientation:
 --------------------------------------------------------------------
  Center     Atomic     Atomic              Coordinates (Angstroms)
  Number     Number      Type              X           Y           Z
 --------------------------------------------------------------------
    1          6             0       -1.912799   -0.541888   -0.096165
    2          6             0       -0.898582    0.528403   -0.452183
    3         16             0        0.623806    0.430613    0.550393
    4          6             0        1.400275   -1.034546   -0.187967
    5          1             0       -1.528482   -1.534719   -0.319540
    6          1             0       -2.154028   -0.493244    0.963109
    7          1             0       -2.825516   -0.391839   -0.669763
    8          1             0       -1.297273    1.521553   -0.248380
    9          1             0       -0.604055    0.471852   -1.500741
   10          1             0        2.380083   -1.128398    0.267905
   11          1             0        1.501293   -0.887865   -1.259863
   12          1             0        0.808920   -1.919767    0.026616
 --------------------------------------------------------------------
     1 basis functions        1 primitive gaussians
     1 alpha electrons        1 beta electrons

 Harmonic frequencies (cm**-1), IR intensities (km*mol⁻¹),
 Raman scattering activities (A**4/amu), Raman depolarization ratios,
 reduced masses (AMU), force constants (mDyne/A) and normal coordinates:
                      1                      2                      3
                        a                      a                      a 
 Frequencies --    67.8809               148.6113               202.9233
 Red. masses --     1.6844                 1.1228                 1.3153
 Frc consts  --     0.0000                 0.0000                 0.0000
 IR Inten    --     2.0962                 1.1344                 0.4171
 Raman Activ --     0.0000                 0.0000                 0.0000
 Depolar     --     0.0000                 0.0000                 0.0000
 Atom AN      X      Y      Z        X      Y      Z        X      Y      Z
   1   6    -0.22   0.22   0.21    -0.11   0.14  -0.02     0.22  -0.14  -0.01
   2   6     0.07  -0.18  -0.18     0.05  -0.03  -0.06     0.05   0.04   0.06
   3  16    -0.13  -0.19   0.10    -0.07  -0.15   0.13     0.08   0.12   0.09
   4   6     0.31   0.20  -0.16     0.13   0.07  -0.08    -0.36  -0.04  -0.14
   5   1    -0.09   0.00   0.28     0.01   0.01   0.18     0.28  -0.04   0.39
   6   1    -0.15   0.27   0.03    -0.17   0.18  -0.04    -0.28   0.21  -0.09
   7   1    -0.01  -0.00  -0.04     0.04  -0.04  -0.15     0.22  -0.34  -0.34
   8   1     0.08   0.00  -0.20     0.04   0.01  -0.07    -0.03  -0.01   0.01
   9   1     0.06  -0.22  -0.03     0.05  -0.06  -0.00     0.04   0.02   0.02
  10   1    -0.01  -0.05   0.15     0.24   0.33  -0.39    -0.12  -0.14  -0.03
  11   1     0.32   0.22  -0.00    -0.42  -0.13  -0.09    -0.07   0.04  -0.03
  12   1     0.01   0.04  -0.31     0.33  -0.08   0.35    -0.19   0.03  -0.11
                      4                      5                      6
                        a                      a                      a 
 Frequencies --   258.1232               328.2274               674.8540
 Red. masses --     2.1365                 3.0781                 4.3486
 Frc consts  --     0.0000                 0.0000                 0.0000
 IR Inten    --     0.8000                 1.4365                 1.9103
 Raman Activ --     0.0000                 0.0000                 0.0000
 Depolar     --     0.0000                 0.0000                 0.0000
 Atom AN      X      Y      Z        X      Y      Z        X      Y      Z
   1   6    -0.29   0.01  -0.12    -0.42  -0.10  -0.19    -0.16  -0.08  -0.04
   2   6    -0.27   0.14   0.32     0.08  -0.40   0.16    -0.51   0.22  -0.41
   3  16     0.15  -0.06  -0.30     0.41   0.30   0.13     0.36   0.07   0.35
   4   6     0.35  -0.10   0.18    -0.13   0.08  -0.07     0.12  -0.18  -0.06
   5   1     0.02   0.01   0.11    -0.27  -0.07  -0.12     0.09   0.03   0.01
   6   1    -0.32   0.05  -0.09    -0.20  -0.08  -0.07     0.08  -0.00   0.02
   7   1     0.04  -0.08  -0.25    -0.05   0.17  -0.11    -0.14  -0.22   0.10
   8   1    -0.06   0.01   0.27     0.02  -0.10  -0.05    -0.13   0.07  -0.17
   9   1    -0.16   0.20   0.06     0.07  -0.18   0.06    -0.07  -0.02  -0.08
  10   1     0.06   0.03   0.16    -0.02  -0.08  -0.08     0.05  -0.11  -0.06
  11   1     0.20  -0.08   0.05    -0.09   0.03  -0.03    -0.01  -0.01  -0.01
  12   1     0.11  -0.03   0.04    -0.11   0.07  -0.01    -0.01  -0.02  -0.02
                      7                      8                      9
                        a                      a                      a 
 Frequencies --   731.8359               782.0387               936.9696
 Red. masses --     5.5144                 1.1971                 1.1799
 Frc consts  --     0.0000                 0.0000                 0.0000
 IR Inten    --    10.3777                 7.8300                 9.4765
 Raman Activ --     0.0000                 0.0000                 0.0000
 Depolar     --     0.0000                 0.0000                 0.0000
 Atom AN      X      Y      Z        X      Y      Z        X      Y      Z
   1   6    -0.04  -0.02  -0.02    -0.01   0.05   0.05    -0.02   0.07   0.06
   2   6    -0.10   0.00  -0.17    -0.11   0.20   0.26     0.01  -0.02  -0.02
   3  16     0.34  -0.43  -0.12     0.06  -0.12  -0.10    -0.08  -0.03  -0.12
   4   6    -0.33   0.58   0.29    -0.10   0.09   0.01     0.19   0.03   0.30
   5   1    -0.02  -0.02   0.04     0.26   0.16  -0.20     0.15   0.10  -0.09
   6   1     0.05   0.07   0.01    -0.14  -0.32  -0.01    -0.08  -0.16   0.00
   7   1    -0.05  -0.05   0.04     0.05  -0.07  -0.09     0.03  -0.06  -0.06
   8   1    -0.00  -0.02   0.09     0.08   0.20  -0.45     0.21   0.07   0.04
   9   1    -0.07   0.10  -0.06     0.12  -0.48   0.14    -0.19  -0.08  -0.06
  10   1    -0.08   0.16   0.07    -0.06   0.15   0.10     0.19  -0.43  -0.33
  11   1    -0.06   0.13   0.07     0.07  -0.04   0.00    -0.33   0.40   0.09
  12   1    -0.04   0.12   0.07     0.06  -0.03   0.02    -0.15   0.09  -0.13
                     10                     11                     12
                        a                      a                      a 
 Frequencies --   941.7088              1015.6490              1046.1372
 Red. masses --     1.1785                 1.4318                 1.2936
 Frc consts  --     0.0000                 0.0000                 0.0000
 IR Inten    --     2.2406                 7.3509                 8.3340
 Raman Activ --     0.0000                 0.0000                 0.0000
 Depolar     --     0.0000                 0.0000                 0.0000
 Atom AN      X      Y      Z        X      Y      Z        X      Y      Z
   1   6     0.00  -0.02  -0.01     0.41   0.11   0.14    -0.13   0.07   0.18
   2   6     0.00  -0.01  -0.01    -0.31  -0.09  -0.10     0.18  -0.14  -0.27
   3  16     0.09   0.10  -0.03     0.04  -0.05   0.07     0.01   0.08   0.15
   4   6    -0.23  -0.24   0.16     0.02   0.01  -0.00    -0.11  -0.02  -0.14
   5   1    -0.04  -0.02   0.01    -0.18  -0.05  -0.10     0.21   0.15  -0.14
   6   1     0.00   0.02  -0.00    -0.22  -0.04  -0.04    -0.17  -0.29   0.02
   7   1     0.01   0.04  -0.00     0.33   0.47  -0.22     0.04  -0.09  -0.10
   8   1    -0.05  -0.02   0.00    -0.28  -0.10  -0.05     0.37   0.03   0.25
   9   1    -0.02   0.02  -0.01    -0.30  -0.12  -0.08    -0.44   0.05  -0.21
  10   1     0.01   0.30  -0.02     0.00  -0.01  -0.00    -0.08   0.17   0.13
  11   1    -0.04   0.47   0.11     0.00  -0.02  -0.00     0.13  -0.14  -0.04
  12   1     0.39  -0.46  -0.37    -0.02   0.02   0.02     0.08  -0.06   0.05
                     13                     14                     15
                        a                      a                      a 
 Frequencies --  1077.5908              1229.9613              1258.9979
 Red. masses --     2.9577                 1.2259                 1.2758
 Frc consts  --     0.0000                 0.0000                 0.0000
 IR Inten    --     3.0336                 2.0160                20.6455
 Raman Activ --     0.0000                 0.0000                 0.0000
 Depolar     --     0.0000                 0.0000                 0.0000
 Atom AN      X      Y      Z        X      Y      Z        X      Y      Z
   1   6     0.18   0.46  -0.26     0.13  -0.21  -0.26     0.11  -0.10   0.13
   2   6    -0.33  -0.51   0.19    -0.08   0.15   0.18    -0.39  -0.09  -0.16
   3  16     0.02   0.04   0.02    -0.01   0.02   0.03    -0.01   0.04  -0.02
   4   6    -0.03  -0.00  -0.03    -0.01  -0.01  -0.03    -0.02   0.00  -0.00
   5   1     0.28   0.19  -0.02    -0.21  -0.19   0.16    -0.06  -0.04  -0.05
   6   1     0.26   0.16  -0.02     0.16   0.28  -0.05    -0.09   0.01   0.00
   7   1    -0.07  -0.14   0.07    -0.05   0.08   0.10     0.12   0.17  -0.07
   8   1     0.03  -0.10   0.11     0.45   0.24  -0.02     0.56   0.19   0.21
   9   1    -0.05  -0.09   0.06    -0.45  -0.32  -0.06     0.53   0.12   0.14
  10   1    -0.02   0.02   0.02    -0.01   0.04   0.03     0.00   0.00  -0.01
  11   1     0.02  -0.02  -0.01     0.01  -0.00  -0.00     0.02  -0.01  -0.00
  12   1     0.02  -0.02   0.00    -0.00   0.01   0.02     0.02  -0.02  -0.01
                     16                     17                     18
                        a                      a                      a 
 Frequencies --  1316.5551              1405.0080              1444.0251
 Red. masses --     1.1540                 1.2026                 1.0883
 Frc consts  --     0.0000                 0.0000                 0.0000
 IR Inten    --     2.6699                 4.1668                 2.6991
 Raman Activ --     0.0000                 0.0000                 0.0000
 Depolar     --     0.0000                 0.0000                 0.0000
 Atom AN      X      Y      Z        X      Y      Z        X      Y      Z
   1   6     0.01   0.02   0.02    -0.30  -0.28   0.09     0.07   0.05  -0.01
   2   6    -0.01  -0.02  -0.01     0.02  -0.03   0.05    -0.04  -0.19   0.13
   3  16     0.02  -0.03  -0.01     0.01  -0.01   0.00     0.02   0.00   0.01
   4   6     0.17  -0.29  -0.14     0.00   0.01  -0.02     0.11   0.07   0.03
   5   1    -0.01   0.00  -0.02     0.42   0.18  -0.14    -0.08  -0.05   0.05
   6   1    -0.01  -0.01   0.00     0.37   0.36   0.08    -0.07  -0.10  -0.01
   7   1     0.01  -0.03  -0.01     0.21   0.38  -0.27    -0.02  -0.04   0.04
   8   1     0.01  -0.00  -0.00     0.00   0.04  -0.16     0.14   0.15  -0.50
   9   1     0.03   0.02   0.00    -0.07   0.14  -0.03    -0.12   0.52  -0.06
  10   1    -0.09   0.44   0.31    -0.02  -0.04   0.04    -0.09   0.00   0.22
  11   1    -0.26   0.47   0.04    -0.02   0.03   0.00    -0.35  -0.20  -0.06
  12   1    -0.36   0.29   0.24     0.03  -0.01   0.05     0.01  -0.06  -0.27
                     19                     20                     21
                        a                      a                      a 
 Frequencies --  1450.5177              1456.7660              1491.6589
 Red. masses --     1.0748                 1.0638                 1.0550
 Frc consts  --     0.0000                 0.0000                 0.0000
 IR Inten    --     3.5325                 5.6013                 5.2968
 Raman Activ --     0.0000                 0.0000                 0.0000
 Depolar     --     0.0000                 0.0000                 0.0000
 Atom AN      X      Y      Z        X      Y      Z        X      Y      Z
   1   6     0.06   0.02   0.00    -0.03  -0.00   0.03    -0.10   0.18   0.05
   2   6    -0.02  -0.12   0.10     0.00  -0.00   0.01    -0.04   0.02   0.01
   3  16    -0.00  -0.01   0.00     0.00  -0.00   0.02     0.00   0.00  -0.00
   4   6    -0.17  -0.09  -0.03     0.01  -0.10   0.21    -0.01   0.01  -0.03
   5   1    -0.06  -0.02  -0.02    -0.02   0.01  -0.05    -0.35  -0.15   0.12
   6   1    -0.08  -0.01  -0.02     0.10   0.03   0.02     0.53  -0.29   0.14
   7   1    -0.03  -0.05   0.05     0.05  -0.04  -0.10     0.26  -0.27  -0.50
   8   1     0.08   0.10  -0.35     0.01   0.01  -0.01     0.03   0.03  -0.01
   9   1    -0.09   0.36  -0.04    -0.02   0.00  -0.00     0.00  -0.01   0.01
  10   1     0.14  -0.01  -0.34     0.23   0.48  -0.37    -0.02  -0.07   0.03
  11   1     0.52   0.27   0.09     0.16  -0.28  -0.00     0.01   0.04   0.00
  12   1    -0.00   0.08   0.37    -0.42   0.16  -0.44     0.06  -0.02   0.07
                     22                     23                     24
                        a                      a                      a 
 Frequencies --  1496.8531              2971.6786              3003.4137
 Red. masses --     1.0561                 1.0765                 1.0703
 Frc consts  --     0.0000                 0.0000                 0.0000
 IR Inten    --     1.6633                19.0822                 6.3759
 Raman Activ --     0.0000                 0.0000                 0.0000
 Depolar     --     0.0000                 0.0000                 0.0000
 Atom AN      X      Y      Z        X      Y      Z        X      Y      Z
   1   6     0.08  -0.02   0.20     0.00   0.01   0.02    -0.04   0.04   0.00
   2   6     0.03   0.00   0.04     0.08  -0.03  -0.25     0.08  -0.23  -0.04
   3  16    -0.00   0.00  -0.00    -0.00  -0.00  -0.00     0.00  -0.00   0.00
   4   6     0.01   0.02  -0.01     0.01   0.00   0.00     0.00   0.00   0.02
   5   1    -0.27   0.04  -0.66     0.01  -0.03  -0.00     0.06  -0.17  -0.04
   6   1    -0.09   0.47  -0.03     0.02  -0.00  -0.08    -0.00   0.01  -0.03
   7   1     0.01  -0.43  -0.11    -0.02   0.01  -0.01     0.08  -0.01   0.06
   8   1    -0.01  -0.00  -0.01    -0.01   0.05  -0.02    -0.35   0.85   0.19
   9   1    -0.03  -0.01   0.00    -0.27   0.06   0.92     0.03  -0.03  -0.06
  10   1    -0.02  -0.04   0.05    -0.01   0.00  -0.01    -0.00   0.00   0.00
  11   1    -0.04  -0.01  -0.01    -0.00   0.00   0.01     0.01   0.01  -0.07
  12   1     0.05  -0.03  -0.00    -0.01  -0.01   0.00    -0.02  -0.02   0.01
                     25                     26                     27
                        a                      a                      a 
 Frequencies --  3020.1872              3023.6733              3026.8551
 Red. masses --     1.0553                 1.0812                 1.0835
 Frc consts  --     0.0000                 0.0000                 0.0000
 IR Inten    --     9.5528                36.1759                 8.5926
 Raman Activ --     0.0000                 0.0000                 0.0000
 Depolar     --     0.0000                 0.0000                 0.0000
 Atom AN      X      Y      Z        X      Y      Z        X      Y      Z
   1   6     0.03  -0.02   0.01     0.22  -0.08   0.13     0.00  -0.04  -0.03
   2   6    -0.00   0.01  -0.00     0.02  -0.04   0.00     0.00  -0.01  -0.00
   3  16    -0.00   0.00   0.00     0.00  -0.00  -0.00    -0.00   0.00   0.00
   4   6    -0.01   0.01   0.22     0.01   0.01  -0.03     0.14   0.20  -0.11
   5   1    -0.03   0.07   0.02    -0.04   0.16   0.06    -0.06   0.15   0.03
   6   1     0.00  -0.00   0.02     0.04  -0.02  -0.03    -0.01  -0.00   0.03
   7   1    -0.09   0.01  -0.06    -0.77   0.13  -0.49     0.07  -0.02   0.04
   8   1     0.02  -0.04  -0.01    -0.05   0.13   0.03    -0.01   0.01   0.00
   9   1    -0.01   0.00   0.01     0.01  -0.01  -0.03     0.00  -0.00  -0.00
  10   1     0.08  -0.01   0.07    -0.00   0.00  -0.01     0.03   0.03  -0.01
  11   1     0.08   0.15  -0.91    -0.01  -0.02   0.12     0.00  -0.01   0.22
  12   1    -0.13  -0.19   0.08    -0.01  -0.01  -0.00    -0.52  -0.74   0.18
                     28                     29                     30
                        a                      a                      a 
 Frequencies --  3037.1315              3043.9945              3064.0323
 Red. masses --     1.0754                 1.0572                 1.0779
 Frc consts  --     0.0000                 0.0000                 0.0000
 IR Inten    --    31.9090                15.8815                 5.1307
 Raman Activ --     0.0000                 0.0000                 0.0000
 Depolar     --     0.0000                 0.0000                 0.0000
 Atom AN      X      Y      Z        X      Y      Z        X      Y      Z
   1   6    -0.06   0.21   0.13    -0.05  -0.03   0.22     0.00  -0.00  -0.00
   2   6    -0.02   0.05   0.02    -0.01  -0.00   0.02     0.00  -0.00  -0.00
   3  16    -0.00   0.00   0.00    -0.00   0.00  -0.00    -0.00   0.00  -0.00
   4   6     0.02   0.04  -0.01    -0.00  -0.00   0.00    -0.23   0.01  -0.13
   5   1     0.33  -0.80  -0.17    -0.09   0.20   0.08    -0.00   0.01   0.00
   6   1     0.04   0.01  -0.20     0.20  -0.06  -0.91    -0.00   0.00   0.01
   7   1    -0.17   0.06  -0.08     0.08  -0.02   0.08     0.01  -0.00   0.00
   8   1     0.06  -0.15  -0.03    -0.00   0.00   0.00    -0.01   0.01   0.00
   9   1     0.01   0.00  -0.04     0.02  -0.01  -0.07    -0.00   0.00   0.02
  10   1     0.02   0.00   0.01     0.01  -0.00   0.00     0.87  -0.08   0.41
  11   1     0.01   0.00  -0.01     0.00   0.00  -0.01    -0.04  -0.01   0.07
  12   1    -0.10  -0.15   0.04     0.01   0.01  -0.00    -0.01   0.03  -0.03
