      -----------------------------------------------------------      
     |                   =====================                   |     
     |                           x T B                           |     
     |                   =====================                   |     
     |                         S. Grimme                         |     
     |          Mulliken Center for Theoretical Chemistry        |     
     |                    University of Bonn                     |     
      -----------------------------------------------------------      

   * xtb version 6.7.1 (41059b4) compiled by 'michael@archlinux' on 2025-03-24

   xtb is free software: you can redistribute it and/or modify it under
   the terms of the GNU Lesser General Public License as published by
   the Free Software Foundation, either version 3 of the License, or
   (at your option) any later version.
   
   xtb is distributed in the hope that it will be useful,
   but WITHOUT ANY WARRANTY; without even the implied warranty of
   MERCHANTABILITY or FITNESS FOR A PARTICULAR PURPOSE.  See the
   GNU Lesser General Public License for more details.
   
   Cite this work as:
   * C. Bannwarth, E. Caldeweyher, S. Ehlert, A. Hansen, P. Pracht,
     J. Seibert, S. Spicher, S. Grimme, WIREs Comput. Mol. Sci., 2020, 11,
     e01493. DOI: 10.1002/wcms.1493
   
   for GFN2-xTB:
   * C. Bannwarth, S. Ehlert and S. Grimme., J. Chem. Theory Comput., 2019,
     15, 1652-1671. DOI: 10.1021/acs.jctc.8b01176
   for GFN1-xTB:
   * S. Grimme, C. Bannwarth, P. Shushkov, J. Chem. Theory Comput., 2017,
     13, 1989-2009. DOI: 10.1021/acs.jctc.7b00118
   for GFN0-xTB:
   * P. Pracht, E. Caldeweyher, S. Ehlert, S. Grimme, ChemRxiv, 2019, preprint.
     DOI: 10.26434/chemrxiv.8326202.v1
   for GFN-FF:
   * S. Spicher and S. Grimme, Angew. Chem. Int. Ed., 2020, 59, 15665-15673.
     DOI: 10.1002/anie.202004239
   
   for ALPB and GBSA implicit solvation:
   * S. Ehlert, M. Stahn, S. Spicher, S. Grimme, J. Chem. Theory Comput.,
     2021, 17, 4250-4261. DOI: 10.1021/acs.jctc.1c00471
   
   for ddCOSMO and CPCM-X implicit solvation:
   * M. Stahn, S. Ehlert, S. Grimme, J. Phys. Chem. A,
     2023, XX, XXXX-XXXX. DOI: 10.1021/acs.jpca.3c04382
   
   for DFT-D4:
   * E. Caldeweyher, C. Bannwarth and S. Grimme, J. Chem. Phys., 2017,
     147, 034112. DOI: 10.1063/1.4993215
   * E. Caldeweyher, S. Ehlert, A. Hansen, H. Neugebauer, S. Spicher,
     C. Bannwarth and S. Grimme, J. Chem. Phys., 2019, 150, 154122.
     DOI: 10.1063/1.5090222
   * E. Caldeweyher, J.-M. Mewes, S. Ehlert and S. Grimme, Phys. Chem. Chem. Phys.
     2020, 22, 8499-8512. DOI: 10.1039/D0CP00502A
   
   for sTDA-xTB:
   * S. Grimme and C. Bannwarth, J. Chem. Phys., 2016, 145, 054103.
     DOI: 10.1063/1.4959605
   
   in the mass-spec context:
   * V. Asgeirsson, C. Bauer and S. Grimme, Chem. Sci., 2017, 8, 4879.
     DOI: 10.1039/c7sc00601b
   * J. Koopman and S. Grimme, ACS Omega 2019, 4, 12, 15120-15133.
     DOI: 10.1021/acsomega.9b02011
   
   for metadynamics refer to:
   * S. Grimme, J. Chem. Theory Comput., 2019, 155, 2847-2862
     DOI: 10.1021/acs.jctc.9b00143
   
   for SPH calculations refer to:
   * S. Spicher and S. Grimme, J. Chem. Theory Comput., 2021, 17, 1701-1714
     DOI: 10.1021/acs.jctc.0c01306
   
   for ONIOM refer to:
   * C. Plett, A. Katbashev, S. Ehlert, S. Grimme, M. Bursch,
     Phys. Chem. Chem. Phys., 2023, 25, 17860-17868. DOI: 10.1039/D3CP02178E
   
   for DIPRO refer to:
   * J. Kohn, N. Gildemeister, S. Grimme, D. Fazzi, A. Hansen,
     J. Chem. Phys., 2023, just accepted.
   
   for PTB refer to:
   * S. Grimme, M. Mueller, A. Hansen, J. Chem. Phys., 2023, 158, 124111.
     DOI: 10.1063/5.0137838
   
   with help from (in alphabetical order)
   P. Atkinson, C. Bannwarth, F. Bohle, G. Brandenburg, E. Caldeweyher
   M. Checinski, S. Dohm, S. Ehlert, S. Ehrlich, I. Gerasimov, C. Hölzer
   A. Katbashev, J. Kohn, J. Koopman, C. Lavigne, S. Lehtola, F. März, M. Müller,
   F. Musil, H. Neugebauer, J. Pisarek, C. Plett, P. Pracht, F. Pultar,
   J. Seibert, P. Shushkov, S. Spicher, M. Stahn, M. Steiner, T. Strunk,
   J. Stückrath, T. Rose, and J. Unsleber
   
 * started run on 2025/04/09 at 03:06:53.217     
   ID    Z sym.   atoms
    1    6 C      1, 2, 4
    2   16 S      3
    3    1 H      5-12

           -------------------------------------------------
          |                Calculation Setup                |
           -------------------------------------------------

          program call               : /usr/bin/xtb xtb_rrho.coord --gfn2 --ohess vtight --chrg 0 --enso --norestart -I rrho-xcontrol-inp --parallel 1
          coordinate file            : xtb_rrho.coord
          omp threads                :                     1


           -------------------------------------------------
          |                 G F N 2 - x T B                 |
           -------------------------------------------------

        Reference                      10.1021/acs.jctc.8b01176
      * Hamiltonian:
        H0-scaling (s, p, d)           1.850000    2.230000    2.230000
        zeta-weighting                 0.500000
      * Dispersion:
        s8                             2.700000
        a1                             0.520000
        a2                             5.000000
        s9                             5.000000
      * Repulsion:
        kExp                           1.500000    1.000000
        rExp                           1.000000
      * Coulomb:
        alpha                          2.000000
        third order                    shell-resolved
        anisotropic                    true
        a3                             3.000000
        a5                             4.000000
        cn-shift                       1.200000
        cn-exp                         4.000000
        max-rad                        5.000000


          ...................................................
          :                      SETUP                      :
          :.................................................:
          :  # basis functions                  30          :
          :  # atomic orbitals                  29          :
          :  # shells                           17          :
          :  # electrons                        26          :
          :  max. iterations                   250          :
          :  Hamiltonian                  GFN2-xTB          :
          :  restarted?                      false          :
          :  GBSA solvation                  false          :
          :  PC potential                    false          :
          :  electronic temp.          300.0000000     K    :
          :  accuracy                    1.0000000          :
          :  -> integral cutoff          0.2500000E+02      :
          :  -> integral neglect         0.1000000E-07      :
          :  -> SCF convergence          0.1000000E-05 Eh   :
          :  -> wf. convergence          0.1000000E-03 e    :
          :  Broyden damping             0.4000000          :
          :  net charge                          0          :
          :  unpaired electrons                  0          :
          ...................................................

 iter      E             dE          RMSdq      gap      omega  full diag
   1    -13.8555038 -0.138555E+02  0.388E+00    5.09       0.0  T
   2    -13.8922653 -0.367615E-01  0.209E+00    4.51       1.0  T
   3    -13.8937193 -0.145402E-02  0.880E-01    4.38       1.0  T
   4    -13.8941331 -0.413737E-03  0.315E-01    4.25       1.0  T
   5    -13.8941471 -0.140936E-04  0.124E-01    4.25       1.0  T
   6    -13.8941697 -0.225517E-04  0.376E-02    4.26       1.0  T
   7    -13.8941706 -0.893920E-06  0.162E-02    4.26       1.8  T
   8    -13.8941707 -0.147296E-06  0.323E-03    4.26       8.9  T
   9    -13.8941707 -0.647400E-08  0.649E-04    4.26      44.5  T
  10    -13.8941707 -0.167994E-09  0.288E-04    4.26     100.3  T

   *** convergence criteria satisfied after 10 iterations ***

         #    Occupation            Energy/Eh            Energy/eV
      -------------------------------------------------------------
         1        2.0000           -0.7035145             -19.1436
       ...           ...                  ...                  ...
         7        2.0000           -0.4980459             -13.5525
         8        2.0000           -0.4893058             -13.3147
         9        2.0000           -0.4798586             -13.0576
        10        2.0000           -0.4666319             -12.6977
        11        2.0000           -0.4453201             -12.1178
        12        2.0000           -0.4353648             -11.8469
        13        2.0000           -0.3543529              -9.6424 (HOMO)
        14                         -0.1979532              -5.3866 (LUMO)
        15                         -0.1368112              -3.7228
        16                         -0.0022542              -0.0613
        17                          0.0068532               0.1865
        18                          0.0220046               0.5988
       ...                                ...                  ...
        29                          0.4043537              11.0030
      -------------------------------------------------------------
                  HL-Gap            0.1563997 Eh            4.2559 eV
             Fermi-level           -0.2761531 Eh           -7.5145 eV

 SCC (total)                   0 d,  0 h,  0 min,  0.004 sec
 SCC setup                      ...        0 min,  0.000 sec (  1.356%)
 Dispersion                     ...        0 min,  0.000 sec (  0.740%)
 classical contributions        ...        0 min,  0.000 sec (  0.251%)
 integral evaluation            ...        0 min,  0.001 sec ( 13.448%)
 iterations                     ...        0 min,  0.002 sec ( 53.204%)
 molecular gradient             ...        0 min,  0.001 sec ( 28.675%)
 printout                       ...        0 min,  0.000 sec (  2.156%)

         :::::::::::::::::::::::::::::::::::::::::::::::::::::
         ::                     SUMMARY                     ::
         :::::::::::::::::::::::::::::::::::::::::::::::::::::
         :: total energy             -13.736163461915 Eh    ::
         :: gradient norm              0.018405183971 Eh/a0 ::
         :: HOMO-LUMO gap              4.255852649137 eV    ::
         ::.................................................::
         :: SCC energy               -13.894165071291 Eh    ::
         :: -> isotropic ES            0.004192090679 Eh    ::
         :: -> anisotropic ES          0.003022356162 Eh    ::
         :: -> anisotropic XC          0.011165672529 Eh    ::
         :: -> dispersion             -0.006185593006 Eh    ::
         :: repulsion energy           0.158001609376 Eh    ::
         :: add. restraining           0.000000000000 Eh    ::
         :: total charge              -0.000000000000 e     ::
         :::::::::::::::::::::::::::::::::::::::::::::::::::::

      ----------------------------------------------------------- 
     |                   =====================                   |
     |                        A N C O P T                        |
     |                   =====================                   |
     |               Approximate Normal Coordinate               |
     |                Rational Function Optimizer                |
      ----------------------------------------------------------- 

          ...................................................
          :                      SETUP                      :
          :.................................................:
          :   optimization level         verytight          :
          :   max. optcycles                   240          :
          :   ANC micro-cycles                  20          :
          :   degrees of freedom                30          :
          :.................................................:
          :   RF solver                   davidson          :
          :   write xtbopt.log                true          :
          :   linear?                        false          :
          :   energy convergence         0.1000000E-06 Eh   :
          :   grad. convergence          0.2000000E-03 Eh/α :
          :   maximum RF displ.          1.0000000          :
          :   Hlow (freq-cutoff)         0.1000000E-01      :
          :   Hmax (freq-cutoff)         5.0000000          :
          :   S6 in model hess.         20.0000000          :
          ...................................................

generating ANC from exact Hessian ...
Using Lindh-Hessian (1995)
 Shifting diagonal of input Hessian by    8.0332216805245726E-003
 Lowest  eigenvalues of input Hessian
    0.000000    0.000000    0.000000    0.000000    0.000000    0.000000
    0.010000    0.011725    0.012937    0.019217    0.027064    0.045310
    0.051767    0.056967    0.057610    0.073188    0.080271    0.094986
 Highest eigenvalues
    1.024315    1.080968    1.084999    1.111906    1.138363    1.219739


........................................................................
.............................. CYCLE    1 ..............................
........................................................................

 iter      E             dE          RMSdq      gap      omega  full diag
   1    -13.8941707 -0.138942E+02  0.487E-05    4.26       0.0  T
   2    -13.8941707 -0.234124E-11  0.283E-05    4.26    1021.5  T
   3    -13.8941707 -0.243361E-12  0.145E-05    4.26    1989.2  T
     SCC iter.                  ...        0 min,  0.001 sec
     gradient                   ...        0 min,  0.001 sec
 * total energy  :   -13.7361635 Eh     change       -0.1099991E-09 Eh
   gradient norm :     0.0184062 Eh/α   predicted     0.0000000E+00 (-100.00%)
   displ. norm   :     0.1074381 α      lambda       -0.1434899E-02
   maximum displ.:     0.0399381 α      in ANC's #5, #18, #10, ...

........................................................................
.............................. CYCLE    2 ..............................
........................................................................

 iter      E             dE          RMSdq      gap      omega  full diag
   1    -13.9012860 -0.139013E+02  0.204E-01    4.38       0.0  T
   2    -13.9012916 -0.563333E-05  0.116E-01    4.37       1.0  T
   3    -13.9012923 -0.666797E-06  0.156E-02    4.37       1.9  T
   4    -13.9012928 -0.548126E-06  0.702E-03    4.37       4.1  T
   5    -13.9012929 -0.339312E-07  0.168E-03    4.37      17.1  T
   6    -13.9012929 -0.515212E-08  0.764E-04    4.37      37.8  T
   7    -13.9012929 -0.230576E-09  0.245E-04    4.37     117.8  T
     SCC iter.                  ...        0 min,  0.001 sec
     gradient                   ...        0 min,  0.001 sec
 * total energy  :   -13.7369251 Eh     change       -0.7616643E-03 Eh
   gradient norm :     0.0043736 Eh/α   predicted    -0.7257316E-03 (  -4.72%)
   displ. norm   :     0.0688838 α      lambda       -0.1368135E-03
   maximum displ.:     0.0465981 α      in ANC's #4, #3, #7, ...

........................................................................
.............................. CYCLE    3 ..............................
........................................................................

 iter      E             dE          RMSdq      gap      omega  full diag
   1    -13.9037122 -0.139037E+02  0.577E-02    4.34       0.0  T
   2    -13.9037139 -0.165110E-05  0.279E-02    4.34       1.0  T
   3    -13.9037140 -0.137141E-06  0.841E-03    4.34       3.4  T
   4    -13.9037141 -0.445227E-07  0.376E-03    4.34       7.7  T
   5    -13.9037141 -0.524777E-08  0.114E-03    4.34      25.4  T
   6    -13.9037141 -0.173322E-08  0.529E-04    4.34      54.5  T
   7    -13.9037141 -0.692904E-10  0.154E-04    4.34     186.9  T
     SCC iter.                  ...        0 min,  0.001 sec
     gradient                   ...        0 min,  0.001 sec
 * total energy  :   -13.7369890 Eh     change       -0.6386257E-04 Eh
   gradient norm :     0.0016253 Eh/α   predicted    -0.6873158E-04 (   7.62%)
   displ. norm   :     0.0292342 α      lambda       -0.1395032E-04
   maximum displ.:     0.0193467 α      in ANC's #4, #3, #5, ...

........................................................................
.............................. CYCLE    4 ..............................
........................................................................

 iter      E             dE          RMSdq      gap      omega  full diag
   1    -13.9038040 -0.139038E+02  0.377E-02    4.34       0.0  T
   2    -13.9038042 -0.140514E-06  0.189E-02    4.35       1.5  T
   3    -13.9038042 -0.301785E-07  0.321E-03    4.35       9.0  T
   4    -13.9038042 -0.468885E-09  0.494E-04    4.35      58.4  T
   5    -13.9038042 -0.408150E-09  0.125E-04    4.35     231.0  T
     SCC iter.                  ...        0 min,  0.001 sec
     gradient                   ...        0 min,  0.001 sec
 * total energy  :   -13.7370010 Eh     change       -0.1199489E-04 Eh
   gradient norm :     0.0006267 Eh/α   predicted    -0.6978153E-05 ( -41.82%)
   displ. norm   :     0.0284016 α      lambda       -0.4465758E-05
   maximum displ.:     0.0245139 α      in ANC's #4, #2, #3, ...

........................................................................
.............................. CYCLE    5 ..............................
........................................................................

 iter      E             dE          RMSdq      gap      omega  full diag
   1    -13.9035279 -0.139035E+02  0.232E-02    4.34       0.0  T
   2    -13.9035279 -0.739683E-07  0.112E-02    4.34       2.6  T
   3    -13.9035280 -0.153560E-07  0.191E-03    4.34      15.1  T
   4    -13.9035280 -0.697099E-09  0.892E-04    4.34      32.4  T
   5    -13.9035280 -0.106278E-08  0.160E-04    4.34     180.0  T
     SCC iter.                  ...        0 min,  0.001 sec
     gradient                   ...        0 min,  0.001 sec
 * total energy  :   -13.7370048 Eh     change       -0.3771310E-05 Eh
   gradient norm :     0.0003444 Eh/α   predicted    -0.2232302E-05 ( -40.81%)
   displ. norm   :     0.0207702 α      lambda       -0.1581981E-05
   maximum displ.:     0.0137995 α      in ANC's #4, #2, #3, ...

........................................................................
.............................. CYCLE    6 ..............................
........................................................................

 iter      E             dE          RMSdq      gap      omega  full diag
   1    -13.9035186 -0.139035E+02  0.857E-03    4.34       0.0  T
   2    -13.9035186 -0.525687E-08  0.469E-03    4.34       6.2  T
   3    -13.9035186 -0.125840E-08  0.777E-04    4.34      37.1  T
   4    -13.9035186 -0.444427E-10  0.171E-04    4.34     168.9  T
     SCC iter.                  ...        0 min,  0.001 sec
     gradient                   ...        0 min,  0.001 sec
 * total energy  :   -13.7370065 Eh     change       -0.1744215E-05 Eh
   gradient norm :     0.0002549 Eh/α   predicted    -0.7900924E-06 ( -54.70%)
   displ. norm   :     0.0294685 α      lambda       -0.1557481E-05
   maximum displ.:     0.0172904 α      in ANC's #2, #3, #4, ...

........................................................................
.............................. CYCLE    7 ..............................
........................................................................

 iter      E             dE          RMSdq      gap      omega  full diag
   1    -13.9035546 -0.139036E+02  0.904E-03    4.34       0.0  T
   2    -13.9035546 -0.633597E-08  0.527E-03    4.34       5.5  T
   3    -13.9035546 -0.116552E-08  0.750E-04    4.34      38.5  T
   4    -13.9035546 -0.332397E-09  0.269E-04    4.34     107.4  T
     SCC iter.                  ...        0 min,  0.001 sec
     gradient                   ...        0 min,  0.001 sec
 * total energy  :   -13.7370079 Eh     change       -0.1417653E-05 Eh
   gradient norm :     0.0001695 Eh/α   predicted    -0.7793691E-06 ( -45.02%)
   displ. norm   :     0.0149891 α      lambda       -0.4107148E-06
   maximum displ.:     0.0096480 α      in ANC's #1, #3, #2, ...

........................................................................
.............................. CYCLE    8 ..............................
........................................................................

 iter      E             dE          RMSdq      gap      omega  full diag
   1    -13.9035711 -0.139036E+02  0.759E-03    4.34       0.0  T
   2    -13.9035712 -0.576470E-08  0.388E-03    4.34       7.4  T
   3    -13.9035712 -0.120595E-08  0.722E-04    4.34      40.0  T
   4    -13.9035712 -0.279385E-10  0.288E-04    4.34     100.2  T
     SCC iter.                  ...        0 min,  0.001 sec
     gradient                   ...        0 min,  0.001 sec
 * total energy  :   -13.7370084 Eh     change       -0.4348600E-06 Eh
   gradient norm :     0.0000951 Eh/α   predicted    -0.2037246E-06 ( -53.15%)
   displ. norm   :     0.0088456 α      lambda       -0.2190438E-06
   maximum displ.:     0.0080900 α      in ANC's #1, #3, #4, ...

........................................................................
.............................. CYCLE    9 ..............................
........................................................................

 iter      E             dE          RMSdq      gap      omega  full diag
   1    -13.9035867 -0.139036E+02  0.646E-03    4.34       0.0  T
   2    -13.9035867 -0.488318E-08  0.306E-03    4.34       9.4  T
   3    -13.9035867 -0.110519E-08  0.477E-04    4.34      60.6  T
   4    -13.9035867  0.706102E-11  0.882E-05    4.34     327.2  T
     SCC iter.                  ...        0 min,  0.001 sec
     gradient                   ...        0 min,  0.001 sec
 * total energy  :   -13.7370087 Eh     change       -0.3004026E-06 Eh
   gradient norm :     0.0000644 Eh/α   predicted    -0.1107438E-06 ( -63.13%)
   displ. norm   :     0.0063917 α      lambda       -0.1727882E-06
   maximum displ.:     0.0060315 α      in ANC's #1, #2, #4, ...

........................................................................
.............................. CYCLE   10 ..............................
........................................................................

 iter      E             dE          RMSdq      gap      omega  full diag
   1    -13.9035879 -0.139036E+02  0.557E-03    4.34       0.0  T
   2    -13.9035879 -0.368680E-08  0.262E-03    4.34      11.0  T
   3    -13.9035879 -0.832658E-09  0.387E-04    4.34      74.6  T
   4    -13.9035879  0.907718E-12  0.533E-05    4.34     541.1  T
     SCC iter.                  ...        0 min,  0.001 sec
     gradient                   ...        0 min,  0.001 sec
 * total energy  :   -13.7370089 Eh     change       -0.2351686E-06 Eh
   gradient norm :     0.0000644 Eh/α   predicted    -0.8707582E-07 ( -62.97%)
   displ. norm   :     0.0055821 α      lambda       -0.1331481E-06
   maximum displ.:     0.0053913 α      in ANC's #1, #2, #3, ...

........................................................................
.............................. CYCLE   11 ..............................
........................................................................

 iter      E             dE          RMSdq      gap      omega  full diag
   1    -13.9035789 -0.139036E+02  0.427E-03    4.34       0.0  T
   2    -13.9035789 -0.227838E-08  0.199E-03    4.34      14.5  T
   3    -13.9035789 -0.487278E-09  0.292E-04    4.34      98.9  T
   4    -13.9035789 -0.371259E-12  0.124E-04    4.34     233.4  T
     SCC iter.                  ...        0 min,  0.001 sec
     gradient                   ...        0 min,  0.001 sec
 * total energy  :   -13.7370091 Eh     change       -0.1771478E-06 Eh
   gradient norm :     0.0000432 Eh/α   predicted    -0.6553005E-07 ( -63.01%)
   displ. norm   :     0.0047363 α      lambda       -0.9189102E-07
   maximum displ.:     0.0046754 α      in ANC's #1, #4, #3, ...

........................................................................
.............................. CYCLE   12 ..............................
........................................................................

 iter      E             dE          RMSdq      gap      omega  full diag
   1    -13.9035761 -0.139036E+02  0.345E-03    4.34       0.0  T
   2    -13.9035761 -0.138357E-08  0.164E-03    4.34      17.6  T
   3    -13.9035761 -0.303634E-09  0.259E-04    4.34     111.6  T
   4    -13.9035761  0.628297E-11  0.829E-05    4.34     348.4  T
     SCC iter.                  ...        0 min,  0.001 sec
     gradient                   ...        0 min,  0.001 sec
 * total energy  :   -13.7370092 Eh     change       -0.1328060E-06 Eh
   gradient norm :     0.0000311 Eh/α   predicted    -0.4720654E-07 ( -64.45%)
   displ. norm   :     0.0043873 α      lambda       -0.8009985E-07
   maximum displ.:     0.0042075 α      in ANC's #1, #4, #2, ...

........................................................................
.............................. CYCLE   13 ..............................
........................................................................

 iter      E             dE          RMSdq      gap      omega  full diag
   1    -13.9035732 -0.139036E+02  0.271E-03    4.34       0.0  T
   2    -13.9035732 -0.836463E-09  0.129E-03    4.34      22.4  T
   3    -13.9035732 -0.185857E-09  0.208E-04    4.34     138.9  T
   4    -13.9035732  0.343903E-11  0.505E-05    4.34     571.4  T
     SCC iter.                  ...        0 min,  0.001 sec
     gradient                   ...        0 min,  0.001 sec
 * total energy  :   -13.7370093 Eh     change       -0.1139557E-06 Eh
   gradient norm :     0.0000335 Eh/α   predicted    -0.3930176E-07 ( -65.51%)
   displ. norm   :     0.0046688 α      lambda       -0.7746515E-07
   maximum displ.:     0.0042610 α      in ANC's #1, #2, #4, ...

........................................................................
.............................. CYCLE   14 ..............................
........................................................................

 iter      E             dE          RMSdq      gap      omega  full diag
   1    -13.9035743 -0.139036E+02  0.259E-03    4.34       0.0  T
   2    -13.9035743 -0.716657E-09  0.126E-03    4.34      23.0  T
   3    -13.9035743 -0.159901E-09  0.216E-04    4.34     133.9  T
   4    -13.9035743  0.326494E-11  0.481E-05    4.34     600.4  T
     SCC iter.                  ...        0 min,  0.001 sec
     gradient                   ...        0 min,  0.001 sec
 * total energy  :   -13.7370094 Eh     change       -0.1139618E-06 Eh
   gradient norm :     0.0000332 Eh/α   predicted    -0.3916918E-07 ( -65.63%)
   displ. norm   :     0.0051738 α      lambda       -0.8286491E-07
   maximum displ.:     0.0046078 α      in ANC's #1, #2, #3, ...

........................................................................
.............................. CYCLE   15 ..............................
........................................................................

 iter      E             dE          RMSdq      gap      omega  full diag
   1    -13.9035762 -0.139036E+02  0.263E-03    4.34       0.0  T
   2    -13.9035762 -0.712360E-09  0.129E-03    4.34      22.4  T
   3    -13.9035762 -0.162540E-09  0.229E-04    4.34     126.3  T
   4    -13.9035762 -0.125056E-11  0.207E-05    4.34    1392.7  T
     SCC iter.                  ...        0 min,  0.001 sec
     gradient                   ...        0 min,  0.001 sec
 * total energy  :   -13.7370095 Eh     change       -0.1186533E-06 Eh
   gradient norm :     0.0000267 Eh/α   predicted    -0.4108746E-07 ( -65.37%)
   displ. norm   :     0.0055708 α      lambda       -0.8593197E-07
   maximum displ.:     0.0049289 α      in ANC's #1, #2, #4, ...

........................................................................
.............................. CYCLE   16 ..............................
........................................................................

 iter      E             dE          RMSdq      gap      omega  full diag
   1    -13.9035787 -0.139036E+02  0.274E-03    4.34       0.0  T
   2    -13.9035787 -0.755046E-09  0.135E-03    4.34      21.4  T
   3    -13.9035787 -0.170470E-09  0.243E-04    4.34     118.7  T
   4    -13.9035787  0.134115E-11  0.407E-05    4.34     709.8  T
     SCC iter.                  ...        0 min,  0.001 sec
     gradient                   ...        0 min,  0.001 sec
 * total energy  :   -13.7370097 Eh     change       -0.1185738E-06 Eh
   gradient norm :     0.0000230 Eh/α   predicted    -0.4133855E-07 ( -65.14%)
   displ. norm   :     0.0056101 α      lambda       -0.7489079E-07
   maximum displ.:     0.0049675 α      in ANC's #1, #2, #5, ...

........................................................................
.............................. CYCLE   17 ..............................
........................................................................

 iter      E             dE          RMSdq      gap      omega  full diag
   1    -13.9035798 -0.139036E+02  0.265E-03    4.34       0.0  T
   2    -13.9035798 -0.689134E-09  0.131E-03    4.34      22.0  T
   3    -13.9035798 -0.155477E-09  0.240E-04    4.34     120.2  T
   4    -13.9035798  0.149569E-11  0.412E-05    4.34     700.8  T
     SCC iter.                  ...        0 min,  0.001 sec
     gradient                   ...        0 min,  0.001 sec
 * total energy  :   -13.7370098 Eh     change       -0.1101739E-06 Eh
   gradient norm :     0.0000231 Eh/α   predicted    -0.3847597E-07 ( -65.08%)
   displ. norm   :     0.0053022 α      lambda       -0.6550272E-07
   maximum displ.:     0.0047265 α      in ANC's #1, #2, #3, ...

........................................................................
.............................. CYCLE   18 ..............................
........................................................................

 iter      E             dE          RMSdq      gap      omega  full diag
   1    -13.9035801 -0.139036E+02  0.254E-03    4.34       0.0  T
   2    -13.9035801 -0.647054E-09  0.126E-03    4.34      23.0  T
   3    -13.9035801 -0.143999E-09  0.229E-04    4.34     125.8  T
   4    -13.9035801  0.233769E-11  0.499E-05    4.34     578.6  T
     SCC iter.                  ...        0 min,  0.001 sec
     gradient                   ...        0 min,  0.001 sec
 * total energy  :   -13.7370099 Eh     change       -0.9602513E-07 Eh
   gradient norm :     0.0000220 Eh/α   predicted    -0.3359042E-07 ( -65.02%)
   displ. norm   :     0.0047624 α      lambda       -0.5881772E-07
   maximum displ.:     0.0042922 α      in ANC's #1, #2, #3, ...

   *** GEOMETRY OPTIMIZATION CONVERGED AFTER 18 ITERATIONS ***

------------------------------------------------------------------------
 total energy gain   :        -0.0008464 Eh       -0.5311 kcal/mol
 total RMSD          :         0.0644446 a0        0.0341 Å
 total power (kW/mol):        -0.1234578 (step)  -45.9381 (real)
------------------------------------------------------------------------

 ANCopt (total)                0 d,  0 h,  0 min,  0.048 sec
 optimizer setup                ...        0 min,  0.000 sec (  0.080%)
 model hessian                  ...        0 min,  0.001 sec (  1.822%)
 ANC generation                 ...        0 min,  0.000 sec (  0.239%)
 coordinate transformation      ...        0 min,  0.000 sec (  0.084%)
 single point calculation       ...        0 min,  0.045 sec ( 92.562%)
 optimization log               ...        0 min,  0.001 sec (  1.181%)
 hessian update                 ...        0 min,  0.000 sec (  0.124%)
 rational function              ...        0 min,  0.001 sec (  1.302%)

================
 final structure:
================
$coord
       -3.61466051116743       -1.02403817693569       -0.18174005620834      C
       -1.69807566428907        0.99852917351350       -0.85450619421198      C
        1.17881377319501        0.81374468152758        1.04009723140493      S
        2.64614825132435       -1.95499393128356       -0.35520014564059      C
       -2.88839448871919       -2.90021288376636       -0.60385808822711      H
       -4.07052410106596       -0.93212085861024        1.81999593633187      H
       -5.33944250533549       -0.74049464765336       -1.26568793083741      H
       -2.45150368527288        2.87530591171528       -0.46937456733772      H
       -1.14149264915866        0.89166996149896       -2.83599102934434      H
        4.49771454780195       -2.13234093957854        0.50627890461207      H
        2.83704946023692       -1.67780276513235       -2.38078886898765      H
        1.52865557699706       -3.62782590628990        0.05029670568870      H
$end

 Bond Distances (Angstroems)
 ---------------------------
C1-C2=1.5169         C1-H5=1.0878         C1-H6=1.0875         C1-H7=1.0884         C2-C1=1.5169         C2-S3=1.8255         
C2-H8=1.0894         C2-H9=1.0906         S3-C2=1.8255         S3-C4=1.8152         C4-S3=1.8152         C4-H10=1.0847        
C4-H11=1.0866        C4-H12=1.0860        H5-C1=1.0878         H6-C1=1.0875         H7-C1=1.0884         H8-C2=1.0894         
H9-C2=1.0906         H10-C4=1.0847        H11-C4=1.0866        H12-C4=1.0860        
 C  H  Rav=1.0876 sigma=0.0018  Rmin=1.0847  Rmax=1.0906     8
 C  C  Rav=1.5169 sigma=0.0000  Rmin=1.5169  Rmax=1.5169     1
 S  C  Rav=1.8203 sigma=0.0052  Rmin=1.8152  Rmax=1.8255     2

 selected bond angles (degree)
 --------------------
H5-C1-C2=111.07                H6-C1-C2=110.20                H6-C1-H5=108.62                H7-C1-C2=109.86                
H7-C1-H5=108.29                H7-C1-H6=108.73                S3-C2-C1=113.01                H8-C2-C1=110.77                
H8-C2-S3=104.55                H9-C2-C1=111.69                H9-C2-S3=107.46                H9-C2-H8=109.02                
C4-S3-C2=100.17                H10-C4-S3=106.58               H11-C4-S3=109.40               H11-C4-H10=110.02              
H12-C4-S3=110.16               H12-C4-H10=109.77              H12-C4-H11=110.83              

 selected dihedral angles (degree)
 ---------------------------------
S3-C2-C1-H5=295.62            S3-C2-C1-H6= 56.04            S3-C2-C1-H7=175.82            H8-C2-C1-H5=178.67            
H8-C2-C1-H6=299.09            H8-C2-C1-H7= 58.88            H9-C2-C1-H5= 56.93            H9-C2-C1-H6=177.35            
H9-C2-C1-H7=297.14            C4-S3-C2-C1= 73.52            C4-S3-C2-H8=194.07            C4-S3-C2-H9=309.83            
H10-C4-S3-C2=174.09           H11-C4-S3-C2= 55.18           H12-C4-S3-C2=293.12           
           -------------------------------------------------
          |                Final Singlepoint                |
           -------------------------------------------------

          ...................................................
          :                      SETUP                      :
          :.................................................:
          :  # basis functions                  30          :
          :  # atomic orbitals                  29          :
          :  # shells                           17          :
          :  # electrons                        26          :
          :  max. iterations                   250          :
          :  Hamiltonian                  GFN2-xTB          :
          :  restarted?                      false          :
          :  GBSA solvation                  false          :
          :  PC potential                    false          :
          :  electronic temp.          300.0000000     K    :
          :  accuracy                    1.0000000          :
          :  -> integral cutoff          0.2500000E+02      :
          :  -> integral neglect         0.1000000E-07      :
          :  -> SCF convergence          0.1000000E-05 Eh   :
          :  -> wf. convergence          0.1000000E-03 e    :
          :  Broyden damping             0.4000000          :
          :  net charge                          0          :
          :  unpaired electrons                  0          :
          ...................................................

 iter      E             dE          RMSdq      gap      omega  full diag
   1    -13.9035801 -0.139036E+02  0.911E-06    4.34       0.0  T
   2    -13.9035801 -0.426326E-13  0.425E-06    4.34    6785.8  T
   3    -13.9035801  0.124345E-13  0.185E-06    4.34   15585.7  T

   *** convergence criteria satisfied after 3 iterations ***

         #    Occupation            Energy/Eh            Energy/eV
      -------------------------------------------------------------
         1        2.0000           -0.7046891             -19.1756
       ...           ...                  ...                  ...
         7        2.0000           -0.5001896             -13.6109
         8        2.0000           -0.4901569             -13.3378
         9        2.0000           -0.4812984             -13.0968
        10        2.0000           -0.4670950             -12.7103
        11        2.0000           -0.4464250             -12.1478
        12        2.0000           -0.4346901             -11.8285
        13        2.0000           -0.3536633              -9.6237 (HOMO)
        14                         -0.1940492              -5.2803 (LUMO)
        15                         -0.1326697              -3.6101
        16                         -0.0008836              -0.0240
        17                          0.0081488               0.2217
        18                          0.0237615               0.6466
       ...                                ...                  ...
        29                          0.4221263              11.4866
      -------------------------------------------------------------
                  HL-Gap            0.1596141 Eh            4.3433 eV
             Fermi-level           -0.2738563 Eh           -7.4520 eV

 SCC (total)                   0 d,  0 h,  0 min,  0.002 sec
 SCC setup                      ...        0 min,  0.000 sec (  1.222%)
 Dispersion                     ...        0 min,  0.000 sec (  0.692%)
 classical contributions        ...        0 min,  0.000 sec (  0.316%)
 integral evaluation            ...        0 min,  0.001 sec ( 21.939%)
 iterations                     ...        0 min,  0.001 sec ( 25.501%)
 molecular gradient             ...        0 min,  0.001 sec ( 48.353%)
 printout                       ...        0 min,  0.000 sec (  1.685%)

         :::::::::::::::::::::::::::::::::::::::::::::::::::::
         ::                     SUMMARY                     ::
         :::::::::::::::::::::::::::::::::::::::::::::::::::::
         :: total energy             -13.737009868672 Eh    ::
         :: gradient norm              0.000022099973 Eh/a0 ::
         :: HOMO-LUMO gap              4.343320800812 eV    ::
         ::.................................................::
         :: SCC energy               -13.903574807365 Eh    ::
         :: -> isotropic ES            0.004387144578 Eh    ::
         :: -> anisotropic ES          0.002586223858 Eh    ::
         :: -> anisotropic XC          0.011157472877 Eh    ::
         :: -> dispersion             -0.006213990869 Eh    ::
         :: repulsion energy           0.166564938693 Eh    ::
         :: add. restraining           0.000000000000 Eh    ::
         :: total charge              -0.000000000000 e     ::
         :::::::::::::::::::::::::::::::::::::::::::::::::::::

           ------------------------------------------------- 
          |                Numerical Hessian                |
           ------------------------------------------------- 
step length          :   0.00500
SCC accuracy         :   0.30000
Hessian scale factor :   1.00000
frozen atoms in %    :   0.00000    0
RMS gradient         :   0.00002
estimated CPU  time      0.00 min
estimated wall time      0.00 min

writing file <hessian>, containing the non-mass-weighted Hessian matrix in atomic units (Eₕ/Bohr²).

 projected vibrational frequencies (cm⁻¹)
eigval :       -0.00    -0.00    -0.00    -0.00     0.00     0.00
eigval :       67.88   148.61   202.92   258.12   328.23   674.85
eigval :      731.84   782.04   936.97   941.71  1015.65  1046.14
eigval :     1077.59  1229.96  1259.00  1316.56  1405.01  1444.03
eigval :     1450.52  1456.77  1491.66  1496.85  2971.68  3003.41
eigval :     3020.19  3023.67  3026.86  3037.13  3043.99  3064.03
           -------------------------------------------------
          |                Property Printout                |
           -------------------------------------------------

    * Orbital Energies and Occupations

         #    Occupation            Energy/Eh            Energy/eV
      -------------------------------------------------------------
         1        2.0000           -0.7046891             -19.1756
         2        2.0000           -0.6233991             -16.9636
         3        2.0000           -0.6022541             -16.3882
         4        2.0000           -0.5773720             -15.7111
         5        2.0000           -0.5210199             -14.1777
         6        2.0000           -0.5127396             -13.9524
         7        2.0000           -0.5001896             -13.6109
         8        2.0000           -0.4901569             -13.3378
         9        2.0000           -0.4812984             -13.0968
        10        2.0000           -0.4670950             -12.7103
        11        2.0000           -0.4464250             -12.1478
        12        2.0000           -0.4346901             -11.8285
        13        2.0000           -0.3536633              -9.6237 (HOMO)
        14                         -0.1940492              -5.2803 (LUMO)
        15                         -0.1326697              -3.6101
        16                         -0.0008836              -0.0240
        17                          0.0081488               0.2217
        18                          0.0237615               0.6466
        19                          0.1068495               2.9075
        20                          0.1271397               3.4596
        21                          0.1571742               4.2769
        22                          0.1762061               4.7948
        23                          0.1820551               4.9540
        24                          0.1999954               5.4422
       ...                                ...                  ...
        29                          0.4221263              11.4866
      -------------------------------------------------------------
                  HL-Gap            0.1596141 Eh            4.3433 eV
             Fermi-level           -0.2738563 Eh           -7.4520 eV

     #   Z          covCN         q      C6AA      α(0)
     1   6          3.775    -0.101    22.457     6.752
     2   6          3.793     0.001    20.580     6.460
     3  16          1.964    -0.220   150.441    20.644
     4   6          3.745    -0.047    21.482     6.612
     5   1          0.925     0.040     2.448     2.447
     6   1          0.925     0.049     2.327     2.385
     7   1          0.925     0.039     2.460     2.453
     8   1          0.925     0.050     2.323     2.383
     9   1          0.925     0.039     2.465     2.455
    10   1          0.925     0.057     2.231     2.336
    11   1          0.925     0.046     2.373     2.409
    12   1          0.925     0.047     2.359     2.402

 Mol. C6AA /au·bohr⁶  :       1475.074459
 Mol. C8AA /au·bohr⁸  :      41194.976066
 Mol. α(0) /au        :         59.738252


Wiberg/Mayer (AO) data.
largest (>0.10) Wiberg bond orders for each atom

 ---------------------------------------------------------------------------
     #   Z sym  total        # sym  WBO       # sym  WBO       # sym  WBO
 ---------------------------------------------------------------------------
     1   6      3.995 --     2      1.027     6      0.986     5      0.985
                             7      0.980
     2   6      3.981 --     1      1.027     3      0.988     9      0.976
                             8      0.973
     3  16      2.078 --     4      1.012     2      0.988
     4   6      3.982 --     3      1.012    11      0.985    12      0.984
                            10      0.982
     5   1      0.998 --     1      0.985
     6   1      0.998 --     1      0.986
     7   1      0.998 --     1      0.980
     8   1      0.998 --     2      0.973
     9   1      0.998 --     2      0.976
    10   1      0.997 --     4      0.982
    11   1      0.998 --     4      0.985
    12   1      0.998 --     4      0.984
 ---------------------------------------------------------------------------

Topologies differ in total number of bonds
Writing topology from bond orders to xtbtopo.mol

molecular dipole:
                 x           y           z       tot (Debye)
 q only:       -0.251      -0.366      -0.389
   full:       -0.365      -0.598      -0.694       2.507
molecular quadrupole (traceless):
                xx          xy          yy          xz          yz          zz
 q only:        1.299      -1.626      -0.028      -0.473      -0.401      -1.271
  q+dip:        1.104      -2.377      -0.144      -1.282      -1.248      -0.960
   full:        1.532      -2.783      -0.069      -0.879      -0.829      -1.463

           -------------------------------------------------
          |                Geometry Summary                 |
           -------------------------------------------------

      molecular mass/u    :       76.1605211
   center of mass at/Å    :       -0.0091230      -0.0417169       0.0793341
  moments of inertia/u·Å² :        0.5184101E+02   0.1303077E+03   0.1575347E+03
rotational constants/cm⁻¹ :        0.3251795E+00   0.1293678E+00   0.1070090E+00

 * 9 selected distances

     #   Z          #   Z                                           value/Å
     1   6          2   6                                         1.5168744 (max)
     1   6          5   1                                         1.0878007
     1   6          6   1                                         1.0874828
     1   6          7   1                                         1.0883843
     2   6          8   1                                         1.0894205
     2   6          9   1                                         1.0906041
     4   6         10   1                                         1.0847354 (min)
     4   6         11   1                                         1.0865915
     4   6         12   1                                         1.0859853

 * 2 distinct bonds (by element types)

   Z      Z             #   av. dist./Å        max./Å        min./Å
   1 H    6 C           8     1.0876256     1.0906041     1.0847354
   6 C    6 C           1     1.5168744     1.5168744     1.5168744

           -------------------------------------------------
          |               Frequency Printout                |
           -------------------------------------------------
 projected vibrational frequencies (cm⁻¹)
eigval :       -0.00    -0.00    -0.00    -0.00     0.00     0.00
eigval :       67.88   148.61   202.92   258.12   328.23   674.85
eigval :      731.84   782.04   936.97   941.71  1015.65  1046.14
eigval :     1077.59  1229.96  1259.00  1316.56  1405.01  1444.03
eigval :     1450.52  1456.77  1491.66  1496.85  2971.68  3003.41
eigval :     3020.19  3023.67  3026.86  3037.13  3043.99  3064.03
 reduced masses (amu)
    1:      3.18    2:      4.19    3:      4.96    4:      5.22    5:      4.85    6:      3.74
    7:      1.68    8:      1.12    9:      1.32   10:      2.14   11:      3.08   12:      4.35
   13:      5.51   14:      1.20   15:      1.18   16:      1.18   17:      1.43   18:      1.29
   19:      2.96   20:      1.23   21:      1.28   22:      1.15   23:      1.20   24:      1.09
   25:      1.07   26:      1.06   27:      1.06   28:      1.06   29:      1.08   30:      1.07
   31:      1.06   32:      1.08   33:      1.08   34:      1.08   35:      1.06   36:      1.08
 IR intensities (km·mol⁻¹)
    1:      0.93    2:      3.19    3:      0.93    4:      0.74    5:      0.12    6:      0.33
    7:      2.10    8:      1.13    9:      0.42   10:      0.80   11:      1.44   12:      1.91
   13:     10.38   14:      7.83   15:      9.48   16:      2.24   17:      7.35   18:      8.33
   19:      3.03   20:      2.02   21:     20.65   22:      2.67   23:      4.17   24:      2.70
   25:      3.53   26:      5.60   27:      5.30   28:      1.66   29:     19.08   30:      6.38
   31:      9.55   32:     36.18   33:      8.59   34:     31.91   35:     15.88   36:      5.13
 Raman intensities (Ä⁴*amu⁻¹)
    1:      0.00    2:      0.00    3:      0.00    4:      0.00    5:      0.00    6:      0.00
    7:      0.00    8:      0.00    9:      0.00   10:      0.00   11:      0.00   12:      0.00
   13:      0.00   14:      0.00   15:      0.00   16:      0.00   17:      0.00   18:      0.00
   19:      0.00   20:      0.00   21:      0.00   22:      0.00   23:      0.00   24:      0.00
Molecule has no symmetry elements
It seems to be the C1 point group
   25:      0.00   26:      0.00   27:      0.00   28:      0.00   29:      0.00   30:      0.00
   31:      0.00   32:      0.00   33:      0.00   34:      0.00   35:      0.00   36:      0.00
 output can be read by thermo (or use thermo option).
 writing <g98.out> molden fake output.
 recommended (thermochemical) frequency scaling factor: 1.0
           -------------------------------------------------
          |             Thermodynamic Functions             |
           -------------------------------------------------

c1  symmetry found (for desy threshold:  0.10E+00) used in thermo

          ...................................................
          :                      SETUP                      :
          :.................................................:
          :  # frequencies                          30      :
          :  # imaginary freq.                       0      :
          :  linear?                             false      :
          :  only rotor calc.                    false      :
          :  symmetry                               c1      :
          :  rotational number                       1      :
          :  scaling factor                  1.0000000      :
          :  rotor cutoff                    0.0000000 cm⁻¹ :
          :  imag. cutoff                 -100.0000000 cm⁻¹ :
          :.................................................:

    mode    ω/cm⁻¹     T·S(HO)/kcal·mol⁻¹    T·S(FR)/kcal·mol⁻¹   T·S(vib)
   ------------------------------------------------------------------------
       1     67.88    -1.25637 (100.00%)    -0.96533 (  0.00%)    -1.25637
       2    148.61    -0.80200 (100.00%)    -0.73355 (  0.00%)    -0.80200
       3    202.92    -0.62803 (100.00%)    -0.64136 (  0.00%)    -0.62803
       4    258.12    -0.49923 (100.00%)    -0.57012 (  0.00%)    -0.49923
   ------------------------------------------------------------------------

   temp. (K)  partition function   enthalpy   heat capacity  entropy
                                   cal/mol     cal/K/mol   cal/K/mol   J/K/mol
 298.15  VIB   22.9                 2151.276     14.314     13.436
         ROT  0.788E+05              888.727      2.981     25.386
         INT  0.180E+07             3040.004     17.294     38.822
         TR   0.203E+26             1481.212      4.968     38.906
         TOT                        4521.2163    22.2624    77.7282   325.2148

       T/K    H(0)-H(T)+PV         H(T)/Eh          T*S/Eh         G(T)/Eh
   ------------------------------------------------------------------------
    298.15    0.720502E-02    0.109617E+00    0.369312E-01    0.726863E-01
   ------------------------------------------------------------------------

         :::::::::::::::::::::::::::::::::::::::::::::::::::::
         ::                  THERMODYNAMIC                  ::
         :::::::::::::::::::::::::::::::::::::::::::::::::::::
         :: total free energy         -13.664323601728 Eh   ::
         ::.................................................::
         :: total energy              -13.737009868672 Eh   ::
         :: zero point energy           0.102412427709 Eh   ::
         :: G(RRHO) w/o ZPVE           -0.029726160765 Eh   ::
         :: G(RRHO) contrib.            0.072686266944 Eh   ::
         :::::::::::::::::::::::::::::::::::::::::::::::::::::

optimized geometry written to: xtbopt.coord


           -------------------------------------------------
          | TOTAL ENERGY              -13.737009868672 Eh   |
          | TOTAL ENTHALPY            -13.627392424205 Eh   |
          | TOTAL FREE ENERGY         -13.664323601728 Eh   |
          | GRADIENT NORM               0.000022098579 Eh/α |
          | HOMO-LUMO GAP               4.343320794883 eV   |
           -------------------------------------------------

------------------------------------------------------------------------
 * finished run on 2025/04/09 at 03:06:53.468     
------------------------------------------------------------------------
 total:
 * wall-time:     0 d,  0 h,  0 min,  0.252 sec
 *  cpu-time:     0 d,  0 h,  0 min,  0.248 sec
 * ratio c/w:     0.985 speedup
 SCF:
 * wall-time:     0 d,  0 h,  0 min,  0.004 sec
 *  cpu-time:     0 d,  0 h,  0 min,  0.004 sec
 * ratio c/w:     0.967 speedup
 ANC optimizer:
 * wall-time:     0 d,  0 h,  0 min,  0.051 sec
 *  cpu-time:     0 d,  0 h,  0 min,  0.050 sec
 * ratio c/w:     0.985 speedup
 analytical hessian:
 * wall-time:     0 d,  0 h,  0 min,  0.192 sec
 *  cpu-time:     0 d,  0 h,  0 min,  0.190 sec
 * ratio c/w:     0.986 speedup

