
                                 *****************
                                 * O   R   C   A *
                                 *****************

                                            #,                                       
                                            ###                                      
                                            ####                                     
                                            #####                                    
                                            ######                                   
                                           ########,                                 
                                     ,,################,,,,,                         
                               ,,#################################,,                 
                          ,,##########################################,,             
                       ,#########################################, ''#####,          
                    ,#############################################,,   '####,        
                  ,##################################################,,,,####,       
                ,###########''''           ''''###############################       
              ,#####''   ,,,,##########,,,,          '''####'''          '####       
            ,##' ,,,,###########################,,,                        '##       
           ' ,,###''''                  '''############,,,                           
         ,,##''                                '''############,,,,        ,,,,,,###''
      ,#''                                            '''#######################'''  
     '                                                          ''''####''''         
             ,#######,   #######,   ,#######,      ##                                
            ,#'     '#,  ##    ##  ,#'     '#,    #''#        ,####,   ,####,        
            ##       ##  ##   ,#'  ##            #'  '#       #'       #'  '#        
            ##       ##  #######   ##           ,######,      #####,   #    #        
            '#,     ,#'  ##    ##  '#,     ,#' ,#      #,     #,   #   #,  ,#        
             '#######'   ##     ##  '#######'  #'      '#     '####' # '####'        



                #########################################################
                #                        -***-                          #
                #          Department of theory and spectroscopy        #
                #                                                       #
                #                      Frank Neese                      #
                #                                                       #
                #     Directorship, Architecture, Infrastructure        #
                #                    SHARK, DRIVERS                     #
                #        Core code/Algorithms in most modules           #
                #                                                       #
                #        Max Planck Institute fuer Kohlenforschung      #
                #                Kaiser Wilhelm Platz 1                 #
                #                 D-45470 Muelheim/Ruhr                 #
                #                      Germany                          #
                #                                                       #
                #                  All rights reserved                  #
                #                        -***-                          #
                #########################################################


                         Program Version 6.0.1  -  RELEASE   -


 With contributions from (in alphabetic order):
[Max-Planck-Institut fuer Kohlenforschung]                               
  Daniel Aravena         : Magnetic Suceptibility                        
  Michael Atanasov       : Ab Initio Ligand Field Theory (pilot matlab implementation)
  Alexander A. Auer      : GIAO ZORA, VPT2 properties, NMR spectrum      
  Ute Becker             : All parallelization in ORCA, NUMFREQ, NUMCALC 
  Giovanni Bistoni       : ED, misc. LED, open-shell LED, HFLD           
  Martin Brehm           : Molecular dynamics                            
  Dmytro Bykov           : pre 5.0 version of the SCF Hessian            
  Marcos Casanova-Páez   : Triplet and SCS-CIS(D). UHF-(DLPNO)-IP/EA/STEOM-CCSD. UHF-CVS-IP/STEOM-CCSD   
  Vijay G. Chilkuri      : MRCI spin determinant printing, contributions to CSF-ICE 
  Pauline Colinet        : FMM embedding                                 
  Dipayan Datta          : RHF DLPNO-CCSD density                        
  Achintya Kumar Dutta   : EOM-CC, STEOM-CC                              
  Nicolas Foglia         : Exact transition moments, OPA infrastructure, MCD improvements    
  Dmitry Ganyushin       : Spin-Orbit,Spin-Spin,Magnetic field MRCI      
  Miquel Garcia-Rates    : C-PCM and meta-GGA Hessian, CCSD/C-PCM, Gaussian charge scheme 
  Tiago L. C. Gouveia    : GS-ROHF, GS-ROCIS                             
  Yang Guo               : DLPNO-NEVPT2, F12-NEVPT2, CIM, IAO-localization        
  Andreas Hansen         : Spin unrestricted coupled pair/coupled cluster methods 
  Ingolf Harden          : AUTO-CI MPn and infrastructure                
  Benjamin Helmich-Paris : MC-RPA, TRAH-(SCF,CASSCF), AVAS, COSX integrals, SCF dyn. polar. 
  Lee Huntington         : MR-EOM, pCC                                   
  Robert Izsak           : Overlap fitted RIJCOSX, COSX-SCS-MP3, EOM     
  Riya Kayal             : Wick's Theorem for AUTO-CI, AUTO-CI UHF-CCSDT 
  Emily Kempfer          : AUTO-CI, RHF CISDT and CCSDT                  
  Christian Kollmar      : KDIIS, OOCD, Brueckner-CCSD(T), CCSD density, CASPT2, CASPT2-K, improved NEVPT2 
  Axel Koslowski         : Symmetry handling                             
  Simone Kossmann        : meta-GGA functionals, TD-DFT gradient, OOMP2, (MP2 Hessian; deprecated post 5.0) 
  Lucas Lang             : DCDCAS                                        
  Marvin Lechner         : AUTO-CI (C++ implementation), FIC-MRCC        
  Spencer Leger          : CASSCF response                               
  Dagmar Lenk            : GEPOL surface, SMD, ORCA-2-JSON               
  Dimitrios Liakos       : Extrapolation schemes; Compound Job, initial MDCI parallelization 
  Dimitrios Manganas     : Further ROCIS development; embedding schemes. LFT, Crystal Embedding 
  Dimitrios Pantazis     : SARC Basis sets                               
  Anastasios Papadopoulos: AUTO-CI, single reference methods and gradients 
  Taras Petrenko         : pre 6.0 DFT Hessian and TD-DFT gradient, (ASA, deprecated), ECA, 1-Electron XAS/XES, NRVS 
  Peter Pinski           : DLPNO-MP2, DLPNO-MP2 Gradient                 
  Christoph Reimann      : Effective Core Potentials                     
  Marius Retegan         : Local ZFS, SOC                                
  Christoph Riplinger    : Optimizer, TS searches, QM/MM, DLPNO-CCSD(T), (RO)-DLPNO pert. Triples 
  Michael Roemelt        : Original ROCIS implementation                 
  Masaaki Saitow         : Open-shell DLPNO-CCSD energy and density      
  Barbara Sandhoefer     : DKH picture change effects                    
  Kantharuban Sivalingam : CASSCF convergence/infrastructure, NEVPT2 and variants, FIC-MRCI 
  Bernardo de Souza      : ESD, SOC TD-DFT                               
  Georgi L. Stoychev     : AutoAux, RI-MP2 NMR, DLPNO-MP2 response, X2C  
  Van Anh Tran           : RI-MP2 g-tensors                              
  Willem Van den Heuvel  : Paramagnetic NMR                              
  Zikuan Wang            : NOTCH, Electric field optimization            
  Frank Wennmohs         : Technical directorship and infrastructure     
  Hang Xu                : AUTO-CI-Response properties                   
                                                                         
[FACCTs GmbH]                                                            
  Markus Bursch, Miquel Garcia-Rates, Christoph Riplinger, Bernardo de Souza, Georgi L. Stoychev 
                                                                 
  APM, Basis sets (HGBS, AHGBS, def-TZVP (Ac-Lr), def2-XVPD (La-Lu)), CI-OPT, improved COSX, DLPNO-Multilevel,           
  DOCKER, DRACO, updates on ESD, GOAT, IRC, LR-CPCM, MBIS, meta-GGA TD-DFT gradient, ML-optimized integration grids, 
  MM, NACMEs, nearIR, NEB, NEB-TS, NL-DFT gradient (VV10), 2- and 3-layer-ONIOM, interface openCOSMO-RS, QMMM,   
  Crystal-QMMM, SF, symmetry and pop. for TD-DFT, r2SCAN hybrids, SOLVATOR                                   
                                                                         
[Other institutions]                                                     
  V. Asgeirsson          : NEB                                           
  Christoph Bannwarth    : sTDA-DFT, sTD-DFT, PBEh-3c, B97-3c, D3        
  Sebastian Ehlert       : rSCAN, r2SCAN, r2SCAN-3c, D4, dhf basis sets  
  Marvin Friede          : D4 for Fr, Ra, Ac-Lr                          
  Lars Goerigk           : TD-DFT with DH, B97 family of functionals     
  Stefan Grimme          : VdW corrections, initial TS optimization, DFT functionals, gCP, sTDA/sTD-DF 
  Waldemar Hujo          : DFT-NL                                        
  H. Jonsson             : NEB                                           
  Holger Kruse           : gCP                                           
  Marcel Mueller         : wB97X-3c, vDZP basis set                      
  Hagen Neugebauer       : wr2SCAN                                       
  Tobias Risthaus        : range-separated hybrid DFT                    
  Lukas Wittmann         : regularized MP2, r2SCAN double-hybrids, wr2SCAN        
                                                                         
We gratefully acknowledge several colleagues who have allowed us to      
interface, adapt or use parts of their codes:                            
  Ed Valeev, F. Pavosevic, A. Kumar             : LibInt (2-el integral package), F12 methods 
  Garnet Chan, S. Sharma, J. Yang, R. Olivares  : DMRG                   
  Ulf Ekstrom                                   : XCFun DFT Library      
  Mihaly Kallay                                 : mrcc  (arbitrary order and MRCC methods)
  Frank Weinhold                                : gennbo (NPA and NBO analysis)           
  Simon Mueller                                 : openCOSMO-RS                            
  Christopher J. Cramer and Donald G. Truhlar   : smd solvation model                     
  S Lehtola, MJT Oliveira, MAL Marques          : LibXC Library                           
  Liviu Ungur et al                             : ANISO software                          


 Your calculation uses the libint2 library for the computation of 2-el integrals
 For citations please refer to: http://libint.valeyev.net

 Your ORCA version has been built with support for libXC version: 6.2.2
 For citations please refer to: https://libxc.gitlab.io

 This ORCA versions uses:
   CBLAS   interface :  Fast vector & matrix operations
   LAPACKE interface :  Fast linear algebra routines
   SCALAPACK package :  Parallel linear algebra routines
   Shared memory     :  Shared parallel matrices
   BLAS/LAPACK       :  OpenBLAS 0.3.27  USE64BITINT DYNAMIC_ARCH NO_AFFINITY Zen SINGLE_THREADED
        Core in use  :  Zen
   Copyright (c) 2011-2014, The OpenBLAS Project


Your calculation utilizes the geometrical counterpoise correction gCP
Please cite in your paper:
H.Kruse, S. Grimme J.Chem.Phys., 136, (2012), 154101 
   

Your calculation utilizes the DFT-NL dispersion correction.
Cite in your paper:
Vydrov, O. A.; Van Voorhis, T. J. Chem. Phys. 2010, 133, 244103
Hujo, W.; Grimme, S. J. Chem. Theory Comput. 2011, 7, 3866 
   

================================================================================

----- Orbital basis set information -----
Your calculation utilizes the basis: def2-TZVP
   F. Weigend and R. Ahlrichs, Phys. Chem. Chem. Phys. 7, 3297 (2005).

----- AuxJ basis set information -----
Your calculation utilizes the auxiliary basis: def2/J
   F. Weigend, Phys. Chem. Chem. Phys. 8, 1057 (2006).

================================================================================
                                        WARNINGS
                       Please study these warnings very carefully!
================================================================================


================================================================================
                                       INPUT FILE
================================================================================
NAME = sp.inp
|  1> ! wb97x-v def2-tzvp def2/J RIJCOSX DEFGRID2 scfconv7 GCP(DFT/TZ) printgap
|  2> %output
|  3>     printlevel normal
|  4> end
|  5> * xyz 0 1
|  6> C -2.2328596429685037 0.3372888488721188 0.6608839049024148
|  7> C -1.313937826667016 0.4816285344649119 -0.5604527047115829
|  8> C 0.007686929856664127 -0.1912118571257715 -0.28962800367345304
|  9> O 0.1975089133889467 -1.3849844983721886 -0.317972272672567
| 10> O 0.9649781514759478 0.7100384623394697 0.0429894921257588
| 11> C 2.2438458179974803 0.13176246667469627 0.38227910236604884
| 12> H -2.3832626192720676 -0.7177225947037835 0.9032381724079261
| 13> H -1.8020871837366823 0.8357311762920349 1.5338376406132268
| 14> H -3.2072938357504324 0.7882130549160736 0.4569562690158726
| 15> H -1.156261371330346 1.5356037890337453 -0.8013244376936267
| 16> H -1.763094101813725 -0.01808359986737804 -1.4233894695809226
| 17> H 2.62838854379362 -0.45785428921522764 -0.4535328209722506
| 18> H 2.1470830884718093 -0.5134788189067371 1.2593225246464412
| 19> H 2.8989912204109847 0.9762935755984034 0.5945534077630624
| 20> *
| 21> 
| 22>                          ****END OF INPUT****
================================================================================

                       ****************************
                       * Single Point Calculation *
                       ****************************

---------------------------------
CARTESIAN COORDINATES (ANGSTROEM)
---------------------------------
  C     -2.232860    0.337289    0.660884
  C     -1.313938    0.481629   -0.560453
  C      0.007687   -0.191212   -0.289628
  O      0.197509   -1.384984   -0.317972
  O      0.964978    0.710038    0.042989
  C      2.243846    0.131762    0.382279
  H     -2.383263   -0.717723    0.903238
  H     -1.802087    0.835731    1.533838
  H     -3.207294    0.788213    0.456956
  H     -1.156261    1.535604   -0.801324
  H     -1.763094   -0.018084   -1.423389
  H      2.628389   -0.457854   -0.453533
  H      2.147083   -0.513479    1.259323
  H      2.898991    0.976294    0.594553

----------------------------
CARTESIAN COORDINATES (A.U.)
----------------------------
  NO LB      ZA    FRAG     MASS         X           Y           Z
   0 C     6.0000    0    12.011   -4.219493    0.637384    1.248890
   1 C     6.0000    0    12.011   -2.482983    0.910146   -1.059102
   2 C     6.0000    0    12.011    0.014526   -0.361338   -0.547318
   3 O     8.0000    0    15.999    0.373238   -2.617241   -0.600881
   4 O     8.0000    0    15.999    1.823544    1.341778    0.081238
   5 C     6.0000    0    12.011    4.240254    0.248995    0.722403
   6 H     1.0000    0     1.008   -4.503714   -1.356299    1.706873
   7 H     1.0000    0     1.008   -3.405451    1.579303    2.898533
   8 H     1.0000    0     1.008   -6.060907    1.489507    0.863522
   9 H     1.0000    0     1.008   -2.185017    2.901871   -1.514284
  10 H     1.0000    0     1.008   -3.331765   -0.034173   -2.689816
  11 H     1.0000    0     1.008    4.966935   -0.865219   -0.857053
  12 H     1.0000    0     1.008    4.057399   -0.970334    2.379775
  13 H     1.0000    0     1.008    5.478299    1.844927    1.123543

--------------------------------
INTERNAL COORDINATES (ANGSTROEM)
--------------------------------
 C      0   0   0     0.000000000000     0.00000000     0.00000000
 C      1   0   0     1.535224531883     0.00000000     0.00000000
 C      2   1   0     1.507564993062   109.86821033     0.00000000
 O      3   2   1     1.209102519229   125.03454498    76.84099900
 O      3   2   1     1.356205375243   111.48574246   259.10634828
 C      5   3   2     1.443960898104   114.62333846   177.04823432
 H      1   2   3     1.092888737400   110.45977167   302.14513640
 H      1   2   3     1.093644316077   110.87880585    62.45134919
 H      1   2   3     1.092904898121   110.26981128   182.24900758
 H      2   1   3     1.092586332315   110.63800226   238.22852780
 H      2   1   3     1.093669711049   109.81152744   117.82750734
 H      6   5   3     1.092750016236   110.36708953    58.69865055
 H      6   5   3     1.093116877104   110.27457607   298.15277536
 H      6   5   3     1.089728715312   105.53734527   178.49430971

---------------------------
INTERNAL COORDINATES (A.U.)
---------------------------
 C      0   0   0     0.000000000000     0.00000000     0.00000000
 C      1   0   0     2.901153919336     0.00000000     0.00000000
 C      2   1   0     2.848884965973   109.86821033     0.00000000
 O      3   2   1     2.284872629177   125.03454498    76.84099900
 O      3   2   1     2.562856740561   111.48574246   259.10634828
 C      5   3   2     2.728690645508   114.62333846   177.04823432
 H      1   2   3     2.065260408533   110.45977167   302.14513640
 H      1   2   3     2.066688245305   110.87880585    62.45134919
 H      1   2   3     2.065290947870   110.26981128   182.24900758
 H      2   1   3     2.064688945740   110.63800226   238.22852780
 H      2   1   3     2.066736234847   109.81152744   117.82750734
 H      6   5   3     2.064998263524   110.36708953    58.69865055
 H      6   5   3     2.065691530094   110.27457607   298.15277536
 H      6   5   3     2.059288832209   105.53734527   178.49430971

---------------------
BASIS SET INFORMATION
---------------------
There are 3 groups of distinct atoms

 Group   1 Type C   : 11s6p2d1f contracted to 5s3p2d1f pattern {62111/411/11/1}
 Group   2 Type O   : 11s6p2d1f contracted to 5s3p2d1f pattern {62111/411/11/1}
 Group   3 Type H   : 5s1p contracted to 3s1p pattern {311/1}

Atom   0C    basis set group =>   1
Atom   1C    basis set group =>   1
Atom   2C    basis set group =>   1
Atom   3O    basis set group =>   2
Atom   4O    basis set group =>   2
Atom   5C    basis set group =>   1
Atom   6H    basis set group =>   3
Atom   7H    basis set group =>   3
Atom   8H    basis set group =>   3
Atom   9H    basis set group =>   3
Atom  10H    basis set group =>   3
Atom  11H    basis set group =>   3
Atom  12H    basis set group =>   3
Atom  13H    basis set group =>   3
---------------------------------
AUXILIARY/J BASIS SET INFORMATION
---------------------------------
There are 3 groups of distinct atoms

 Group   1 Type C   : 12s5p4d2f1g contracted to 6s4p3d1f1g pattern {711111/2111/211/2/1}
 Group   2 Type O   : 12s5p4d2f1g contracted to 6s4p3d1f1g pattern {711111/2111/211/2/1}
 Group   3 Type H   : 5s2p1d contracted to 3s1p1d pattern {311/2/1}

Atom   0C    basis set group =>   1
Atom   1C    basis set group =>   1
Atom   2C    basis set group =>   1
Atom   3O    basis set group =>   2
Atom   4O    basis set group =>   2
Atom   5C    basis set group =>   1
Atom   6H    basis set group =>   3
Atom   7H    basis set group =>   3
Atom   8H    basis set group =>   3
Atom   9H    basis set group =>   3
Atom  10H    basis set group =>   3
Atom  11H    basis set group =>   3
Atom  12H    basis set group =>   3
Atom  13H    basis set group =>   3

Checking for AutoStart:
The File: sp.gbw exists
Trying to determine its content:
     ... Fine, the file contains calculation information
     ... Fine, the calculation information was read
     ... Fine, the file contains a basis set
     ... Fine, the basis set was read
     ... Fine, the file contains a geometry
     ... Fine, the geometry was read
     ... Fine, the file contains a set of orbitals
     ... Fine, the orbitals can be read
     => possible old guess file was deleted
     => GBW file was renamed to GES file
     => GES file is set as startup file
     => Guess is set to MORead
     ... now leaving AutoStart

------------------------------------------------------------------------------
                             ORCA STARTUP CALCULATIONS
                           -- RI-GTO INTEGRALS CHOSEN --
------------------------------------------------------------------------------
------------------------------------------------------------------------------
                   ___                                                        
                  /   \      - P O W E R E D   B Y -                         
                 /     \                                                     
                 |  |  |   _    _      __       _____    __    __             
                 |  |  |  | |  | |    /  \     |  _  \  |  |  /  |          
                  \  \/   | |  | |   /    \    | | | |  |  | /  /          
                 / \  \   | |__| |  /  /\  \   | |_| |  |  |/  /          
                |  |  |   |  __  | /  /__\  \  |    /   |      \           
                |  |  |   | |  | | |   __   |  |    \   |  |\   \          
                \     /   | |  | | |  |  |  |  | |\  \  |  | \   \       
                 \___/    |_|  |_| |__|  |__|  |_| \__\ |__|  \__/        
                                                                              
                      - O R C A' S   B I G   F R I E N D -                    
                                      &                                       
                       - I N T E G R A L  F E E D E R -                       
                                                                              
 v1 FN, 2020, v2 2021, v3 2022-2024                                           
------------------------------------------------------------------------------


----------------------
SHARK INTEGRAL PACKAGE
----------------------

Number of atoms                             ...     14
Number of basis functions                   ...    234
Number of shells                            ...     98
Maximum angular momentum                    ...      3
Integral batch strategy                     ... SHARK/LIBINT Hybrid
RI-J (if used) integral strategy            ... SPLIT-RIJ (Revised 2003 algorithm where possible)
Printlevel                                  ...      1
Contraction scheme used                     ... SEGMENTED contraction
Prescreening option                         ... SCHWARTZ
   Thresh                                   ... 3.000e-11
   Tcut                                     ... 1.000e-12
   Tpresel                                  ... 1.000e-12 
Coulomb Range Separation                    ... NOT USED
Exchange Range Separation                   ... Long Range
   Mu parameter                             ... 3.000e-01
   Scaling (regular/separated)              ... 1.670e-01 8.330e-01
Multipole approximations                    ... NOT USED
Finite Nucleus Model                        ... NOT USED
CABS basis                                  ... NOT available
Auxiliary Coulomb fitting basis             ... AVAILABLE
   # of basis functions in Aux-J            ...    382
   # of shells in Aux-J                     ...    130
   Maximum angular momentum in Aux-J        ...      4
Auxiliary J/K fitting basis                 ... NOT available
Auxiliary Correlation fitting basis         ... NOT available
Auxiliary 'external' fitting basis          ... NOT available

Checking pre-screening integrals            ... done (  0.0 sec) Dimension = 98
Check shell pair data                       ... done (  0.0 sec)
Shell pair information
Shell pair cut-off parameter TPreSel        ...   1.0e-12
Total number of shell pairs                 ...      4851
Shell pairs after pre-screening             ...      4522
Total number of primitive shell pairs       ...     14352
Primitive shell pairs kept                  ...     10366
          la=0 lb=0:   1340 shell pairs
          la=1 lb=0:   1304 shell pairs
          la=1 lb=1:    336 shell pairs
          la=2 lb=0:    611 shell pairs
          la=2 lb=1:    303 shell pairs
          la=2 lb=2:     77 shell pairs
          la=3 lb=0:    305 shell pairs
          la=3 lb=1:    153 shell pairs
          la=3 lb=2:     72 shell pairs
          la=3 lb=3:     21 shell pairs

Calculating one electron integrals          ... done (  0.0 sec)
Calculating RI/J V-Matrix + Cholesky decomp.... done (  0.0 sec)
Calculating Nuclear repulsion               ... done (  0.0 sec) ENN=    245.651626224472 Eh

Diagonalization of the overlap matrix:
Smallest eigenvalue                        ... 2.470e-04
Time for diagonalization                   ...    0.014 sec
Threshold for overlap eigenvalues          ... 1.000e-07
Number of eigenvalues below threshold      ... 0
Time for construction of square roots      ...    0.004 sec
Total time needed                          ...    0.021 sec

-------------------
DFT GRID GENERATION
-------------------

General Integration Accuracy     IntAcc      ... 4.388
Radial Grid Type                 RadialGrid  ... OptM3 with GC (2021)
Angular Grid (max. ang.)         AngularGrid ... 4 (Lebedev-302)
Angular grid pruning method      GridPruning ... 4 (adaptive)
Weight generation scheme         WeightScheme... mBecke (2022)
Basis function cutoff            BFCut       ... 1.0000e-11
Integration weight cutoff        WCut        ... 1.0000e-14
Partially contracted basis set               ... off
Rotationally invariant grid construction     ... off
Angular grids for H and He will be reduced by one unit

Total number of grid points                  ...    62243
Total number of batches                      ...      980
Average number of points per batch           ...       63
Average number of grid points per atom       ...     4446

--------------------
COSX GRID GENERATION
--------------------

GRIDX 1
-------
General Integration Accuracy     IntAcc      ... 3.816
Radial Grid Type                 RadialGrid  ... OptM3 with GC (2021)
Angular Grid (max. ang.)         AngularGrid ... 1 (Lebedev-50)
Angular grid pruning method      GridPruning ... 4 (adaptive)
Weight generation scheme         WeightScheme... mBecke (2022)
Basis function cutoff            BFCut       ... 1.0000e-11
Integration weight cutoff        WCut        ... 1.0000e-14
Partially contracted basis set               ... on
Rotationally invariant grid construction     ... off
Angular grids for H and He will be reduced by one unit

Total number of grid points                  ...     7995
Total number of batches                      ...       73
Average number of points per batch           ...      109
Average number of grid points per atom       ...      571
UseSFitting                                  ... on

GRIDX 2
-------
General Integration Accuracy     IntAcc      ... 4.020
Radial Grid Type                 RadialGrid  ... OptM3 with GC (2021)
Angular Grid (max. ang.)         AngularGrid ... 2 (Lebedev-110)
Angular grid pruning method      GridPruning ... 4 (adaptive)
Weight generation scheme         WeightScheme... mBecke (2022)
Basis function cutoff            BFCut       ... 1.0000e-11
Integration weight cutoff        WCut        ... 1.0000e-14
Partially contracted basis set               ... on
Rotationally invariant grid construction     ... off
Angular grids for H and He will be reduced by one unit

Total number of grid points                  ...    17112
Total number of batches                      ...      142
Average number of points per batch           ...      120
Average number of grid points per atom       ...     1222
UseSFitting                                  ... on

GRIDX 3
-------
General Integration Accuracy     IntAcc      ... 4.338
Radial Grid Type                 RadialGrid  ... OptM3 with GC (2021)
Angular Grid (max. ang.)         AngularGrid ... 3 (Lebedev-194)
Angular grid pruning method      GridPruning ... 4 (adaptive)
Weight generation scheme         WeightScheme... mBecke (2022)
Basis function cutoff            BFCut       ... 1.0000e-11
Integration weight cutoff        WCut        ... 1.0000e-14
Partially contracted basis set               ... on
Rotationally invariant grid construction     ... off
Angular grids for H and He will be reduced by one unit

Total number of grid points                  ...    37551
Total number of batches                      ...      299
Average number of points per batch           ...      125
Average number of grid points per atom       ...     2682
UseSFitting                                  ... on
Initializing property integral containers    ... done (  0.0 sec)

SHARK setup successfully completed in   1.8 seconds

Maximum memory used throughout the entire STARTUP-calculation: 34.7 MB
-------------------------------------------------------------------------------
                                 ORCA GUESS
                   Start orbitals & Density for SCF / CASSCF
-------------------------------------------------------------------------------

------------
SCF SETTINGS
------------
Hamiltonian:
 Density Functional     Method          .... DFT(GTOs)
 Exchange Functional    Exchange        .... WB97X-V
 Correlation Functional Correlation     .... WB97X-V
 Gradients option       PostSCFGGA      .... off
 Hybrid DFT is turned on
   Fraction HF Exchange ScalHFX         ....  0.167000
   Scaling of DF-GGA-X  ScalDFX         ....  0.000000
   Scaling of DF-GGA-C  ScalDFC         ....  1.000000
   Scaling of DF-LDA-C  ScalLDAC        ....  1.000000
   Perturbative correction              ....  0.000000
 Long-range corrected/Screened/Range-Separated Hybrid DFT is turned on
   Amount of maximum screened exact exchange              ....  0.833000
   Range separation parameter mu (erf(mu*r12)/r12)        ....  0.300000
   NL short-range parameter             ....  6.000000
   NL long-range parameter              ....  0.010000
 RI-approximation to the Coulomb term is turned on
   Number of AuxJ basis functions       .... 382
   RIJ-COSX (HFX calculated with COS-X)).... on


General Settings:
 Integral files         IntName         .... sp
 Hartree-Fock type      HFTyp           .... RHF
 Total Charge           Charge          ....    0
 Multiplicity           Mult            ....    1
 Number of Electrons    NEL             ....   48
 Basis Dimension        Dim             ....  234
 Nuclear Repulsion      ENuc            ....    245.6516262245 Eh

Convergence Acceleration:
 AO-DIIS                CNVDIIS         .... on
   Start iteration      DIISMaxIt       ....    12
   Startup error        DIISStart       ....  0.200000
   # of expansion vecs  DIISMaxEq       ....     5
   Bias factor          DIISBfac        ....   1.050
   Max. coefficient     DIISMaxC        ....  10.000
 MO-DIIS                CNVKDIIS        .... off
 Trust-Rad. Augm. Hess. CNVTRAH         .... auto
   Auto Start mean grad. ratio tolernc. ....  1.125000
   Auto Start start iteration           ....     1
   Auto Start num. interpolation iter.  ....    10
   Max. Number of Micro iterations      ....    24
   Max. Number of Macro iterations      .... Maxiter - #DIIS iter
   Number of Davidson start vectors     ....     2
   Converg. threshold    (grad. norm)   ....   1.000e-04
   Grad. Scal. Fac. for Micro threshold ....   0.100
   Minimum threshold for Micro iter.    ....   1.000e-02
   NR start threshold (gradient norm)   ....   1.000e-04
   Initial trust radius                 ....   0.400
   Minimum AH scaling param. (alpha)    ....   1.000
   Maximum AH scaling param. (alpha)    .... 1000.000
   Quad. conv. algorithm                .... NR
   White noise on init. David. guess    .... on
   Maximum white noise                  ....   0.010
   Pseudo random numbers                .... off
   Inactive MOs                         .... canonical
   Orbital update algorithm             .... Taylor
   Preconditioner                       .... Diag
   Full preconditioner red. dimension   ....   250
 SOSCF                  CNVSOSCF        .... on
   Start iteration      SOSCFMaxIt      ....   150
   Startup grad/error   SOSCFStart      ....  0.003300
   Hessian update       SOSCFHessUp     .... L-BFGS
 Level Shifting         CNVShift        .... on
   Level shift para.    LevelShift      ....    0.2500
   Turn off err/grad.   ShiftErr        ....    0.0010
 Zerner damping         CNVZerner       .... off
 Static damping         CNVDamp         .... on
   Fraction old density DampFac         ....    0.7000
   Max. Damping (<1)    DampMax         ....    0.9800
   Min. Damping (>=0)   DampMin         ....    0.0000
   Turn off err/grad.   DampErr         ....    0.1000

SCF Procedure:
 Maximum # iterations   MaxIter         ....   125
 SCF integral mode      SCFMode         .... Direct
   Integral package                     .... SHARK and LIBINT hybrid scheme
 Reset frequency        DirectResetFreq ....    20
 Integral Threshold     Thresh          ....  3.000e-11 Eh
 Primitive CutOff       TCut            ....  1.000e-12 Eh

Convergence Tolerance:
 Convergence Check Mode ConvCheckMode   .... Total+1el-Energy
 Convergence forced     ConvForced      .... 0
 Energy Change          TolE            ....  1.000e-07 Eh
 1-El. energy change                    ....  1.000e-04 Eh
 Orbital Gradient       TolG            ....  1.000e-04
 Orbital Rotation angle TolX            ....  1.000e-04
 DIIS Error             TolErr          ....  1.000e-07

---------------------
INITIAL GUESS: MOREAD
---------------------
Guess MOs are being read from file: sp.ges
Input Geometry matches current geometry (good)
Atom 0: N(Shells)= 11 and 9 - projection required
Input basis set needs projection
NBasis(read)= 164
NBasis(calc)= 234
Basis set overlap was calculated
Using GuessMode=FMatrix for the initial guess
C*T matrix was formed
Effective Fockian was calculated
Effective Fockian was diagonalized
Initial density was built
                      ------------------
                      INITIAL GUESS DONE (   0.0 sec)
                      ------------------
             **** ENERGY FILE WAS UPDATED (sp.en.tmp) ****
Finished Guess after   0.2 sec
Maximum memory used throughout the entire GUESS-calculation: 19.6 MB

-------------------------------------------------------------------------------------------
                                      ORCA LEAN-SCF
                              memory conserving SCF solver
-------------------------------------------------------------------------------------------

----------------------------------------D-I-I-S--------------------------------------------
Iteration    Energy (Eh)           Delta-E    RMSDP     MaxDP     DIISErr   Damp  Time(sec)
-------------------------------------------------------------------------------------------
               ***  Starting incremental Fock matrix formation  ***
    1    -307.9025424530444752     0.00e+00  8.12e-04  1.59e-02  5.38e-02  0.700  12.3
    2    -307.9065756060680314    -4.03e-03  7.10e-04  1.37e-02  3.88e-02  0.700   4.9
                               ***Turning on AO-DIIS***
    3    -307.9096181068232454    -3.04e-03  5.93e-04  1.21e-02  2.75e-02  0.700   4.9
    4    -307.9118596733663935    -2.24e-03  1.49e-03  3.14e-02  1.93e-02  0.000   4.8
                              *** Initializing SOSCF ***
---------------------------------------S-O-S-C-F--------------------------------------
Iteration    Energy (Eh)           Delta-E    RMSDP     MaxDP     MaxGrad    Time(sec)
--------------------------------------------------------------------------------------
    5    -307.9175779232214154    -5.72e-03  7.21e-05  1.94e-03  1.55e-03     5.8
               *** Restarting incremental Fock matrix formation ***
    6    -307.9176120055019510    -3.41e-05  3.50e-05  9.47e-04  5.01e-04    11.8
    7    -307.9176177037721800    -5.70e-06  1.97e-05  5.61e-04  1.73e-04     8.7
    8    -307.9176185080702908    -8.04e-07  4.45e-06  1.87e-04  8.19e-05     9.2
    9    -307.9176186873038432    -1.79e-07  2.42e-06  6.66e-05  4.93e-05     8.3
   10    -307.9176187222554972    -3.50e-08  5.65e-07  2.75e-05  1.70e-05     8.3
                 **** Energy Check signals convergence ****

               *****************************************************
               *                     SUCCESS                       *
               *           SCF CONVERGED AFTER  10 CYCLES          *
               *****************************************************


------------------
NL GRID GENERATION
------------------

General Integration Accuracy     IntAcc      ... 4.004
Radial Grid Type                 RadialGrid  ... OptM3 with GC (2021)
Angular Grid (max. ang.)         AngularGrid ... 2 (Lebedev-110)
Angular grid pruning method      GridPruning ... 4 (adaptive)
Weight generation scheme         WeightScheme... mBecke (2022)
Basis function cutoff            BFCut       ... 1.0000e-10
Integration weight cutoff        WCut        ... 1.0000e-14
Partially contracted basis set               ... off
Rotationally invariant grid construction     ... off
Angular grids for H and He will be reduced by one unit

Total number of grid points                  ...    19159
Total number of batches                      ...      305
Average number of points per batch           ...       62
Average number of grid points per atom       ...     1368
Final grid set up in    0.2 sec

-------------------------------------------------------------------------------
                    post-SCF DFT-NL dispersion correction                      
-------------------------------------------------------------------------------

SCF Energy:     -307.917618722 
NL    Energy:      0.187764101 
SC+NL Energy:   -307.729854621 
NL done in  :              2.0 sec
-------------------------------------------------------------------------------
Recomputing exchange energy using gridx3       ... done (   20.704 sec)
Old exchange energy                            :    -12.972036564 Eh
New exchange energy                            :    -12.972030117 Eh
Exchange energy change after final integration :      0.000006447 Eh
Total energy after final integration           :   -307.729848174 Eh
             **** ENERGY FILE WAS UPDATED (sp.en.tmp) ****

----------------
TOTAL SCF ENERGY
----------------

Total Energy       :       -307.72984817421644 Eh           -8373.75488 eV

Components:
Nuclear Repulsion  :        245.65162622447238 Eh            6684.52058 eV
Electronic Energy  :       -553.56924494672785 Eh          -15063.38496 eV
One Electron Energy:       -904.63711847848208 Eh          -24616.42747 eV
Two Electron Energy:        351.06787353175417 Eh            9553.04251 eV

Virial components:
Potential Energy   :       -614.25073766875335 Eh          -16714.61233 eV
Kinetic Energy     :        306.52088949453685 Eh            8340.85744 eV
Virial Ratio       :          2.00394413144785

DFT components:
N(Alpha)           :       24.000000221765 electrons
N(Beta)            :       24.000000221765 electrons
N(Total)           :       48.000000443529 electrons
E(X)               :      -27.048852505110 Eh       
E(C)               :       -1.988392504206 Eh       
NL Energy, E(C,NL) :        0.187764101040 Eh       
E(XC)              :      -28.849480908276 Eh       

---------------
SCF CONVERGENCE
---------------

  Last Energy change         ...    3.4952e-08  Tolerance :   1.0000e-07
  Last MAX-Density change    ...    2.7516e-05  Tolerance :   1.0000e-05
  Last RMS-Density change    ...    5.6537e-07  Tolerance :   1.0000e-06
  Last DIIS Error            ...    1.5492e-03  Tolerance :   1.0000e-07
  Last Orbital Gradient      ...    1.6986e-05  Tolerance :   1.0000e-04
  Last Orbital Rotation      ...    2.2515e-05  Tolerance :   1.0000e-04


----------------
ORBITAL ENERGIES
----------------

  NO   OCC          E(Eh)            E(eV) 
   0   2.0000     -19.261023      -524.1191 
   1   2.0000     -19.198496      -522.4176 
   2   2.0000     -10.399632      -282.9884 
   3   2.0000     -10.325827      -280.9800 
   4   2.0000     -10.286084      -279.8986 
   5   2.0000     -10.273838      -279.5653 
   6   2.0000      -1.236657       -33.6511 
   7   2.0000      -1.146224       -31.1903 
   8   2.0000      -0.929266       -25.2866 
   9   2.0000      -0.853915       -23.2362 
  10   2.0000      -0.775128       -21.0923 
  11   2.0000      -0.683510       -18.5993 
  12   2.0000      -0.624114       -16.9830 
  13   2.0000      -0.603090       -16.4109 
  14   2.0000      -0.597695       -16.2641 
  15   2.0000      -0.557485       -15.1699 
  16   2.0000      -0.545632       -14.8474 
  17   2.0000      -0.519559       -14.1379 
  18   2.0000      -0.490688       -13.3523 
  19   2.0000      -0.471618       -12.8334 
  20   2.0000      -0.466503       -12.6942 
  21   2.0000      -0.461769       -12.5654 
  22   2.0000      -0.413332       -11.2473 
  23   2.0000      -0.383367       -10.4319 
  24   0.0000       0.092338         2.5126 
  25   0.0000       0.119004         3.2383 
  26   0.0000       0.139433         3.7942 
  27   0.0000       0.154404         4.2015 
  28   0.0000       0.171483         4.6663 
  29   0.0000       0.173760         4.7283 
  30   0.0000       0.186519         5.0755 
  31   0.0000       0.197942         5.3863 
  32   0.0000       0.205255         5.5853 
  33   0.0000       0.209257         5.6942 
  34   0.0000       0.241873         6.5817 
*Only the first 10 virtual orbitals were printed.

                    ********************************
                    * MULLIKEN POPULATION ANALYSIS *
                    ********************************

-----------------------
MULLIKEN ATOMIC CHARGES
-----------------------
   0 C :   -0.366165
   1 C :   -0.141751
   2 C :    0.314091
   3 O :   -0.346617
   4 O :   -0.250666
   5 C :   -0.185959
   6 H :    0.131789
   7 H :    0.116765
   8 H :    0.119208
   9 H :    0.110356
  10 H :    0.114017
  11 H :    0.130272
  12 H :    0.127052
  13 H :    0.127609
Sum of atomic charges:    0.0000000

--------------------------------
MULLIKEN REDUCED ORBITAL CHARGES
--------------------------------
  0 C s       :     3.246273  s :     3.246273
      pz      :     0.971692  p :     3.059639
      px      :     1.012424
      py      :     1.075523
      dz2     :     0.016266  d :     0.056919
      dxz     :     0.008933
      dyz     :     0.013030
      dx2y2   :     0.010844
      dxy     :     0.007846
      f0      :     0.000503  f :     0.003335
      f+1     :     0.000833
      f-1     :     0.000348
      f+2     :     0.000517
      f-2     :     0.000571
      f+3     :     0.000054
      f-3     :     0.000508

  1 C s       :     3.157912  s :     3.157912
      pz      :     0.982622  p :     2.895236
      px      :     0.920564
      py      :     0.992049
      dz2     :     0.021147  d :     0.083349
      dxz     :     0.013497
      dyz     :     0.015848
      dx2y2   :     0.018969
      dxy     :     0.013887
      f0      :     0.000756  f :     0.005254
      f+1     :     0.000924
      f-1     :     0.000521
      f+2     :     0.000645
      f-2     :     0.000831
      f+3     :     0.000748
      f-3     :     0.000829

  2 C s       :     3.099878  s :     3.099878
      pz      :     0.728055  p :     2.296647
      px      :     0.814053
      py      :     0.754539
      dz2     :     0.014083  d :     0.265235
      dxz     :     0.025470
      dyz     :     0.070557
      dx2y2   :     0.057917
      dxy     :     0.097208
      f0      :     0.002464  f :     0.024149
      f+1     :     0.001621
      f-1     :     0.001811
      f+2     :     0.003166
      f-2     :     0.002567
      f+3     :     0.007797
      f-3     :     0.004724

  3 O s       :     3.794798  s :     3.794798
      pz      :     1.431028  p :     4.518109
      px      :     1.739704
      py      :     1.347377
      dz2     :     0.002773  d :     0.031801
      dxz     :     0.000350
      dyz     :     0.011130
      dx2y2   :     0.009064
      dxy     :     0.008485
      f0      :     0.000203  f :     0.001908
      f+1     :     0.000026
      f-1     :     0.000186
      f+2     :     0.000420
      f-2     :     0.000052
      f+3     :     0.000547
      f-3     :     0.000475

  4 O s       :     3.742049  s :     3.742049
      pz      :     1.678860  p :     4.468022
      px      :     1.227574
      py      :     1.561588
      dz2     :     0.004600  d :     0.038591
      dxz     :     0.005423
      dyz     :     0.005281
      dx2y2   :     0.007811
      dxy     :     0.015476
      f0      :     0.000275  f :     0.002004
      f+1     :     0.000329
      f-1     :     0.000165
      f+2     :     0.000155
      f-2     :     0.000313
      f+3     :     0.000357
      f-3     :     0.000410

  5 C s       :     3.231720  s :     3.231720
      pz      :     1.072309  p :     2.858960
      px      :     0.764957
      py      :     1.021693
      dz2     :     0.010009  d :     0.088156
      dxz     :     0.020775
      dyz     :     0.017747
      dx2y2   :     0.015581
      dxy     :     0.024044
      f0      :     0.000561  f :     0.007123
      f+1     :     0.000999
      f-1     :     0.000931
      f+2     :     0.000819
      f-2     :     0.001062
      f+3     :     0.001706
      f-3     :     0.001046

  6 H s       :     0.847194  s :     0.847194
      pz      :     0.004546  p :     0.021018
      px      :     0.004256
      py      :     0.012215

  7 H s       :     0.862356  s :     0.862356
      pz      :     0.009818  p :     0.020879
      px      :     0.005225
      py      :     0.005835

  8 H s       :     0.859714  s :     0.859714
      pz      :     0.004245  p :     0.021078
      px      :     0.011249
      py      :     0.005584

  9 H s       :     0.868153  s :     0.868153
      pz      :     0.004659  p :     0.021492
      px      :     0.004115
      py      :     0.012718

 10 H s       :     0.864567  s :     0.864567
      pz      :     0.010147  p :     0.021416
      px      :     0.005589
      py      :     0.005680

 11 H s       :     0.849501  s :     0.849501
      pz      :     0.009205  p :     0.020227
      px      :     0.004112
      py      :     0.006910

 12 H s       :     0.852784  s :     0.852784
      pz      :     0.009958  p :     0.020164
      px      :     0.002772
      py      :     0.007434

 13 H s       :     0.852106  s :     0.852106
      pz      :     0.004472  p :     0.020285
      px      :     0.006608
      py      :     0.009205


------------------------
MULLIKEN OVERLAP CHARGES
------------------------
B(  0-C ,  1-C ) :   0.5917 B(  0-C ,  6-H ) :   0.8268 B(  0-C ,  7-H ) :   0.8064 
B(  0-C ,  8-H ) :   0.8285 B(  0-C , 10-H ) :  -0.0598 B(  1-C ,  2-C ) :   0.6521 
B(  1-C ,  3-O ) :  -0.1349 B(  1-C ,  4-O ) :  -0.1665 B(  1-C ,  6-H ) :  -0.0761 
B(  1-C ,  7-H ) :  -0.0632 B(  1-C ,  8-H ) :  -0.0805 B(  1-C ,  9-H ) :   0.8092 
B(  1-C , 10-H ) :   0.8262 B(  2-C ,  3-O ) :   1.3582 B(  2-C ,  4-O ) :   0.7533 
B(  2-C ,  5-C ) :  -0.0984 B(  2-C ,  9-H ) :  -0.0862 B(  2-C , 10-H ) :  -0.0617 
B(  3-O ,  4-O ) :  -0.1961 B(  4-O ,  5-C ) :   0.4718 B(  4-O , 11-H ) :  -0.0687 
B(  4-O , 12-H ) :  -0.0783 B(  4-O , 13-H ) :  -0.0628 B(  5-C , 11-H ) :   0.8442 
B(  5-C , 12-H ) :   0.8394 B(  5-C , 13-H ) :   0.7872 B(  9-H , 10-H ) :  -0.0562 
B( 11-H , 12-H ) :  -0.0745 B( 11-H , 13-H ) :  -0.0505 B( 12-H , 13-H ) :  -0.0509 



                     *******************************
                     * LOEWDIN POPULATION ANALYSIS *
                     *******************************

----------------------
LOEWDIN ATOMIC CHARGES
----------------------
   0 C :   -0.289698
   1 C :   -0.243632
   2 C :   -0.469558
   3 O :    0.098686
   4 O :    0.218195
   5 C :   -0.296016
   6 H :    0.124403
   7 H :    0.120133
   8 H :    0.118982
   9 H :    0.140816
  10 H :    0.147024
  11 H :    0.111098
  12 H :    0.110276
  13 H :    0.109291

-------------------------------
LOEWDIN REDUCED ORBITAL CHARGES
-------------------------------
  0 C s       :     2.828854  s :     2.828854
      pz      :     1.049454  p :     3.176838
      px      :     1.047492
      py      :     1.079891
      dz2     :     0.070085  d :     0.259556
      dxz     :     0.049659
      dyz     :     0.051904
      dx2y2   :     0.052232
      dxy     :     0.035676
      f0      :     0.004175  f :     0.024450
      f+1     :     0.004337
      f-1     :     0.003859
      f+2     :     0.002756
      f-2     :     0.004712
      f+3     :     0.001175
      f-3     :     0.003436

  1 C s       :     2.779433  s :     2.779433
      pz      :     1.033291  p :     3.066024
      px      :     1.006775
      py      :     1.025958
      dz2     :     0.078370  d :     0.360933
      dxz     :     0.077884
      dyz     :     0.059312
      dx2y2   :     0.082802
      dxy     :     0.062565
      f0      :     0.005682  f :     0.037243
      f+1     :     0.005614
      f-1     :     0.004641
      f+2     :     0.003516
      f-2     :     0.006838
      f+3     :     0.005088
      f-3     :     0.005864

  2 C s       :     2.760862  s :     2.760862
      pz      :     0.722245  p :     2.625576
      px      :     0.923669
      py      :     0.979663
      dz2     :     0.071878  d :     0.932199
      dxz     :     0.084757
      dyz     :     0.195262
      dx2y2   :     0.237480
      dxy     :     0.342822
      f0      :     0.009794  f :     0.150921
      f+1     :     0.008089
      f-1     :     0.013169
      f+2     :     0.020428
      f-2     :     0.017154
      f+3     :     0.051018
      f-3     :     0.031268

  3 O s       :     3.395919  s :     3.395919
      pz      :     1.344030  p :     4.432551
      px      :     1.592388
      py      :     1.496133
      dz2     :     0.008158  d :     0.066786
      dxz     :     0.000433
      dyz     :     0.014131
      dx2y2   :     0.025021
      dxy     :     0.019043
      f0      :     0.000447  f :     0.006057
      f+1     :     0.000123
      f-1     :     0.000961
      f+2     :     0.000793
      f-2     :     0.000078
      f+3     :     0.001786
      f-3     :     0.001868

  4 O s       :     3.267081  s :     3.267081
      pz      :     1.562128  p :     4.403581
      px      :     1.285989
      py      :     1.555464
      dz2     :     0.011087  d :     0.104719
      dxz     :     0.018644
      dyz     :     0.009769
      dx2y2   :     0.027149
      dxy     :     0.038070
      f0      :     0.000603  f :     0.006425
      f+1     :     0.000697
      f-1     :     0.000371
      f+2     :     0.000444
      f-2     :     0.000970
      f+3     :     0.001825
      f-3     :     0.001516

  5 C s       :     2.864296  s :     2.864296
      pz      :     1.097810  p :     3.020704
      px      :     0.852999
      py      :     1.069895
      dz2     :     0.045959  d :     0.359890
      dxz     :     0.070924
      dyz     :     0.071564
      dx2y2   :     0.058551
      dxy     :     0.112892
      f0      :     0.004547  f :     0.051127
      f+1     :     0.008806
      f-1     :     0.003710
      f+2     :     0.006545
      f-2     :     0.005257
      f+3     :     0.012130
      f-3     :     0.010132

  6 H s       :     0.814357  s :     0.814357
      pz      :     0.013491  p :     0.061240
      px      :     0.012915
      py      :     0.034834

  7 H s       :     0.819198  s :     0.819198
      pz      :     0.026414  p :     0.060669
      px      :     0.016360
      py      :     0.017894

  8 H s       :     0.820352  s :     0.820352
      pz      :     0.013408  p :     0.060666
      px      :     0.030126
      py      :     0.017132

  9 H s       :     0.800254  s :     0.800254
      pz      :     0.013450  p :     0.058930
      px      :     0.012200
      py      :     0.033279

 10 H s       :     0.794355  s :     0.794355
      pz      :     0.025422  p :     0.058621
      px      :     0.015797
      py      :     0.017402

 11 H s       :     0.827253  s :     0.827253
      pz      :     0.028254  p :     0.061649
      px      :     0.012484
      py      :     0.020910

 12 H s       :     0.828329  s :     0.828329
      pz      :     0.029880  p :     0.061395
      px      :     0.009119
      py      :     0.022396

 13 H s       :     0.830263  s :     0.830263
      pz      :     0.014199  p :     0.060446
      px      :     0.018511
      py      :     0.027735


---------------------------------
LOEWDIN BOND ORDERS (THRESH 0.050000)
---------------------------------
B(  0-C ,  1-C ) :   1.2579 B(  0-C ,  2-C ) :   0.1632 B(  0-C ,  6-H ) :   0.9061 
B(  0-C ,  7-H ) :   0.9087 B(  0-C ,  8-H ) :   0.9083 B(  0-C ,  9-H ) :   0.0721 
B(  0-C , 10-H ) :   0.0733 B(  1-C ,  2-C ) :   1.1692 B(  1-C ,  3-O ) :   0.1592 
B(  1-C ,  4-O ) :   0.1361 B(  1-C ,  6-H ) :   0.0757 B(  1-C ,  7-H ) :   0.0754 
B(  1-C ,  8-H ) :   0.0803 B(  1-C ,  9-H ) :   0.8465 B(  1-C , 10-H ) :   0.8383 
B(  2-C ,  3-O ) :   2.6520 B(  2-C ,  4-O ) :   1.6589 B(  2-C ,  5-C ) :   0.1987 
B(  2-C ,  9-H ) :   0.0802 B(  2-C , 10-H ) :   0.0860 B(  3-O ,  4-O ) :   0.1729 
B(  3-O ,  5-C ) :   0.0673 B(  4-O ,  5-C ) :   1.3777 B(  4-O , 13-H ) :   0.0517 
B(  5-C , 11-H ) :   0.9372 B(  5-C , 12-H ) :   0.9381 B(  5-C , 13-H ) :   0.9405 


------------------------------------------
LOEWDIN REDUCED ORBITAL POPULATIONS PER MO
-------------------------------------------
THRESHOLD FOR PRINTING IS 0.1%%
                      0         1         2         3         4         5   
                 -19.26102 -19.19850 -10.39963 -10.32583 -10.28608 -10.27384
                   2.00000   2.00000   2.00000   2.00000   2.00000   2.00000
                  --------  --------  --------  --------  --------  --------
 0 C  s               0.0       0.0       0.0       0.0       0.0      99.4
 0 C  dxz             0.0       0.0       0.0       0.0       0.1       0.0
 1 C  s               0.0       0.0       0.0       0.0      99.2       0.0
 1 C  dxz             0.0       0.0       0.0       0.0       0.0       0.1
 2 C  s               0.0       0.0      99.0       0.0       0.0       0.0
 2 C  dx2y2           0.0       0.1       0.0       0.0       0.0       0.0
 3 O  s               0.0      99.6       0.0       0.0       0.0       0.0
 3 O  py              0.0       0.0       0.2       0.0       0.0       0.0
 3 O  dx2y2           0.0       0.0       0.2       0.0       0.0       0.0
 4 O  s              99.7       0.0       0.0       0.0       0.0       0.0
 5 C  s               0.0       0.0       0.0      99.6       0.0       0.0

                      6         7         8         9        10        11   
                  -1.23666  -1.14622  -0.92927  -0.85391  -0.77513  -0.68351
                   2.00000   2.00000   2.00000   2.00000   2.00000   2.00000
                  --------  --------  --------  --------  --------  --------
 0 C  s               0.1       0.0      16.1       8.3      16.2       0.4
 0 C  pz              0.1       0.0       1.9       0.1       3.4       2.2
 0 C  px              0.2       0.0       1.4       0.0       2.2       0.0
 0 C  dz2             0.0       0.0       0.1       0.0       0.1       0.2
 0 C  dxz             0.0       0.0       0.6       0.0       0.5       0.1
 0 C  dx2y2           0.0       0.0       0.1       0.0       0.1       0.0
 1 C  s               1.1       0.1      25.1       1.0       7.6       2.0
 1 C  pz              0.1       0.0       1.3       0.6       5.6       2.4
 1 C  px              2.0       0.0       0.1       3.8       4.7       2.4
 1 C  py              0.3       0.7       0.1       0.0       0.0       0.1
 1 C  dz2             0.1       0.0       0.0       0.3       0.3       0.0
 1 C  dxz             0.0       0.0       0.1       0.5       0.8       0.0
 1 C  dx2y2           0.2       0.1       0.2       0.1       0.1       0.5
 1 C  dxy             0.1       0.3       0.0       0.0       0.1       0.1
 1 C  f+1             0.0       0.0       0.1       0.0       0.0       0.0
 2 C  s              18.1       3.3       3.7       2.4       1.7       4.2
 2 C  pz              0.3       0.4       0.1       0.1       1.6       0.9
 2 C  px              4.2       1.1       7.9       0.8       5.3       1.4
 2 C  py              0.1      22.4       4.9       2.9       1.0       2.0
 2 C  dz2             1.4       0.2       0.1       0.0       0.0       0.2
 2 C  dxz             0.3       0.2       0.0       0.0       0.2       0.1
 2 C  dyz             0.2       0.1       0.0       0.0       0.1       0.0
 2 C  dx2y2           0.4       2.7       0.5       0.2       0.2       0.2
 2 C  dxy             0.8       2.3       0.4       0.4       0.6       0.1
 2 C  f-1             0.0       0.3       0.0       0.0       0.0       0.0
 2 C  f-2             0.1       0.0       0.0       0.0       0.0       0.0
 2 C  f+3             0.2       0.0       0.0       0.1       0.0       0.0
 2 C  f-3             0.6       0.1       0.0       0.0       0.0       0.0
 3 O  s              14.3      35.7       1.6       0.3       0.6       2.7
 3 O  pz              0.0       0.0       0.0       0.0       0.2       0.4
 3 O  px              0.0       0.3       0.4       0.0       0.6       0.6
 3 O  py              3.4       2.8       0.4       0.3       0.3       3.8
 3 O  dx2y2           0.2       0.1       0.0       0.0       0.0       0.1
 4 O  s              33.1      18.2       0.1       0.8       1.3       4.7
 4 O  pz              0.0       0.0       0.3       1.7       0.0       1.1
 4 O  px              0.1       0.4       4.8      17.9       0.1      14.6
 4 O  py              2.6       0.3       0.0       0.1       0.1      11.6
 4 O  dx2y2           0.0       0.1       0.0       0.1       0.1       0.0
 4 O  dxy             0.1       0.0       0.1       0.6       0.0       0.3
 5 C  s               4.2       2.4       2.7      24.6       5.2       3.4
 5 C  pz              0.4       0.1       0.0       0.1       0.1       0.4
 5 C  px              4.9       1.5       0.1       0.6       1.7       6.1
 5 C  py              0.4       0.8       0.0       0.0       0.1       9.9
 5 C  dz2             0.4       0.1       0.0       0.0       0.1       0.4
 5 C  dxz             0.3       0.1       0.0       0.0       0.0       0.1
 5 C  dx2y2           0.8       0.3       0.0       0.2       0.1       0.0
 5 C  dxy             0.5       0.5       0.0       0.0       0.1       1.2
 5 C  f-3             0.1       0.1       0.0       0.0       0.0       0.2
 6 H  s               0.0       0.0       3.2       2.2       6.2       0.4
 6 H  py              0.0       0.0       0.3       0.2       0.6       0.0
 7 H  s               0.0       0.0       3.3       2.0       6.5       0.8
 7 H  pz              0.0       0.0       0.2       0.1       0.3       0.0
 7 H  px              0.0       0.0       0.0       0.0       0.2       0.0
 7 H  py              0.0       0.0       0.1       0.0       0.1       0.0
 8 H  s               0.0       0.0       3.2       2.4       6.8       0.1
 8 H  px              0.0       0.0       0.2       0.2       0.4       0.0
 8 H  py              0.0       0.0       0.0       0.0       0.1       0.0
 9 H  s               0.2       0.0       5.4       0.1       3.1       1.4
 9 H  py              0.0       0.0       0.5       0.0       0.4       0.1
10 H  s               0.2       0.1       5.0       0.4       3.7       3.1
10 H  pz              0.0       0.0       0.3       0.0       0.1       0.1
10 H  px              0.0       0.0       0.1       0.0       0.2       0.0
11 H  s               0.6       0.2       0.6       6.4       2.1       5.0
11 H  pz              0.0       0.0       0.0       0.4       0.2       0.4
11 H  py              0.0       0.0       0.0       0.2       0.1       0.0
12 H  s               0.6       0.2       0.5       6.5       2.0       5.3
12 H  pz              0.0       0.0       0.0       0.4       0.1       0.3
12 H  py              0.0       0.0       0.0       0.3       0.1       0.0
13 H  s               0.5       0.4       0.6       7.7       2.4       0.5
13 H  px              0.0       0.0       0.0       0.3       0.0       0.0
13 H  py              0.0       0.0       0.0       0.5       0.2       0.2

                     12        13        14        15        16        17   
                  -0.62411  -0.60309  -0.59769  -0.55748  -0.54563  -0.51956
                   2.00000   2.00000   2.00000   2.00000   2.00000   2.00000
                  --------  --------  --------  --------  --------  --------
 0 C  s               0.0       0.1       0.1       0.0       0.0       0.1
 0 C  pz              2.6       0.1       2.8       2.0       0.4      14.5
 0 C  px              1.8       2.1       0.0       3.1      16.4       0.3
 0 C  py              3.3       2.5       0.9      16.8       1.3       0.5
 0 C  dz2             0.2       0.0       0.1       0.0       0.0       0.0
 0 C  dxz             0.0       0.0       0.1       0.0       0.1       0.3
 0 C  dyz             0.2       0.0       0.0       0.0       0.0       0.1
 0 C  dx2y2           0.0       0.0       0.0       0.2       0.0       0.0
 0 C  dxy             0.0       0.1       0.0       0.1       0.2       0.0
 1 C  s               1.1       0.2       0.3       0.0       0.3       0.1
 1 C  pz              4.7       1.9       0.3       2.6       6.0       4.0
 1 C  px              7.0       0.1       4.1       1.3       0.6       7.4
 1 C  py              9.6       6.6       2.3      13.2       0.4       0.0
 1 C  dz2             0.0       0.0       0.1       0.0       0.4       0.0
 1 C  dxz             0.1       0.1       0.1       0.1       0.0       0.0
 1 C  dyz             0.1       0.1       0.0       0.0       0.2       0.1
 1 C  dx2y2           0.1       0.1       0.0       0.5       0.1       0.0
 1 C  dxy             0.5       0.1       0.0       0.5       0.0       0.1
 2 C  s               1.6       1.1       0.3       0.6       0.4       0.1
 2 C  pz              1.1      10.1       3.6       0.1       1.3      10.5
 2 C  px             13.2       0.0       0.3       0.0       1.8       1.0
 2 C  py              0.2       0.9       3.0       3.9       1.0       0.4
 2 C  dz2             0.1       0.0       0.4       0.1       0.3       0.0
 2 C  dxz             0.0       0.2       0.7       0.2       0.1       0.2
 2 C  dyz             0.1       0.0       0.0       0.0       0.1       0.2
 2 C  dx2y2           0.0       1.6       2.8       0.1       0.6       0.0
 2 C  dxy             0.5       0.3       0.0       0.6       0.1       0.1
 2 C  f0              0.0       0.1       0.0       0.0       0.0       0.1
 2 C  f+2             0.0       0.0       0.0       0.0       0.0       0.1
 2 C  f+3             0.0       0.0       0.0       0.2       0.1       0.1
 3 O  s               1.0       4.0       4.4       3.1       1.0       0.1
 3 O  pz              0.2       4.9       2.8       0.0       1.3      11.5
 3 O  px             10.1       0.4       0.0       0.1       0.0       0.0
 3 O  py              1.7      11.9      12.1      17.0       7.6       1.0
 3 O  dyz             0.0       0.2       0.1       0.0       0.0       0.2
 3 O  dx2y2           0.0       0.1       0.1       0.2       0.1       0.0
 3 O  dxy             0.4       0.0       0.0       0.0       0.0       0.0
 4 O  s               0.4       0.1       0.7       0.3       0.1       0.0
 4 O  pz              4.5      14.5      10.3       0.0       0.4       0.0
 4 O  px              0.1       5.3       2.3       3.8       3.7       2.1
 4 O  py              6.4       0.5      12.7       0.1       2.2       0.1
 4 O  dxz             0.0       0.0       0.0       0.0       0.1       0.2
 4 O  dyz             0.0       0.1       0.1       0.0       0.0       0.0
 4 O  dx2y2           0.2       0.0       0.1       0.0       0.0       0.0
 4 O  dxy             0.0       0.0       0.0       0.0       0.2       0.2
 5 C  s               0.0       0.1       0.4       0.1       0.1       0.0
 5 C  pz              2.6      13.8       3.1       1.0      14.4       6.5
 5 C  px              0.2       0.2      11.6       0.3       3.1       8.5
 5 C  py              6.2       0.4       1.9       2.4       5.7       5.7
 5 C  dz2             0.1       0.0       0.0       0.0       0.1       0.2
 5 C  dxz             0.0       0.3       0.0       0.0       0.0       0.0
 5 C  dyz             0.0       0.1       0.1       0.0       0.1       0.6
 5 C  dx2y2           0.0       0.0       0.3       0.0       0.0       0.0
 5 C  dxy             0.1       0.0       0.0       0.0       0.5       0.3
 6 H  s               1.3       1.6       0.0       6.6       0.1       0.1
 6 H  pz              0.0       0.0       0.0       0.1       0.0       0.2
 6 H  px              0.0       0.0       0.0       0.0       0.2       0.0
 6 H  py              0.0       0.1       0.0       0.1       0.0       0.0
 7 H  s               0.3       0.2       1.5       5.5       0.8       5.6
 7 H  pz              0.0       0.0       0.0       0.2       0.0       0.0
 7 H  px              0.0       0.0       0.0       0.0       0.1       0.1
 8 H  s               1.4       0.3       0.1       0.0       8.9       0.0
 8 H  pz              0.0       0.0       0.0       0.0       0.0       0.2
 8 H  px              0.1       0.0       0.0       0.0       0.2       0.0
 8 H  py              0.0       0.0       0.0       0.2       0.1       0.0
 9 H  s               6.3       2.9       0.7       4.8       0.2       0.2
 9 H  pz              0.0       0.1       0.0       0.1       0.1       0.0
 9 H  px              0.2       0.0       0.0       0.0       0.0       0.1
 9 H  py              0.3       0.1       0.0       0.1       0.0       0.0
10 H  s               2.2       1.1       2.4       5.0       1.1       0.1
10 H  pz              0.0       0.0       0.1       0.2       0.0       0.0
10 H  px              0.0       0.0       0.0       0.0       0.0       0.1
10 H  py              0.3       0.0       0.0       0.0       0.0       0.0
11 H  s               1.9       2.1       2.4       0.1       5.4       1.5
11 H  px              0.1       0.0       0.0       0.0       0.2       0.0
11 H  py              0.0       0.1       0.1       0.0       0.0       0.2
12 H  s               0.0       5.0       1.3       1.6       1.3       7.1
12 H  pz              0.0       0.1       0.0       0.0       0.0       0.2
12 H  px              0.0       0.0       0.1       0.0       0.1       0.1
12 H  py              0.1       0.1       0.0       0.0       0.2       0.1
13 H  s               2.4       0.1       4.7       0.1       7.2       5.5
13 H  pz              0.0       0.1       0.1       0.0       0.1       0.2
13 H  py              0.0       0.0       0.2       0.0       0.1       0.1

                     18        19        20        21        22        23   
                  -0.49069  -0.47162  -0.46650  -0.46177  -0.41333  -0.38337
                   2.00000   2.00000   2.00000   2.00000   2.00000   2.00000
                  --------  --------  --------  --------  --------  --------
 0 C  s               0.0       0.2       0.2       0.0       0.0       0.0
 0 C  pz              5.0       5.5       7.7       4.2       0.1       0.0
 0 C  px              9.9       4.2       4.0       5.9       0.0       0.8
 0 C  py             10.6       9.9       3.0       4.6       0.4       0.1
 0 C  dz2             0.4       0.3       0.0       1.9       0.0       0.1
 0 C  dxz             0.0       0.1       0.3       0.3       0.0       0.0
 0 C  dyz             0.0       0.6       0.3       1.1       0.0       0.1
 0 C  dx2y2           1.2       0.5       0.1       0.1       0.0       0.3
 0 C  dxy             0.8       0.2       0.2       0.0       0.0       0.1
 1 C  s               0.1       0.2       0.0       0.1       0.0       0.3
 1 C  pz              1.3       7.2       8.7       4.7       0.1       0.1
 1 C  px              0.6       2.2       2.6       7.1       0.0       4.4
 1 C  py              0.8       7.9       1.2       4.6       0.1       3.3
 1 C  dz2             0.6       0.2       0.1       1.7       0.0       0.0
 1 C  dxz             0.0       0.3       0.9       0.6       0.0       0.0
 1 C  dyz             0.2       0.9       0.2       1.1       0.0       0.0
 1 C  dx2y2           0.4       1.1       0.0       0.0       0.0       0.5
 1 C  dxy             0.7       0.3       0.1       0.0       0.0       0.0
 1 C  f-2             0.0       0.0       0.1       0.1       0.0       0.0
 2 C  s               0.1       0.1       0.3       0.5       0.0       0.4
 2 C  pz              0.3       2.2       2.5       0.4       0.5       0.1
 2 C  px              5.5       0.2       0.8       0.8       0.0       1.7
 2 C  py              0.0       1.9       2.2       1.5       0.0       0.5
 2 C  dz2             0.0       0.0       0.3       0.0       0.4       0.0
 2 C  dxz             0.0       0.3       1.3       0.1       0.3       0.0
 2 C  dyz             0.0       0.9       0.6       0.1       6.3       0.9
 2 C  dx2y2           0.1       1.1       0.3       0.1       0.0       0.7
 2 C  dxy             0.6       0.0       0.0       0.8       0.9       8.5
 2 C  f+2             0.0       0.1       0.1       0.1       0.3       0.2
 2 C  f-2             0.0       0.0       0.1       0.0       0.4       0.0
 2 C  f+3             0.1       0.0       0.2       0.4       0.0       1.1
 2 C  f-3             0.0       0.0       0.0       0.1       0.1       0.4
 3 O  s               0.0       0.5       0.6       0.2       0.0       0.0
 3 O  pz              0.3       8.4       5.9       0.4      25.3       5.6
 3 O  px              8.2       0.9       0.5       0.0       2.9      54.5
 3 O  py              0.1       3.2       6.0       1.9       0.2       0.8
 3 O  dxy             0.1       0.0       0.0       0.0       0.0       0.1
 4 O  s               0.5       0.4       1.3       1.5       0.0       0.2
 4 O  pz              0.5       1.2       2.8       0.3      40.1       0.1
 4 O  px              0.1       0.2       0.1       4.1       3.0       1.6
 4 O  py              3.2       5.9      14.9       9.5       0.1       7.3
 4 O  dz2             0.0       0.0       0.1       0.0       0.0       0.0
 4 O  dxz             0.1       0.1       0.0       0.2       0.0       0.0
 4 O  dx2y2           0.0       0.0       0.3       0.3       0.0       0.0
 4 O  dxy             0.2       0.0       0.1       0.0       0.0       0.0
 5 C  s               0.0       0.0       0.1       0.2       0.0       0.1
 5 C  pz              2.5       2.4       3.0       0.2       4.4       0.0
 5 C  px              0.4       0.1       0.1       2.2       0.3       0.8
 5 C  py              8.6       2.7       5.8       2.7       0.0       0.1
 5 C  dz2             0.1       0.0       0.2       0.0       0.4       0.0
 5 C  dxz             0.3       0.3       0.0       0.2       1.6       0.0
 5 C  dyz             0.0       0.0       0.5       0.0       2.0       0.0
 5 C  dx2y2           0.0       0.0       0.4       0.1       0.2       0.4
 5 C  dxy             1.1       0.5       0.5       0.3       0.1       0.0
 5 C  f+1             0.0       0.0       0.0       0.0       0.2       0.0
 5 C  f+2             0.0       0.0       0.0       0.0       0.1       0.0
 5 C  f+3             0.1       0.0       0.2       0.0       0.0       0.1
 6 H  s               6.1       9.0       0.8       2.9       0.2       0.2
 6 H  pz              0.0       0.0       0.1       0.1       0.0       0.0
 6 H  px              0.2       0.0       0.1       0.1       0.0       0.0
 6 H  py              0.1       0.1       0.0       0.0       0.0       0.0
 7 H  s               1.5       0.3       2.7       9.6       0.1       0.0
 7 H  pz              0.0       0.2       0.0       0.1       0.0       0.0
 7 H  px              0.0       0.0       0.2       0.0       0.0       0.0
 7 H  py              0.3       0.1       0.0       0.0       0.0       0.0
 8 H  s              12.6       0.0       2.2       2.1       0.0       0.8
 8 H  pz              0.0       0.1       0.2       0.0       0.0       0.0
 8 H  px              0.3       0.1       0.0       0.0       0.0       0.0
 8 H  py              0.0       0.1       0.0       0.2       0.0       0.0
 9 H  s               1.1       8.9       0.2       2.9       0.0       1.5
 9 H  pz              0.0       0.0       0.1       0.1       0.0       0.0
 9 H  px              0.0       0.0       0.0       0.1       0.0       0.1
 9 H  py              0.0       0.1       0.0       0.0       0.0       0.0
10 H  s               0.8       0.0       3.3      11.2       0.1       0.1
10 H  pz              0.0       0.1       0.0       0.1       0.0       0.0
10 H  px              0.0       0.0       0.2       0.0       0.0       0.1
10 H  py              0.1       0.1       0.0       0.0       0.0       0.0
11 H  s               4.2       2.9       0.0       2.1       3.7       0.1
11 H  py              0.0       0.0       0.1       0.0       0.0       0.0
12 H  s               0.2       0.0       5.4       0.2       4.0       0.1
13 H  s               5.5       1.5       2.0       0.3       0.0       0.1

                     24        25        26        27        28        29   
                   0.09234   0.11900   0.13943   0.15440   0.17148   0.17376
                   0.00000   0.00000   0.00000   0.00000   0.00000   0.00000
                  --------  --------  --------  --------  --------  --------
 0 C  s               3.7       1.8       1.1       6.5       0.1       0.0
 0 C  pz              0.5       2.0       0.8       6.5       1.5       0.6
 0 C  px              0.2       1.2       0.7       4.0       3.0       1.1
 0 C  py              0.2       0.0       0.2       0.1       1.4       4.9
 0 C  dz2             0.2       0.4       0.2       0.7       0.6       0.9
 0 C  dxz             0.0       1.3       0.4       0.8       0.0       0.0
 0 C  dyz             0.0       0.1       0.1       0.0       0.0       1.8
 0 C  dx2y2           0.7       0.3       0.1       0.1       0.1       0.0
 0 C  dxy             0.2       0.0       0.0       0.2       0.8       0.5
 0 C  f+1             0.0       0.0       0.0       0.1       0.0       0.0
 1 C  s               0.5       2.8       1.6       3.1       0.8       0.0
 1 C  pz              0.4       1.0       0.5       4.9       1.3       1.6
 1 C  px              1.3       0.2       0.2       1.1       1.2       1.1
 1 C  py              0.1       0.2       0.2       0.1       2.3       8.1
 1 C  dz2             0.0       0.2       0.1       1.1       0.0       1.5
 1 C  dxz             6.9       0.6       0.0       0.2       0.2       0.3
 1 C  dyz             0.1       0.2       0.3       0.1       0.0       1.5
 1 C  dx2y2           0.8       0.0       0.0       0.0       1.3       0.6
 1 C  dxy             0.0       0.0       0.1       0.2       0.0       0.2
 1 C  f+1             0.1       0.0       0.0       0.0       0.0       0.0
 1 C  f-2             0.2       0.0       0.0       0.0       0.0       0.0
 2 C  s               0.1       4.0       0.1       0.8       0.8       0.3
 2 C  pz             28.6       5.8       1.5       3.8       1.2       0.4
 2 C  px              1.6       2.3       0.5       0.3       1.0       0.1
 2 C  py              0.3       0.6       0.4       0.1       0.5       1.3
 2 C  dz2             0.0       2.3       0.0       0.8       0.5       0.3
 2 C  dxz             0.8       0.3       0.0       0.4       0.1       0.3
 2 C  dyz             1.8       0.3       0.0       0.0       0.0       0.0
 2 C  dx2y2           0.1       0.0       0.1       0.1       0.6       0.5
 2 C  dxy             0.1       0.1       0.0       0.0       0.3       0.3
 2 C  f0              0.6       0.1       0.1       0.0       0.1       0.0
 2 C  f+2             0.4       0.1       0.0       0.0       0.0       0.0
 2 C  f-3             0.0       0.1       0.0       0.0       0.1       0.0
 3 O  s               0.0       0.8       0.0       0.0       0.1       0.2
 3 O  pz             14.8       2.6       1.0       0.3       0.6       0.2
 3 O  px              1.3       0.5       0.4       0.1       0.6       0.0
 3 O  py              0.1       0.3       0.0       0.1       0.0       0.3
 3 O  dyz             1.9       0.5       0.1       0.2       0.1       0.0
 3 O  dxy             0.1       0.1       0.0       0.0       0.0       0.0
 4 O  s               0.1       1.3       0.6       0.6       3.1       0.3
 4 O  pz              5.7       0.9       0.2       0.1       0.7       0.1
 4 O  px              0.5       0.2       0.6       0.2       1.2       0.5
 4 O  py              0.1       0.5       0.2       0.1       0.8       0.6
 4 O  dz2             0.3       0.1       0.1       0.0       0.1       0.0
 4 O  dxz             0.6       0.1       0.2       0.0       0.0       0.0
 4 O  dyz             0.4       0.2       0.0       0.1       0.0       0.0
 4 O  dx2y2           0.0       0.0       0.1       0.0       0.4       0.1
 4 O  dxy             0.1       0.0       0.3       0.0       0.0       0.1
 5 C  s               0.1       3.0      10.1       0.1       0.8       0.1
 5 C  pz              0.2       0.1       0.4       0.9       1.3       0.1
 5 C  px              0.2       3.0       6.0       2.2      21.8       1.6
 5 C  py              0.1       1.4       0.4       0.9       6.8       3.4
 5 C  dz2             0.1       0.5       0.0       0.2       3.4       0.0
 5 C  dxz             0.3       0.6       0.0       0.2       1.6       0.0
 5 C  dyz             0.7       0.3       0.1       0.0       0.0       0.1
 5 C  dx2y2           0.1       0.2       0.0       0.3       2.3       0.2
 5 C  dxy             0.1       0.2       0.1       0.4       1.4       1.0
 5 C  f-1             0.0       0.0       0.1       0.0       0.0       0.0
 5 C  f-3             0.0       0.0       0.1       0.0       0.2       0.0
 6 H  s               1.2       5.0       2.0      12.9       0.1       5.5
 6 H  pz              0.0       0.0       0.0       0.1       0.0       0.2
 6 H  px              0.0       0.0       0.0       0.1       0.1       0.0
 6 H  py              0.2       0.7       0.3       1.5       0.0       0.5
 7 H  s               2.8       7.0       1.9      13.9       4.5       4.8
 7 H  pz              0.3       0.2       0.1       1.2       0.3       0.6
 7 H  px              0.1       0.4       0.1       0.1       0.0       0.0
 7 H  py              0.0       0.2       0.1       0.5       0.1       0.0
 8 H  s               6.5       3.8       2.6       6.0       5.7       0.6
 8 H  pz              0.0       0.3       0.1       0.0       0.0       0.0
 8 H  px              0.8       0.2       0.2       0.6       0.3       0.0
 8 H  py              0.1       0.1       0.1       0.2       0.3       0.0
 9 H  s               2.1       7.2       3.4       5.7      11.4      20.2
 9 H  pz              0.0       0.0       0.0       0.1       0.0       0.5
 9 H  px              0.0       0.0       0.0       0.1       0.0       0.0
 9 H  py              0.3       0.6       0.4       0.6       1.2       1.4
[...]
 5 C  dx2y2           0.0       0.1       0.0       0.2       0.0       0.0
 5 C  f+2             0.0       0.0       0.0       0.0       0.2       0.0
 5 C  f+3             0.0       0.0       0.0       0.2       0.0       0.0
 5 C  f-3             0.0       0.2       0.0       0.0       0.0       0.0
13 H  s               0.0       0.0       0.1       0.0       0.0       0.0

                    222       223       224       225       226       227   
                   6.92990   6.98448   7.09797   7.21068   7.33424   7.47588
                   0.00000   0.00000   0.00000   0.00000   0.00000   0.00000
                  --------  --------  --------  --------  --------  --------
 1 C  s               0.1       0.0       0.0       0.1       0.0       0.0
 1 C  px              0.2       0.0       0.1       0.1       0.0       0.0
 1 C  dx2y2           0.4       0.0       0.0       0.1       0.1       0.0
 1 C  dxy             0.1       0.0       0.0       0.0       0.1       0.0
 1 C  f+3             0.4       0.0       0.0       0.0       0.0       0.0
 1 C  f-3             0.0       0.0       0.0       0.0       0.1       0.0
 2 C  s               0.3       0.0       0.4       3.5       1.8       0.2
 2 C  pz              0.0       0.2       0.1       0.0       0.0       0.0
 2 C  px              0.1       0.0       1.2       0.6       0.3       0.1
 2 C  py              0.0       0.0       0.7       1.6       0.2       0.1
 2 C  dz2             0.0       0.1       0.0       0.2       0.0       0.0
 2 C  dxz             0.1       0.0       0.0       0.0       0.0       0.1
 2 C  dyz             0.1       2.4       0.1       0.1       0.3       0.0
 2 C  dx2y2           0.3       0.0       0.0       0.2       0.0       2.0
 2 C  dxy             2.2       0.2       1.8       0.6       3.2       0.0
 2 C  f0              0.0       0.0       0.0       0.0       0.1       0.0
 2 C  f+1             0.1       0.0       0.0       0.0       0.2       0.0
 2 C  f-1             0.0       0.0       0.2       0.5       0.0       0.1
 2 C  f+2             0.8       0.1       0.0       0.1       0.3       0.2
 2 C  f-2             0.1       0.3       0.1       0.1       0.0       0.0
 2 C  f+3             6.3       0.0       0.0       0.1       4.0       1.3
 2 C  f-3             2.5       0.0       0.1       3.3       0.1       0.1
 3 O  s               0.1       0.0       0.3       1.7       0.1       0.5
 3 O  pz              0.0       1.1       0.1       0.1       0.1       0.0
 3 O  px              0.7       0.1       1.5       0.4       1.9       0.0
 3 O  py              0.0       0.0       0.1       3.0       0.1       0.1
 3 O  dz2             2.7       0.0       3.0      11.7       1.5       0.8
 3 O  dxz             0.3       1.8       0.0       0.0       0.0       0.2
 3 O  dyz             1.6      31.1       2.0       0.7       0.4       0.3
 3 O  dx2y2           2.9       0.7       0.4      47.5       0.8       0.5
 3 O  dxy            13.4       2.2      40.9       0.4       8.6       2.5
 3 O  f0              0.1       3.0       0.1       0.2       0.4       0.0
 3 O  f+1             0.3       0.0       0.6       0.1       1.1       0.0
 3 O  f-1             0.0       0.1       0.4       4.5       0.5       0.3
 3 O  f+2             0.5       6.1       0.4       0.4       0.5       0.0
 3 O  f-2             0.1       0.3       0.0       0.0       0.1       0.3
 3 O  f+3             7.0       0.3       9.6       0.9      11.4       0.0
 3 O  f-3             2.8       0.1       0.1      10.8       1.4       0.6
 4 O  s               0.6       0.0       0.6       0.1       1.1       2.4
 4 O  px              1.7       0.0       0.2       0.0       0.6       0.3
 4 O  py              1.3       0.0       0.1       0.0       0.5       0.1
 4 O  dz2             7.1       9.1      10.7       2.0       1.1       3.7
 4 O  dxz             2.1      29.3       4.3       0.5       2.6       9.8
 4 O  dyz             0.8       0.6       2.1       0.1       2.7       0.9
 4 O  dx2y2           1.4       3.0       0.7       0.3       4.4      49.6
 4 O  dxy            25.3       0.1      15.1       0.2      33.5       7.2
 4 O  f0              0.1       0.0       0.1       0.1       0.3       0.2
 4 O  f+1             0.3       0.0       0.1       0.0       0.4       0.3
 4 O  f-1             1.2       1.3       0.3       0.1       0.2       0.0
 4 O  f+2             2.4       0.2       0.0       0.5       0.8       0.1
 4 O  f-2             0.4       4.5       0.2       0.0       0.4       0.8
 4 O  f+3             5.9       0.2       0.4       2.0       9.8       1.3
 4 O  f-3             0.6       0.5       0.1       0.1       0.0       8.3
 5 C  s               0.6       0.0       0.0       0.0       0.1       1.3
 5 C  px              0.5       0.0       0.0       0.0       0.1       1.3
 5 C  py              0.0       0.0       0.1       0.0       0.1       0.5
 5 C  dz2             0.1       0.0       0.0       0.0       0.0       0.1
 5 C  dxz             0.0       0.2       0.0       0.0       0.0       0.1
 5 C  dyz             0.0       0.1       0.0       0.0       0.0       0.0
 5 C  dx2y2           0.1       0.0       0.1       0.0       0.2       0.2
 5 C  dxy             0.1       0.0       0.0       0.0       0.3       0.5
 5 C  f+1             0.0       0.1       0.0       0.0       0.0       0.0
 5 C  f+3             0.1       0.0       0.0       0.1       0.3       0.0

                    228       229       230       231       232       233   
                  22.37714  22.38434  22.53051  23.34645  43.96033  44.12446
                   0.00000   0.00000   0.00000   0.00000   0.00000   0.00000
                  --------  --------  --------  --------  --------  --------
 0 C  s               3.9      89.6       5.0       0.3       0.0       0.0
 1 C  s               0.6       4.3      93.7       0.1       0.0       0.0
 2 C  s               1.0       0.2       0.0      95.1       0.0       0.0
 2 C  px              0.0       0.0       0.1       0.2       0.0       0.0
 2 C  py              0.0       0.0       0.0       0.1       0.0       0.0
 2 C  dz2             0.0       0.0       0.0       0.1       0.0       0.0
 3 O  s               0.0       0.0       0.0       0.9      98.2       1.7
 3 O  py              0.0       0.0       0.0       0.6       0.0       0.0
 4 O  s               0.2       0.0       0.0       0.4       1.7      98.1
 4 O  px              0.1       0.0       0.0       0.3       0.0       0.0
 4 O  py              0.0       0.0       0.0       0.2       0.0       0.0
 4 O  dxy             0.0       0.0       0.0       0.1       0.0       0.0
 5 C  s              92.9       4.6       0.1       0.8       0.0       0.1
 6 H  s               0.0       0.2       0.0       0.0       0.0       0.0
 7 H  s               0.0       0.2       0.0       0.0       0.0       0.0
 8 H  s               0.0       0.2       0.0       0.0       0.0       0.0
 9 H  s               0.0       0.0       0.2       0.0       0.0       0.0
10 H  s               0.0       0.0       0.2       0.0       0.0       0.0
11 H  s               0.2       0.0       0.0       0.0       0.0       0.0
12 H  s               0.2       0.0       0.0       0.0       0.0       0.0
13 H  s               0.2       0.0       0.0       0.0       0.0       0.0



                      *****************************
                      * MAYER POPULATION ANALYSIS *
                      *****************************

  NA   - Mulliken gross atomic population
  ZA   - Total nuclear charge
  QA   - Mulliken gross atomic charge
  VA   - Mayer's total valence
  BVA  - Mayer's bonded valence
  FA   - Mayer's free valence

  ATOM       NA         ZA         QA         VA         BVA        FA
  0 C      6.3662     6.0000    -0.3662     3.9254     3.9254     0.0000
  1 C      6.1418     6.0000    -0.1418     3.8350     3.8350     0.0000
  2 C      5.6859     6.0000     0.3141     4.2353     4.2353     0.0000
  3 O      8.3466     8.0000    -0.3466     2.1651     2.1651    -0.0000
  4 O      8.2507     8.0000    -0.2507     2.1161     2.1161     0.0000
  5 C      6.1860     6.0000    -0.1860     3.8902     3.8902     0.0000
  6 H      0.8682     1.0000     0.1318     0.9791     0.9791     0.0000
  7 H      0.8832     1.0000     0.1168     0.9757     0.9757    -0.0000
  8 H      0.8808     1.0000     0.1192     0.9705     0.9705    -0.0000
  9 H      0.8896     1.0000     0.1104     0.9811     0.9811    -0.0000
 10 H      0.8860     1.0000     0.1140     0.9798     0.9798     0.0000
 11 H      0.8697     1.0000     0.1303     0.9723     0.9723     0.0000
 12 H      0.8729     1.0000     0.1271     0.9716     0.9716     0.0000
 13 H      0.8724     1.0000     0.1276     0.9654     0.9654     0.0000

  Mayer bond orders larger than 0.100000
B(  0-C ,  1-C ) :   0.9662 B(  0-C ,  6-H ) :   0.9770 B(  0-C ,  7-H ) :   0.9765 
B(  0-C ,  8-H ) :   0.9784 B(  1-C ,  2-C ) :   0.9610 B(  1-C ,  9-H ) :   0.9693 
B(  1-C , 10-H ) :   0.9675 B(  2-C ,  3-O ) :   2.0489 B(  2-C ,  4-O ) :   1.1917 
B(  4-O ,  5-C ) :   0.9113 B(  5-C , 11-H ) :   0.9790 B(  5-C , 12-H ) :   0.9784 
B(  5-C , 13-H ) :   0.9717 

-------
TIMINGS
-------

Total SCF time: 0 days 0 hours 1 min 42 sec 

Total time                  ....     102.030 sec
Sum of individual times     ....      99.982 sec  ( 98.0%)

SCF preparation             ....       0.094 sec  (  0.1%)
Fock matrix formation       ....      99.291 sec  ( 97.3%)
  Startup                   ....       0.009 sec  (  0.0% of F)
  Split-RI-J                ....       3.397 sec  (  3.4% of F)
  Chain of spheres X        ....      87.809 sec  ( 88.4% of F)
  XC integration            ....      10.014 sec  ( 10.1% of F)
    Basis function eval.    ....       2.564 sec  ( 25.6% of XC)
    Density eval.           ....       2.244 sec  ( 22.4% of XC)
    XC-Functional eval.     ....       2.587 sec  ( 25.8% of XC)
    XC-Potential eval.      ....       2.419 sec  ( 24.2% of XC)
Diagonalization             ....       0.000 sec  (  0.0%)
Density matrix formation    ....       0.022 sec  (  0.0%)
Total Energy calculation    ....       0.004 sec  (  0.0%)
Population analysis         ....       0.169 sec  (  0.2%)
Orbital Transformation      ....       0.021 sec  (  0.0%)
Orbital Orthonormalization  ....       0.000 sec  (  0.0%)
DIIS solution               ....       0.108 sec  (  0.1%)
  MO trafo                  ....       0.000 sec  (  0.0 % of DIIS)
  Orb grad                  ....       0.000 sec  (  0.0 % of DIIS)
  Energy W gradient         ....       0.000 sec  (  0.0 % of DIIS)
  DIIS error                ....       0.009 sec  (  8.1 % of DIIS)
  DIIS work                 ....       0.087 sec  ( 80.4 % of DIIS)
  Form Q                    ....       0.000 sec  (  0.0 % of DIIS)
  Form QpQm                 ....       0.000 sec  (  0.0 % of DIIS)
  Exp/Cayley                ....       0.000 sec  (  0.0 % of DIIS)
  Orb update                ....       0.000 sec  (  0.0 % of DIIS)
  Wake-sleep                ....       0.001 sec  (  0.7 % of DIIS)
SOSCF solution              ....       0.048 sec  (  0.0%)
  MO trafo                  ....       0.024 sec  ( 49.4 % of SOSCF)
  Orb grad                  ....       0.000 sec  (  0.8 % of SOSCF)
  Rot update                ....       0.001 sec  (  2.8 % of SOSCF)
  Step                      ....       0.023 sec  ( 46.8 % of SOSCF)
Grid generation             ....       0.223 sec  (  0.2%)
Finished LeanSCF after 102.0 sec

Maximum memory used throughout the entire LEANSCF-calculation: 28.0 MB
------------------   -----------------
gCP correction             0.009431818
------------------   -----------------

-------------------------   --------------------
FINAL SINGLE POINT ENERGY      -307.720416356316
-------------------------   --------------------


------------------------------------------------------------------------------
                              ORCA PROPERTY CALCULATIONS
------------------------------------------------------------------------------

GBWName                                 ... sp.gbw
Number of atoms                         ...     14
Number of basis functions               ...    234
Max core memory                         ...   1024 MB

Electric properties:
Dipole moment                           ... YES
Quadrupole moment                       ...  NO
Static polarizability (Dipole/Dipole)   ...  NO
Static polarizability (Dipole/Quad.)    ...  NO
Static polarizability (Quad./Quad.)     ...  NO
Static polarizability (Velocity)        ...  NO

Atomic electric properties:
Dipole moment                           ...  NO
Quadrupole moment                       ...  NO
Static polarizability                   ...  NO

Choice of electric origin               ... Center of mass
Position of electric origin             ...     0.008205     0.016550     0.000126

General magnetic properties:
Magnetizability                         ...  NO

EPR properties:
g-Tensor (aka g-matrix)                 ...  NO
Zero-Field splitting spin-orbit         ...  NO
Zero-field splitting spin-spin          ...  NO
Hyperfine couplings                     ...  NO (   0 nuclei)
Quadrupole couplings                    ...  NO (   0 nuclei)
Contact density                         ...  NO (   0 nuclei)

NMR properties:
Chemical shifts                         ...  NO (   0 nuclei)
Spin-rotation constants                 ...  NO (   0 nuclei)
Spin-spin couplings                     ...  NO (   0 nuclei,    0 pairs)

Choice of magnetic origin               ... GIAO
Position of magnetic origin             ...     0.000000     0.000000     0.000000

Properties with geometric perturbations:
SCF Hessian                             ...  NO
IR spectrum                             ...  NO
VCD spectrum                            ...  NO
X-ray spectroscopy properties:
SCF XES/XAS/RIXS spectra                ...  NO


-------------
DIPOLE MOMENT
-------------

Method             : SCF
Type of density    : Electron Density
Multiplicity       :   1
Irrep              :   0
Energy             :  -307.7298481742164427 Eh
Relativity type    : 
Basis              : AO
                                X                 Y                 Z
Electronic contribution:      2.533944901      -1.507642649      -1.795795378
Nuclear contribution   :     -2.490000001       2.202577110       1.937137690
                        -----------------------------------------
Total Dipole Moment    :      0.043944900       0.694934461       0.141342312
                        -----------------------------------------
Magnitude (a.u.)       :      0.710522842
Magnitude (Debye)      :      1.806005538



--------------------
Rotational spectrum 
--------------------
 
Rotational constants in cm-1:             0.240059             0.076426             0.066872 
Rotational constants in MHz :          7196.791170          2291.201318          2004.775613 

Dipole components along the rotational axes: 
x,y,z [a.u.] :    -0.001434     0.708529    -0.053168 
x,y,z [Debye]:    -0.003645     1.800938    -0.135142 

 

Dipole moment calculation done in   0.0 sec 

Maximum memory used throughout the entire PROP-calculation: 17.1 MB

--------------------------------
SUGGESTED CITATIONS FOR THIS RUN
--------------------------------

Below you find a list of papers that are relevant to this ORCA run
We neither can nor want to force you to cite these papers, but we appreciate if you do
You receive ORCA, which is the product of decades of hard work by many enthusiastic individuals, for free
The only thing we kindly ask in return is that you cite our papers,
We deeply appreciate it, if you show your appreciation for ORCA by not just citing the generic ORCA reference.

Please note that relegating all ORCA citations to the supporting information does *not* help us.
SI sections are not indexed - citations you put there will not count into any citation statistics
But we need these citations in order to attract the funding resources that allow us to do what we are doing

Therefore, if you are a happy ORCA user, please consider citing a few of the papers listed below in the main body of your paper

In addition to the list printed below, the program has created the file sp.bibtex that contains the list in bibtex format
You can import this file easily into all common literature databanks and citation aid programs


List of essential papers. We consider these as the minimum necessary citations

  1. Neese,F.
     Software update: the ORCA program system, version 5.0
     WIRES Comput. Molec. Sci., 2022 12(1)e1606
     doi.org/10.1002/wcms.1606

List of papers to cite with high priority. The work reported in these papers was absolutely
necessary for this run to complete.
Our perspective: the developers of density functionals and basis sets usually get cited in chemistry papers
Good! But without the algorithms to do something with them, the functionals or basis sets would not do anything.
Hence, in our opinion, the algorithm design and method developments papers are equally worthy of getting cited

  1. Neese,F.
     An improvement of the resolution of the identity approximation for the formation of the Coulomb matrix
     J. Comp. Chem., 2003 24(14)1740-1747
     doi.org/10.1002/jcc.10318
  2. Neese,F.; Wennmohs,F.; Hansen,A.; Becker,U.
     Efficient, approximate and parallel Hartree-Fock and hybrid DFT calculations. A 'chain-of-spheres' algorithm for the Hartree-Fock exchange
     Chem. Phys., 2009 356(1-3)98-109
     doi.org/10.1016/j.chemphys.2008.10.036
  3. Helmich-Paris,B.; de Souza,B.; Neese,F.; Izsák,R.
     An improved chain of spheres for exchange algorithm
     J. Chem. Phys., 2021 155 104109
     doi.org/doi: 10.1063/5.0058766.
  4. Neese,F.
     The SHARK Integral Generation and Digestion System
     J. Comp. Chem., 2022  1-16
     doi.org/10.1002/jcc.26942

List of suggested additional citations. These are papers that are important in the 'surrounding' of 
of this run, or papers that preceded the highly important papers. If you like your results we are grateful for a citation.

  1. Izsak,R.; Neese,F.
     An overlap fitted chain of spheres exchange method
     J. Chem. Phys., 2011 135 144105
     doi.org/10.1063/1.3646921
  2. Izsak,R.; Hansen,A.; Neese,F.
     The resolution of identity and chain of spheres approximations for the LPNO-CCSD singles Fock term
     Molec. Phys., 2012 110 2413-2417
     doi.org/10.1080/00268976.2012.687466
  3. Neese,F.
     The ORCA program system
     WIRES Comput. Molec. Sci., 2012 2(1)73-78
     doi.org/10.1002/wcms.81
  4. Izsak,R.; Neese,F.; Klopper,W.
     Robust fitting techniques in the chain of spheres approximation to the Fock exchange: The role of the complementary space
     J. Chem. Phys., 2013 139 
     doi.org/10.1063/1.4819264
  5. Neese,F.
     Software update: the ORCA program system, version 4.0
     WIRES Comput. Molec. Sci., 2018 8(1)1-6
     doi.org/10.1002/wcms.1327
  6. Neese,F.; Wennmohs,F.; Becker,U.; Riplinger,C.
     The ORCA quantum chemistry program package
     J. Chem. Phys., 2020 152 Art. No. L224108
     doi.org/10.1063/5.0004608

List of optional additional citations

  1. Neese,F.
     Approximate second-order SCF convergence for spin unrestricted wavefunctions
     Chem. Phys. Lett., 2000 325(1-3)93-98
     doi.org/10.1016/s0009-2614(00)00662-x

Timings for individual modules:

Sum of individual times          ...      104.135 sec (=   1.736 min)
Startup calculation              ...        1.836 sec (=   0.031 min)   1.8 %
SCF iterations                   ...      102.242 sec (=   1.704 min)  98.2 %
Property calculations            ...        0.057 sec (=   0.001 min)   0.1 %
                             ****ORCA TERMINATED NORMALLY****
TOTAL RUN TIME: 0 days 0 hours 1 minutes 44 seconds 244 msec
