
                                 *****************
                                 * O   R   C   A *
                                 *****************

                                            #,                                       
                                            ###                                      
                                            ####                                     
                                            #####                                    
                                            ######                                   
                                           ########,                                 
                                     ,,################,,,,,                         
                               ,,#################################,,                 
                          ,,##########################################,,             
                       ,#########################################, ''#####,          
                    ,#############################################,,   '####,        
                  ,##################################################,,,,####,       
                ,###########''''           ''''###############################       
              ,#####''   ,,,,##########,,,,          '''####'''          '####       
            ,##' ,,,,###########################,,,                        '##       
           ' ,,###''''                  '''############,,,                           
         ,,##''                                '''############,,,,        ,,,,,,###''
      ,#''                                            '''#######################'''  
     '                                                          ''''####''''         
             ,#######,   #######,   ,#######,      ##                                
            ,#'     '#,  ##    ##  ,#'     '#,    #''#        ,####,   ,####,        
            ##       ##  ##   ,#'  ##            #'  '#       #'       #'  '#        
            ##       ##  #######   ##           ,######,      #####,   #    #        
            '#,     ,#'  ##    ##  '#,     ,#' ,#      #,     #,   #   #,  ,#        
             '#######'   ##     ##  '#######'  #'      '#     '####' # '####'        



                #########################################################
                #                        -***-                          #
                #          Department of theory and spectroscopy        #
                #                                                       #
                #                      Frank Neese                      #
                #                                                       #
                #     Directorship, Architecture, Infrastructure        #
                #                    SHARK, DRIVERS                     #
                #        Core code/Algorithms in most modules           #
                #                                                       #
                #        Max Planck Institute fuer Kohlenforschung      #
                #                Kaiser Wilhelm Platz 1                 #
                #                 D-45470 Muelheim/Ruhr                 #
                #                      Germany                          #
                #                                                       #
                #                  All rights reserved                  #
                #                        -***-                          #
                #########################################################


                         Program Version 6.0.1  -  RELEASE   -


 With contributions from (in alphabetic order):
[Max-Planck-Institut fuer Kohlenforschung]                               
  Daniel Aravena         : Magnetic Suceptibility                        
  Michael Atanasov       : Ab Initio Ligand Field Theory (pilot matlab implementation)
  Alexander A. Auer      : GIAO ZORA, VPT2 properties, NMR spectrum      
  Ute Becker             : All parallelization in ORCA, NUMFREQ, NUMCALC 
  Giovanni Bistoni       : ED, misc. LED, open-shell LED, HFLD           
  Martin Brehm           : Molecular dynamics                            
  Dmytro Bykov           : pre 5.0 version of the SCF Hessian            
  Marcos Casanova-Páez   : Triplet and SCS-CIS(D). UHF-(DLPNO)-IP/EA/STEOM-CCSD. UHF-CVS-IP/STEOM-CCSD   
  Vijay G. Chilkuri      : MRCI spin determinant printing, contributions to CSF-ICE 
  Pauline Colinet        : FMM embedding                                 
  Dipayan Datta          : RHF DLPNO-CCSD density                        
  Achintya Kumar Dutta   : EOM-CC, STEOM-CC                              
  Nicolas Foglia         : Exact transition moments, OPA infrastructure, MCD improvements    
  Dmitry Ganyushin       : Spin-Orbit,Spin-Spin,Magnetic field MRCI      
  Miquel Garcia-Rates    : C-PCM and meta-GGA Hessian, CCSD/C-PCM, Gaussian charge scheme 
  Tiago L. C. Gouveia    : GS-ROHF, GS-ROCIS                             
  Yang Guo               : DLPNO-NEVPT2, F12-NEVPT2, CIM, IAO-localization        
  Andreas Hansen         : Spin unrestricted coupled pair/coupled cluster methods 
  Ingolf Harden          : AUTO-CI MPn and infrastructure                
  Benjamin Helmich-Paris : MC-RPA, TRAH-(SCF,CASSCF), AVAS, COSX integrals, SCF dyn. polar. 
  Lee Huntington         : MR-EOM, pCC                                   
  Robert Izsak           : Overlap fitted RIJCOSX, COSX-SCS-MP3, EOM     
  Riya Kayal             : Wick's Theorem for AUTO-CI, AUTO-CI UHF-CCSDT 
  Emily Kempfer          : AUTO-CI, RHF CISDT and CCSDT                  
  Christian Kollmar      : KDIIS, OOCD, Brueckner-CCSD(T), CCSD density, CASPT2, CASPT2-K, improved NEVPT2 
  Axel Koslowski         : Symmetry handling                             
  Simone Kossmann        : meta-GGA functionals, TD-DFT gradient, OOMP2, (MP2 Hessian; deprecated post 5.0) 
  Lucas Lang             : DCDCAS                                        
  Marvin Lechner         : AUTO-CI (C++ implementation), FIC-MRCC        
  Spencer Leger          : CASSCF response                               
  Dagmar Lenk            : GEPOL surface, SMD, ORCA-2-JSON               
  Dimitrios Liakos       : Extrapolation schemes; Compound Job, initial MDCI parallelization 
  Dimitrios Manganas     : Further ROCIS development; embedding schemes. LFT, Crystal Embedding 
  Dimitrios Pantazis     : SARC Basis sets                               
  Anastasios Papadopoulos: AUTO-CI, single reference methods and gradients 
  Taras Petrenko         : pre 6.0 DFT Hessian and TD-DFT gradient, (ASA, deprecated), ECA, 1-Electron XAS/XES, NRVS 
  Peter Pinski           : DLPNO-MP2, DLPNO-MP2 Gradient                 
  Christoph Reimann      : Effective Core Potentials                     
  Marius Retegan         : Local ZFS, SOC                                
  Christoph Riplinger    : Optimizer, TS searches, QM/MM, DLPNO-CCSD(T), (RO)-DLPNO pert. Triples 
  Michael Roemelt        : Original ROCIS implementation                 
  Masaaki Saitow         : Open-shell DLPNO-CCSD energy and density      
  Barbara Sandhoefer     : DKH picture change effects                    
  Kantharuban Sivalingam : CASSCF convergence/infrastructure, NEVPT2 and variants, FIC-MRCI 
  Bernardo de Souza      : ESD, SOC TD-DFT                               
  Georgi L. Stoychev     : AutoAux, RI-MP2 NMR, DLPNO-MP2 response, X2C  
  Van Anh Tran           : RI-MP2 g-tensors                              
  Willem Van den Heuvel  : Paramagnetic NMR                              
  Zikuan Wang            : NOTCH, Electric field optimization            
  Frank Wennmohs         : Technical directorship and infrastructure     
  Hang Xu                : AUTO-CI-Response properties                   
                                                                         
[FACCTs GmbH]                                                            
  Markus Bursch, Miquel Garcia-Rates, Christoph Riplinger, Bernardo de Souza, Georgi L. Stoychev 
                                                                 
  APM, Basis sets (HGBS, AHGBS, def-TZVP (Ac-Lr), def2-XVPD (La-Lu)), CI-OPT, improved COSX, DLPNO-Multilevel,           
  DOCKER, DRACO, updates on ESD, GOAT, IRC, LR-CPCM, MBIS, meta-GGA TD-DFT gradient, ML-optimized integration grids, 
  MM, NACMEs, nearIR, NEB, NEB-TS, NL-DFT gradient (VV10), 2- and 3-layer-ONIOM, interface openCOSMO-RS, QMMM,   
  Crystal-QMMM, SF, symmetry and pop. for TD-DFT, r2SCAN hybrids, SOLVATOR                                   
                                                                         
[Other institutions]                                                     
  V. Asgeirsson          : NEB                                           
  Christoph Bannwarth    : sTDA-DFT, sTD-DFT, PBEh-3c, B97-3c, D3        
  Sebastian Ehlert       : rSCAN, r2SCAN, r2SCAN-3c, D4, dhf basis sets  
  Marvin Friede          : D4 for Fr, Ra, Ac-Lr                          
  Lars Goerigk           : TD-DFT with DH, B97 family of functionals     
  Stefan Grimme          : VdW corrections, initial TS optimization, DFT functionals, gCP, sTDA/sTD-DF 
  Waldemar Hujo          : DFT-NL                                        
  H. Jonsson             : NEB                                           
  Holger Kruse           : gCP                                           
  Marcel Mueller         : wB97X-3c, vDZP basis set                      
  Hagen Neugebauer       : wr2SCAN                                       
  Tobias Risthaus        : range-separated hybrid DFT                    
  Lukas Wittmann         : regularized MP2, r2SCAN double-hybrids, wr2SCAN        
                                                                         
We gratefully acknowledge several colleagues who have allowed us to      
interface, adapt or use parts of their codes:                            
  Ed Valeev, F. Pavosevic, A. Kumar             : LibInt (2-el integral package), F12 methods 
  Garnet Chan, S. Sharma, J. Yang, R. Olivares  : DMRG                   
  Ulf Ekstrom                                   : XCFun DFT Library      
  Mihaly Kallay                                 : mrcc  (arbitrary order and MRCC methods)
  Frank Weinhold                                : gennbo (NPA and NBO analysis)           
  Simon Mueller                                 : openCOSMO-RS                            
  Christopher J. Cramer and Donald G. Truhlar   : smd solvation model                     
  S Lehtola, MJT Oliveira, MAL Marques          : LibXC Library                           
  Liviu Ungur et al                             : ANISO software                          


 Your calculation uses the libint2 library for the computation of 2-el integrals
 For citations please refer to: http://libint.valeyev.net

 Your ORCA version has been built with support for libXC version: 6.2.2
 For citations please refer to: https://libxc.gitlab.io

 This ORCA versions uses:
   CBLAS   interface :  Fast vector & matrix operations
   LAPACKE interface :  Fast linear algebra routines
   SCALAPACK package :  Parallel linear algebra routines
   Shared memory     :  Shared parallel matrices
   BLAS/LAPACK       :  OpenBLAS 0.3.27  USE64BITINT DYNAMIC_ARCH NO_AFFINITY Zen SINGLE_THREADED
        Core in use  :  Zen
   Copyright (c) 2011-2014, The OpenBLAS Project


Your calculation utilizes the geometrical counterpoise correction gCP
Please cite in your paper:
H.Kruse, S. Grimme J.Chem.Phys., 136, (2012), 154101 
   

Your calculation utilizes the atom-pairwise dispersion correction
based on EEQ partial charges (D4)


================================================================================

----- Orbital basis set information -----
Your calculation utilizes the basis: def2-SV(P)
   F. Weigend and R. Ahlrichs, Phys. Chem. Chem. Phys. 7, 3297 (2005).

----- AuxJ basis set information -----
Your calculation utilizes the auxiliary basis: def2/J
   F. Weigend, Phys. Chem. Chem. Phys. 8, 1057 (2006).

================================================================================
                                        WARNINGS
                       Please study these warnings very carefully!
================================================================================

WARNING: Old DensityContainer found on disk!
         Will remove this file - 
         If you want to keep old densities, please start your calculation with a different basename. 


================================================================================
                                       INPUT FILE
================================================================================
NAME = sp.inp
|  1> ! pbe def2-sv(p) def2/J RI DEFGRID1 loosescf d4 GCP(DFT/SV(P)) printgap
|  2> %output
|  3>     printlevel normal
|  4> end
|  5> * xyz 0 1
|  6> C 0.8227217039 1.3177638287 -0.9888474427
|  7> C 1.4391218091 0.3510170814 0.0263369456
|  8> H 2.4707335427 0.1391290822 -0.2819209619
|  9> C 0.6418576862 -0.9805354477 0.0349430417
| 10> H 0.5999512641 -1.3337969305 1.0783102361
| 11> C -0.7978446841 -0.7751132471 -0.4696912772
| 12> H -0.7990716779 -0.8848436412 -1.5630730687
| 13> C -1.2848764161 0.634610015 -0.1068185586
| 14> H -2.3212365028 0.7671845706 -0.455247185
| 15> O -0.5367418198 1.6305073619 -0.7095963825
| 16> O -1.2476638005 0.8022328767 1.2970128131
| 17> O -1.6933615947 -1.6832272144 0.125770122
| 18> O 1.2166729671 -1.9685701152 -0.7914868671
| 19> O 1.5297493084 0.9100004926 1.3037375392
| 20> H 0.9022154165 0.8815710264 -1.9938995281
| 21> H 1.3502207148 2.2735762811 -0.9671675506
| 22> H -1.7271147805 0.0593383221 1.6847852707
| 23> H -1.4039273464 -2.575555528 -0.0963705657
| 24> H 2.1196029574 -2.1379193962 -0.5001156788
| 25> H 0.6344903406 1.1899135061 1.5659878618
| 26> *
| 27> 
| 28>                          ****END OF INPUT****
================================================================================

                       ****************************
                       * Single Point Calculation *
                       ****************************

---------------------------------
CARTESIAN COORDINATES (ANGSTROEM)
---------------------------------
  C      0.822722    1.317764   -0.988847
  C      1.439122    0.351017    0.026337
  H      2.470734    0.139129   -0.281921
  C      0.641858   -0.980535    0.034943
  H      0.599951   -1.333797    1.078310
  C     -0.797845   -0.775113   -0.469691
  H     -0.799072   -0.884844   -1.563073
  C     -1.284876    0.634610   -0.106819
  H     -2.321237    0.767185   -0.455247
  O     -0.536742    1.630507   -0.709596
  O     -1.247664    0.802233    1.297013
  O     -1.693362   -1.683227    0.125770
  O      1.216673   -1.968570   -0.791487
  O      1.529749    0.910000    1.303738
  H      0.902215    0.881571   -1.993900
  H      1.350221    2.273576   -0.967168
  H     -1.727115    0.059338    1.684785
  H     -1.403927   -2.575556   -0.096371
  H      2.119603   -2.137919   -0.500116
  H      0.634490    1.189914    1.565988

----------------------------
CARTESIAN COORDINATES (A.U.)
----------------------------
  NO LB      ZA    FRAG     MASS         X           Y           Z
   0 C     6.0000    0    12.011    1.554719    2.490213   -1.868651
   1 C     6.0000    0    12.011    2.719546    0.663326    0.049770
   2 H     1.0000    0     1.008    4.669010    0.262916   -0.532753
   3 C     6.0000    0    12.011    1.212935   -1.852943    0.066033
   4 H     1.0000    0     1.008    1.133744   -2.520511    2.037711
   5 C     6.0000    0    12.011   -1.507708   -1.464752   -0.887588
   6 H     1.0000    0     1.008   -1.510027   -1.672112   -2.953780
   7 C     6.0000    0    12.011   -2.428065    1.199239   -0.201858
   8 H     1.0000    0     1.008   -4.386501    1.449769   -0.860293
   9 O     8.0000    0    15.999   -1.014295    3.081212   -1.340943
  10 O     8.0000    0    15.999   -2.357743    1.516000    2.450999
  11 O     8.0000    0    15.999   -3.199990   -3.180838    0.237671
  12 O     8.0000    0    15.999    2.299179   -3.720058   -1.495693
  13 O     8.0000    0    15.999    2.890807    1.719652    2.463707
  14 H     1.0000    0     1.008    1.704940    1.665928   -3.767924
  15 H     1.0000    0     1.008    2.551547    4.296437   -1.827682
  16 H     1.0000    0     1.008   -3.263774    0.112133    3.183783
  17 H     1.0000    0     1.008   -2.653038   -4.867095   -0.182114
  18 H     1.0000    0     1.008    4.005469   -4.040082   -0.945082
  19 H     1.0000    0     1.008    1.199013    2.248611    2.959288

--------------------------------
INTERNAL COORDINATES (ANGSTROEM)
--------------------------------
 C      0   0   0     0.000000000000     0.00000000     0.00000000
 C      1   0   0     1.531387509860     0.00000000     0.00000000
 H      2   1   0     1.097334147214   108.30511111     0.00000000
 C      2   1   3     1.552010400837   109.78690289   241.58176857
 H      4   2   1     1.102345193573   107.44077602   217.41621220
 C      4   2   1     1.539349535147   111.35434998   336.11177279
 H      6   4   2     1.098874882271   108.29460182    87.82406149
 C      6   4   2     1.534990616774   109.98699988   328.72961114
 H      8   6   4     1.101372212194   109.53113461   181.00341836
 O      8   6   4     1.383783944382   112.73338061    62.59921432
 O      8   6   4     1.414293011612   109.58177761   300.45226432
 O      6   4   2     1.407549570251   111.73149533   210.18069697
 O      4   2   1     1.410535893020   112.85372687    95.71522155
 O      2   1   3     1.397293123921   112.30883600   116.52880893
 H      1   2   3     1.098504941039   109.06998954    55.80129296
 H      1   2   3     1.091926127714   110.18081537   295.80481918
 H     11   8   6     0.965470372591   107.12193850   307.87751508
 H     12   6   4     0.964037597023   107.98009720   300.09660363
 H     13   4   2     0.963773269877   109.13171521    58.40458995
 H     14   2   1     0.973968760411   107.54829433    56.46068740

---------------------------
INTERNAL COORDINATES (A.U.)
---------------------------
 C      0   0   0     0.000000000000     0.00000000     0.00000000
 C      1   0   0     2.893902998542     0.00000000     0.00000000
 H      2   1   0     2.073661015635   108.30511111     0.00000000
 C      2   1   3     2.932874614579   109.78690289   241.58176857
 H      4   2   1     2.083130520897   107.44077602   217.41621220
 C      4   2   1     2.908949045808   111.35434998   336.11177279
 H      6   4   2     2.076572582938   108.29460182    87.82406149
 C      6   4   2     2.900711883842   109.98699988   328.72961114
 H      8   6   4     2.081291852557   109.53113461   181.00341836
 O      8   6   4     2.614972683399   112.73338061    62.59921432
 O      8   6   4     2.672626465065   109.58177761   300.45226432
 O      6   4   2     2.659883207693   111.73149533   210.18069697
 O      4   2   1     2.665526539873   112.85372687    95.71522155
 O      2   1   3     2.640501333021   112.30883600   116.52880893
 H      1   2   3     2.075873495324   109.06998954    55.80129296
 H      1   2   3     2.063441339853   110.18081537   295.80481918
 H     11   8   6     1.824474594611   107.12193850   307.87751508
 H     12   6   4     1.821767041176   107.98009720   300.09660363
 H     13   4   2     1.821267535262   109.13171521    58.40458995
 H     14   2   1     1.840534220172   107.54829433    56.46068740

---------------------
BASIS SET INFORMATION
---------------------
There are 3 groups of distinct atoms

 Group   1 Type C   : 7s4p1d contracted to 3s2p1d pattern {511/31/1}
 Group   2 Type H   : 4s contracted to 2s pattern {31}
 Group   3 Type O   : 7s4p1d contracted to 3s2p1d pattern {511/31/1}

Atom   0C    basis set group =>   1
Atom   1C    basis set group =>   1
Atom   2H    basis set group =>   2
Atom   3C    basis set group =>   1
Atom   4H    basis set group =>   2
Atom   5C    basis set group =>   1
Atom   6H    basis set group =>   2
Atom   7C    basis set group =>   1
Atom   8H    basis set group =>   2
Atom   9O    basis set group =>   3
Atom  10O    basis set group =>   3
Atom  11O    basis set group =>   3
Atom  12O    basis set group =>   3
Atom  13O    basis set group =>   3
Atom  14H    basis set group =>   2
Atom  15H    basis set group =>   2
Atom  16H    basis set group =>   2
Atom  17H    basis set group =>   2
Atom  18H    basis set group =>   2
Atom  19H    basis set group =>   2
---------------------------------
AUXILIARY/J BASIS SET INFORMATION
---------------------------------
There are 3 groups of distinct atoms

 Group   1 Type C   : 12s5p4d2f1g contracted to 6s4p3d1f1g pattern {711111/2111/211/2/1}
 Group   2 Type H   : 5s2p1d contracted to 3s1p1d pattern {311/2/1}
 Group   3 Type O   : 12s5p4d2f1g contracted to 6s4p3d1f1g pattern {711111/2111/211/2/1}

Atom   0C    basis set group =>   1
Atom   1C    basis set group =>   1
Atom   2H    basis set group =>   2
Atom   3C    basis set group =>   1
Atom   4H    basis set group =>   2
Atom   5C    basis set group =>   1
Atom   6H    basis set group =>   2
Atom   7C    basis set group =>   1
Atom   8H    basis set group =>   2
Atom   9O    basis set group =>   3
Atom  10O    basis set group =>   3
Atom  11O    basis set group =>   3
Atom  12O    basis set group =>   3
Atom  13O    basis set group =>   3
Atom  14H    basis set group =>   2
Atom  15H    basis set group =>   2
Atom  16H    basis set group =>   2
Atom  17H    basis set group =>   2
Atom  18H    basis set group =>   2
Atom  19H    basis set group =>   2

Checking for AutoStart:
The File: sp.gbw exists
Trying to determine its content:
     ... Fine, the file contains calculation information
     ... Fine, the calculation information was read
     ... Fine, the file contains a basis set
     ... Fine, the basis set was read
     ... Fine, the file contains a geometry
     ... Fine, the geometry was read
     ... Fine, the file contains a set of orbitals
     ... Fine, the orbitals can be read
     => possible old guess file was deleted
     => GBW file was renamed to GES file
     => GES file is set as startup file
     => Guess is set to MORead
     ... now leaving AutoStart

------------------------------------------------------------------------------
                             ORCA STARTUP CALCULATIONS
                           -- RI-GTO INTEGRALS CHOSEN --
------------------------------------------------------------------------------
------------------------------------------------------------------------------
                   ___                                                        
                  /   \      - P O W E R E D   B Y -                         
                 /     \                                                     
                 |  |  |   _    _      __       _____    __    __             
                 |  |  |  | |  | |    /  \     |  _  \  |  |  /  |          
                  \  \/   | |  | |   /    \    | | | |  |  | /  /          
                 / \  \   | |__| |  /  /\  \   | |_| |  |  |/  /          
                |  |  |   |  __  | /  /__\  \  |    /   |      \           
                |  |  |   | |  | | |   __   |  |    \   |  |\   \          
                \     /   | |  | | |  |  |  |  | |\  \  |  | \   \       
                 \___/    |_|  |_| |__|  |__|  |_| \__\ |__|  \__/        
                                                                              
                      - O R C A' S   B I G   F R I E N D -                    
                                      &                                       
                       - I N T E G R A L  F E E D E R -                       
                                                                              
 v1 FN, 2020, v2 2021, v3 2022-2024                                           
------------------------------------------------------------------------------


----------------------
SHARK INTEGRAL PACKAGE
----------------------

Number of atoms                             ...     20
Number of basis functions                   ...    160
Number of shells                            ...     80
Maximum angular momentum                    ...      2
Integral batch strategy                     ... SHARK/LIBINT Hybrid
RI-J (if used) integral strategy            ... SPLIT-RIJ (Revised 2003 algorithm where possible)
Printlevel                                  ...      1
Contraction scheme used                     ... SEGMENTED contraction
Prescreening option                         ... SCHWARTZ
   Thresh                                   ... 1.000e-09
   Tcut                                     ... 1.000e-10
   Tpresel                                  ... 1.000e-10 
Coulomb Range Separation                    ... NOT USED
Exchange Range Separation                   ... NOT USED
Multipole approximations                    ... NOT USED
Finite Nucleus Model                        ... NOT USED
CABS basis                                  ... NOT available
Auxiliary Coulomb fitting basis             ... AVAILABLE
   # of basis functions in Aux-J            ...    600
   # of shells in Aux-J                     ...    200
   Maximum angular momentum in Aux-J        ...      4
Auxiliary J/K fitting basis                 ... NOT available
Auxiliary Correlation fitting basis         ... NOT available
Auxiliary 'external' fitting basis          ... NOT available

Checking pre-screening integrals            ... done (  0.0 sec) Dimension = 80
Check shell pair data                       ... done (  0.0 sec)
Shell pair information
Shell pair cut-off parameter TPreSel        ...   1.0e-10
Total number of shell pairs                 ...      3240
Shell pairs after pre-screening             ...      3062
Total number of primitive shell pairs       ...     13040
Primitive shell pairs kept                  ...      8597
          la=0 lb=0:   1191 shell pairs
          la=1 lb=0:    960 shell pairs
          la=1 lb=1:    207 shell pairs
          la=2 lb=0:    458 shell pairs
          la=2 lb=1:    194 shell pairs
          la=2 lb=2:     52 shell pairs

Calculating one electron integrals          ... done (  0.0 sec)
Calculating RI/J V-Matrix + Cholesky decomp.... done (  0.0 sec)
Calculating Nuclear repulsion               ... done (  0.0 sec) ENN=    635.412622246445 Eh

Diagonalization of the overlap matrix:
Smallest eigenvalue                        ... 4.870e-04
Time for diagonalization                   ...    0.002 sec
Threshold for overlap eigenvalues          ... 1.000e-07
Number of eigenvalues below threshold      ... 0
Time for construction of square roots      ...    0.001 sec
Total time needed                          ...    0.005 sec

-------------------
DFT GRID GENERATION
-------------------

General Integration Accuracy     IntAcc      ... 4.159
Radial Grid Type                 RadialGrid  ... OptM3 with GC (2021)
Angular Grid (max. ang.)         AngularGrid ... 3 (Lebedev-194)
Angular grid pruning method      GridPruning ... 4 (adaptive)
Weight generation scheme         WeightScheme... mBecke (2022)
Basis function cutoff            BFCut       ... 1.0000e-10
Integration weight cutoff        WCut        ... 1.0000e-14
Partially contracted basis set               ... off
Rotationally invariant grid construction     ... off
Angular grids for H and He will be reduced by one unit

Total number of grid points                  ...    46513
Total number of batches                      ...      737
Average number of points per batch           ...       63
Average number of grid points per atom       ...     2326
Initializing property integral containers    ... done (  0.0 sec)

SHARK setup successfully completed in   0.4 seconds

Maximum memory used throughout the entire STARTUP-calculation: 23.9 MB
-------------------------------------------------------------------------------
                                 ORCA GUESS
                   Start orbitals & Density for SCF / CASSCF
-------------------------------------------------------------------------------

------------
SCF SETTINGS
------------
Hamiltonian:
 Density Functional     Method          .... DFT(GTOs)
 Exchange Functional    Exchange        .... PBE
   PBE kappa parameter   XKappa         ....  0.804000
   PBE mue parameter    XMuePBE         ....  0.219520
 Correlation Functional Correlation     .... PBE
   PBE beta parameter  CBetaPBE         ....  0.066725
 LDA part of GGA corr.  LDAOpt          .... PW91-LDA
 Gradients option       PostSCFGGA      .... off
   NL short-range parameter             ....  6.400000
 RI-approximation to the Coulomb term is turned on
   Number of AuxJ basis functions       .... 600


General Settings:
 Integral files         IntName         .... sp
 Hartree-Fock type      HFTyp           .... RHF
 Total Charge           Charge          ....    0
 Multiplicity           Mult            ....    1
 Number of Electrons    NEL             ....   80
 Basis Dimension        Dim             ....  160
 Nuclear Repulsion      ENuc            ....    635.4126222464 Eh

Convergence Acceleration:
 AO-DIIS                CNVDIIS         .... on
   Start iteration      DIISMaxIt       ....    12
   Startup error        DIISStart       ....  0.200000
   # of expansion vecs  DIISMaxEq       ....     5
   Bias factor          DIISBfac        ....   1.050
   Max. coefficient     DIISMaxC        ....  10.000
 MO-DIIS                CNVKDIIS        .... off
 Trust-Rad. Augm. Hess. CNVTRAH         .... auto
   Auto Start mean grad. ratio tolernc. ....  1.125000
   Auto Start start iteration           ....     1
   Auto Start num. interpolation iter.  ....    10
   Max. Number of Micro iterations      ....    24
   Max. Number of Macro iterations      .... Maxiter - #DIIS iter
   Number of Davidson start vectors     ....     2
   Converg. threshold    (grad. norm)   ....   1.000e-04
   Grad. Scal. Fac. for Micro threshold ....   0.100
   Minimum threshold for Micro iter.    ....   1.000e-02
   NR start threshold (gradient norm)   ....   1.000e-04
   Initial trust radius                 ....   0.400
   Minimum AH scaling param. (alpha)    ....   1.000
   Maximum AH scaling param. (alpha)    .... 1000.000
   Quad. conv. algorithm                .... NR
   White noise on init. David. guess    .... on
   Maximum white noise                  ....   0.010
   Pseudo random numbers                .... off
   Inactive MOs                         .... canonical
   Orbital update algorithm             .... Taylor
   Preconditioner                       .... Diag
   Full preconditioner red. dimension   ....   250
 SOSCF                  CNVSOSCF        .... on
   Start iteration      SOSCFMaxIt      ....   150
   Startup grad/error   SOSCFStart      ....  0.003300
   Hessian update       SOSCFHessUp     .... L-BFGS
 Level Shifting         CNVShift        .... on
   Level shift para.    LevelShift      ....    0.2500
   Turn off err/grad.   ShiftErr        ....    0.0010
 Zerner damping         CNVZerner       .... off
 Static damping         CNVDamp         .... on
   Fraction old density DampFac         ....    0.7000
   Max. Damping (<1)    DampMax         ....    0.9800
   Min. Damping (>=0)   DampMin         ....    0.0000
   Turn off err/grad.   DampErr         ....    0.1000

SCF Procedure:
 Maximum # iterations   MaxIter         ....   125
 SCF integral mode      SCFMode         .... Direct
   Integral package                     .... SHARK and LIBINT hybrid scheme
 Reset frequency        DirectResetFreq ....    20
 Integral Threshold     Thresh          ....  1.000e-09 Eh
 Primitive CutOff       TCut            ....  1.000e-10 Eh

Convergence Tolerance:
 Convergence Check Mode ConvCheckMode   .... Total+1el-Energy
 Convergence forced     ConvForced      .... 0
 Energy Change          TolE            ....  1.000e-05 Eh
 1-El. energy change                    ....  1.000e-02 Eh
 Orbital Gradient       TolG            ....  1.000e-04
 Orbital Rotation angle TolX            ....  1.000e-04
 DIIS Error             TolErr          ....  5.000e-04

---------------------
INITIAL GUESS: MOREAD
---------------------
Guess MOs are being read from file: sp.ges
Input Geometry matches current geometry (good)
Input basis set matches current basis set (good)
Occupation numbers will be reassigned to an Aufbau configuration
MOs were renormalized
MOs were reorthogonalized (Cholesky)
                      ------------------
                      INITIAL GUESS DONE (   0.0 sec)
                      ------------------
             **** ENERGY FILE WAS UPDATED (sp.en.tmp) ****
Finished Guess after   0.1 sec
Maximum memory used throughout the entire GUESS-calculation: 11.8 MB

-------------------------------------------------------------------------------------------
                                      ORCA LEAN-SCF
                              memory conserving SCF solver
-------------------------------------------------------------------------------------------

----------------------------------------D-I-I-S--------------------------------------------
Iteration    Energy (Eh)           Delta-E    RMSDP     MaxDP     DIISErr   Damp  Time(sec)
-------------------------------------------------------------------------------------------
               ***  Starting incremental Fock matrix formation  ***
                              *** Initializing SOSCF ***
---------------------------------------S-O-S-C-F--------------------------------------
Iteration    Energy (Eh)           Delta-E    RMSDP     MaxDP     MaxGrad    Time(sec)
--------------------------------------------------------------------------------------
    1    -571.5227888955140543     0.00e+00  1.70e-05  2.37e-04  1.64e-05     0.7
               *** Restarting incremental Fock matrix formation ***
    2    -571.5227889890273900    -9.35e-08  2.56e-05  5.86e-04  5.58e-05     0.7
    3    -571.5227884587981180     5.30e-07  1.64e-05  3.71e-04  1.10e-04     0.5
                 **** Energy Check signals convergence ****

               *****************************************************
               *                     SUCCESS                       *
               *           SCF CONVERGED AFTER   3 CYCLES          *
               *****************************************************

             **** ENERGY FILE WAS UPDATED (sp.en.tmp) ****

----------------
TOTAL SCF ENERGY
----------------

Total Energy       :       -571.52278845879812 Eh          -15551.92572 eV

Components:
Nuclear Repulsion  :        635.41262224644549 Eh           17290.45648 eV
Electronic Energy  :      -1206.93541070524361 Eh          -32842.38220 eV
One Electron Energy:      -2044.85670747291988 Eh          -55643.37987 eV
Two Electron Energy:        837.92129676767627 Eh           22800.99767 eV

Virial components:
Potential Energy   :      -1139.13801372915896 Eh          -30997.52124 eV
Kinetic Energy     :        567.61522527036095 Eh           15445.59552 eV
Virial Ratio       :          2.00688417613635

DFT components:
N(Alpha)           :       39.999822988934 electrons
N(Beta)            :       39.999822988934 electrons
N(Total)           :       79.999645977868 electrons
E(X)               :      -70.508251452337 Eh       
E(C)               :       -2.736650149057 Eh       
E(XC)              :      -73.244901601393 Eh       

---------------
SCF CONVERGENCE
---------------

  Last Energy change         ...   -5.3023e-07  Tolerance :   1.0000e-05
  Last MAX-Density change    ...    3.7065e-04  Tolerance :   1.0000e-03
  Last RMS-Density change    ...    1.6370e-05  Tolerance :   1.0000e-04
  Last DIIS Error            ...    1.7343e-04  Tolerance :   5.0000e-04
  Last Orbital Gradient      ...    1.0954e-04  Tolerance :   1.0000e-04
  Last Orbital Rotation      ...    7.4189e-05  Tolerance :   1.0000e-04


----------------
ORBITAL ENERGIES
----------------

  NO   OCC          E(Eh)            E(eV) 
   0   2.0000     -18.774681      -510.8850 
   1   2.0000     -18.770338      -510.7669 
   2   2.0000     -18.767186      -510.6811 
   3   2.0000     -18.764674      -510.6127 
   4   2.0000     -18.735669      -509.8235 
   5   2.0000      -9.992935      -271.9216 
   6   2.0000      -9.948859      -270.7222 
   7   2.0000      -9.942859      -270.5589 
   8   2.0000      -9.941802      -270.5302 
   9   2.0000      -9.936634      -270.3896 
  10   2.0000      -0.988863       -26.9083 
  11   2.0000      -0.950427       -25.8624 
  12   2.0000      -0.937420       -25.5085 
  13   2.0000      -0.919675       -25.0256 
  14   2.0000      -0.914886       -24.8953 
  15   2.0000      -0.700398       -19.0588 
  16   2.0000      -0.682123       -18.5615 
  17   2.0000      -0.593731       -16.1563 
  18   2.0000      -0.590282       -16.0624 
  19   2.0000      -0.522823       -14.2267 
  20   2.0000      -0.502958       -13.6862 
  21   2.0000      -0.490507       -13.3474 
  22   2.0000      -0.473861       -12.8944 
  23   2.0000      -0.449907       -12.2426 
  24   2.0000      -0.433193       -11.7878 
  25   2.0000      -0.427394       -11.6300 
  26   2.0000      -0.405325       -11.0294 
  27   2.0000      -0.381387       -10.3781 
  28   2.0000      -0.379133       -10.3167 
  29   2.0000      -0.357375        -9.7247 
  30   2.0000      -0.329168        -8.9571 
  31   2.0000      -0.318649        -8.6709 
  32   2.0000      -0.315417        -8.5829 
  33   2.0000      -0.300337        -8.1726 
  34   2.0000      -0.266497        -7.2517 
  35   2.0000      -0.245729        -6.6866 
  36   2.0000      -0.243172        -6.6170 
  37   2.0000      -0.232250        -6.3199 
  38   2.0000      -0.231934        -6.3112 
  39   2.0000      -0.201857        -5.4928 
  40   0.0000       0.016196         0.4407 
  41   0.0000       0.027928         0.7600 
  42   0.0000       0.039598         1.0775 
  43   0.0000       0.051244         1.3944 
  44   0.0000       0.079448         2.1619 
  45   0.0000       0.084860         2.3092 
  46   0.0000       0.092077         2.5055 
  47   0.0000       0.096232         2.6186 
  48   0.0000       0.109469         2.9788 
  49   0.0000       0.119510         3.2520 
  50   0.0000       0.127378         3.4661 
*Only the first 10 virtual orbitals were printed.

                    ********************************
                    * MULLIKEN POPULATION ANALYSIS *
                    ********************************

-----------------------
MULLIKEN ATOMIC CHARGES
-----------------------
   0 C :    0.054135
   1 C :    0.008323
   2 H :    0.057635
   3 C :    0.056492
   4 H :    0.054412
   5 C :    0.001766
   6 H :    0.077243
   7 C :    0.194869
   8 H :    0.077023
   9 O :   -0.297241
  10 O :   -0.423367
  11 O :   -0.419202
  12 O :   -0.424356
  13 O :   -0.433396
  14 H :    0.079929
  15 H :    0.100894
  16 H :    0.312974
  17 H :    0.313831
  18 H :    0.303340
  19 H :    0.304697
Sum of atomic charges:    0.0000000

--------------------------------
MULLIKEN REDUCED ORBITAL CHARGES
--------------------------------
  0 C s       :     3.017273  s :     3.017273
      pz      :     1.028503  p :     2.867903
      px      :     0.778060
      py      :     1.061340
      dz2     :     0.012114  d :     0.060690
      dxz     :     0.011681
      dyz     :     0.007195
      dx2y2   :     0.014646
      dxy     :     0.015054

  1 C s       :     3.065429  s :     3.065429
      pz      :     0.832901  p :     2.856097
      px      :     1.053317
      py      :     0.969879
      dz2     :     0.020437  d :     0.070152
      dxz     :     0.012592
      dyz     :     0.018733
      dx2y2   :     0.010013
      dxy     :     0.008376

  2 H s       :     0.942365  s :     0.942365

  3 C s       :     3.039020  s :     3.039020
      pz      :     0.946844  p :     2.838411
      px      :     0.989730
      py      :     0.901837
      dz2     :     0.016491  d :     0.066077
      dxz     :     0.009095
      dyz     :     0.013425
      dx2y2   :     0.014360
      dxy     :     0.012706

  4 H s       :     0.945588  s :     0.945588

  5 C s       :     3.046112  s :     3.046112
      pz      :     1.040093  p :     2.886078
      px      :     0.909980
      py      :     0.936005
      dz2     :     0.017146  d :     0.066043
      dxz     :     0.009647
      dyz     :     0.008859
      dx2y2   :     0.015013
      dxy     :     0.015378

  6 H s       :     0.922757  s :     0.922757

  7 C s       :     3.033085  s :     3.033085
      pz      :     0.774413  p :     2.671249
      px      :     1.020697
      py      :     0.876139
      dz2     :     0.029942  d :     0.100796
      dxz     :     0.019341
      dyz     :     0.020952
      dx2y2   :     0.017337
      dxy     :     0.013225

  8 H s       :     0.922977  s :     0.922977

  9 O s       :     3.742038  s :     3.742038
      pz      :     1.705364  p :     4.539274
      px      :     1.266137
      py      :     1.567773
      dz2     :     0.002323  d :     0.015929
      dxz     :     0.001944
      dyz     :     0.002824
      dx2y2   :     0.004252
      dxy     :     0.004586

 10 O s       :     3.777673  s :     3.777673
      pz      :     1.293322  p :     4.631040
      px      :     1.746810
      py      :     1.590907
      dz2     :     0.003888  d :     0.014654
      dxz     :     0.002022
      dyz     :     0.003372
      dx2y2   :     0.001604
      dxy     :     0.003769

 11 O s       :     3.780225  s :     3.780225
      pz      :     1.761641  p :     4.623676
      px      :     1.654050
      py      :     1.207984
      dz2     :     0.002344  d :     0.015302
      dxz     :     0.002742
      dyz     :     0.002343
      dx2y2   :     0.003754
      dxy     :     0.004118

 12 O s       :     3.781949  s :     3.781949
      pz      :     1.665906  p :     4.627052
      px      :     1.321184
      py      :     1.639961
      dz2     :     0.002534  d :     0.015356
      dxz     :     0.003500
      dyz     :     0.003272
      dx2y2   :     0.004919
      dxy     :     0.001131

 13 O s       :     3.775275  s :     3.775275
      pz      :     1.393863  p :     4.642639
      px      :     1.495244
      py      :     1.753532
      dz2     :     0.004364  d :     0.015483
      dxz     :     0.002827
      dyz     :     0.002237
      dx2y2   :     0.004012
      dxy     :     0.002043

 14 H s       :     0.920071  s :     0.920071

 15 H s       :     0.899106  s :     0.899106

 16 H s       :     0.687026  s :     0.687026

 17 H s       :     0.686169  s :     0.686169

 18 H s       :     0.696660  s :     0.696660

 19 H s       :     0.695303  s :     0.695303


------------------------
MULLIKEN OVERLAP CHARGES
------------------------
B(  0-C ,  1-C ) :   0.6957 B(  0-C ,  3-C ) :  -0.0613 B(  0-C ,  7-C ) :  -0.1748 
B(  0-C ,  9-O ) :   0.6683 B(  0-C , 13-O ) :  -0.0591 B(  0-C , 14-H ) :   0.6663 
B(  0-C , 15-H ) :   0.6517 B(  1-C ,  2-H ) :   0.5842 B(  1-C ,  3-C ) :   0.3164 
B(  1-C ,  4-H ) :  -0.0765 B(  1-C ,  9-O ) :  -0.0699 B(  1-C , 12-O ) :  -0.0599 
B(  1-C , 13-O ) :   0.5834 B(  1-C , 14-H ) :  -0.0744 B(  1-C , 19-H ) :  -0.1532 
B(  2-H ,  3-C ) :  -0.0675 B(  3-C ,  4-H ) :   0.5614 B(  3-C ,  5-C ) :   0.2365 
B(  3-C ,  9-O ) :  -0.0622 B(  3-C , 11-O ) :  -0.1020 B(  3-C , 12-O ) :   0.5623 
B(  3-C , 13-O ) :  -0.1005 B(  3-C , 18-H ) :  -0.0892 B(  5-C ,  6-H ) :   0.5989 
B(  5-C ,  7-C ) :   0.3161 B(  5-C ,  8-H ) :  -0.0617 B(  5-C , 11-O ) :   0.6206 
B(  5-C , 12-O ) :  -0.1228 B(  5-C , 17-H ) :  -0.1039 B(  6-H , 11-O ) :  -0.0635 
B(  7-C ,  8-H ) :   0.6638 B(  7-C ,  9-O ) :   0.6802 B(  7-C , 10-O ) :   0.4600 
B(  7-C , 11-O ) :  -0.1091 B(  7-C , 16-H ) :  -0.0809 B(  8-H ,  9-O ) :  -0.0625 
B(  8-H , 10-O ) :  -0.0789 B(  9-O , 10-O ) :  -0.1106 B(  9-O , 14-H ) :  -0.0703 
B(  9-O , 15-H ) :  -0.0568 B( 10-O , 16-H ) :   0.5130 B( 10-O , 19-H ) :   0.0997 
B( 11-O , 17-H ) :   0.5400 B( 12-O , 18-H ) :   0.5278 B( 13-O , 19-H ) :   0.5663 
B( 14-H , 15-H ) :  -0.0786 


                     *******************************
                     * LOEWDIN POPULATION ANALYSIS *
                     *******************************

----------------------
LOEWDIN ATOMIC CHARGES
----------------------
   0 C :   -0.117959
   1 C :   -0.089406
   2 H :    0.113679
   3 C :   -0.083228
   4 H :    0.101739
   5 C :   -0.091458
   6 H :    0.115055
   7 C :    0.006831
   8 H :    0.104216
   9 O :   -0.132055
  10 O :   -0.322916
  11 O :   -0.321624
  12 O :   -0.326765
  13 O :   -0.326007
  14 H :    0.105382
  15 H :    0.121603
  16 H :    0.291352
  17 H :    0.295177
  18 H :    0.286223
  19 H :    0.270162

-------------------------------
LOEWDIN REDUCED ORBITAL CHARGES
-------------------------------
  0 C s       :     2.927138  s :     2.927138
      pz      :     1.087149  p :     3.053367
      px      :     0.862534
      py      :     1.103684
      dz2     :     0.028253  d :     0.137453
      dxz     :     0.025436
      dyz     :     0.019398
      dx2y2   :     0.031057
      dxy     :     0.033310

  1 C s       :     2.894330  s :     2.894330
      pz      :     0.919663  p :     3.033034
      px      :     1.077440
      py      :     1.035930
      dz2     :     0.046977  d :     0.162043
      dxz     :     0.026273
      dyz     :     0.042872
      dx2y2   :     0.023259
      dxy     :     0.022662

  2 H s       :     0.886321  s :     0.886321

  3 C s       :     2.905090  s :     2.905090
      pz      :     1.027276  p :     3.023177
      px      :     1.030159
      py      :     0.965742
      dz2     :     0.039343  d :     0.154961
      dxz     :     0.020338
      dyz     :     0.030151
      dx2y2   :     0.034630
      dxy     :     0.030499

  4 H s       :     0.898261  s :     0.898261

  5 C s       :     2.901123  s :     2.901123
      pz      :     1.064024  p :     3.034431
      px      :     0.988279
      py      :     0.982127
      dz2     :     0.041414  d :     0.155905
      dxz     :     0.021857
      dyz     :     0.020633
      dx2y2   :     0.037562
      dxy     :     0.034438

  6 H s       :     0.884945  s :     0.884945

  7 C s       :     2.885770  s :     2.885770
      pz      :     0.860494  p :     2.882853
      px      :     1.045404
      py      :     0.976955
      dz2     :     0.071195  d :     0.224546
      dxz     :     0.040490
      dyz     :     0.043165
      dx2y2   :     0.039661
      dxy     :     0.030036

  8 H s       :     0.895784  s :     0.895784

  9 O s       :     3.458117  s :     3.458117
      pz      :     1.716825  p :     4.643444
      px      :     1.330286
      py      :     1.596333
      dz2     :     0.003718  d :     0.030494
      dxz     :     0.004181
      dyz     :     0.004576
      dx2y2   :     0.008683
      dxy     :     0.009336

 10 O s       :     3.540037  s :     3.540037
      pz      :     1.363849  p :     4.757110
      px      :     1.763268
      py      :     1.629993
      dz2     :     0.008610  d :     0.025769
      dxz     :     0.003579
      dyz     :     0.005893
      dx2y2   :     0.002069
      dxy     :     0.005619

 11 O s       :     3.532240  s :     3.532240
      pz      :     1.794791  p :     4.762480
      px      :     1.687995
      py      :     1.279693
      dz2     :     0.003683  d :     0.026904
      dxz     :     0.003886
      dyz     :     0.004466
      dx2y2   :     0.006969
      dxy     :     0.007901

 12 O s       :     3.537993  s :     3.537993
      pz      :     1.716175  p :     4.761654
      px      :     1.388000
      py      :     1.657479
      dz2     :     0.003933  d :     0.027118
      dxz     :     0.005885
      dyz     :     0.005601
      dx2y2   :     0.008991
      dxy     :     0.002708

 13 O s       :     3.525255  s :     3.525255
      pz      :     1.458200  p :     4.773672
      px      :     1.549808
      py      :     1.765665
      dz2     :     0.008530  d :     0.027080
      dxz     :     0.004812
      dyz     :     0.004521
      dx2y2   :     0.006084
      dxy     :     0.003132

 14 H s       :     0.894618  s :     0.894618

 15 H s       :     0.878397  s :     0.878397

 16 H s       :     0.708648  s :     0.708648

 17 H s       :     0.704823  s :     0.704823

 18 H s       :     0.713777  s :     0.713777

 19 H s       :     0.729838  s :     0.729838


---------------------------------
LOEWDIN BOND ORDERS (THRESH 0.050000)
---------------------------------
B(  0-C ,  1-C ) :   1.0676 B(  0-C ,  3-C ) :   0.0554 B(  0-C ,  7-C ) :   0.0623 
B(  0-C ,  9-O ) :   1.1405 B(  0-C , 13-O ) :   0.0775 B(  0-C , 14-H ) :   0.8999 
B(  0-C , 15-H ) :   0.9104 B(  1-C ,  2-H ) :   0.8682 B(  1-C ,  3-C ) :   1.0027 
B(  1-C ,  5-C ) :   0.0520 B(  1-C ,  9-O ) :   0.0572 B(  1-C , 12-O ) :   0.0779 
B(  1-C , 13-O ) :   1.2498 B(  3-C ,  4-H ) :   0.8678 B(  3-C ,  5-C ) :   1.0216 
B(  3-C ,  7-C ) :   0.0531 B(  3-C , 11-O ) :   0.0762 B(  3-C , 12-O ) :   1.2148 
B(  3-C , 13-O ) :   0.0830 B(  5-C ,  6-H ) :   0.8629 B(  5-C ,  7-C ) :   1.0242 
B(  5-C ,  9-O ) :   0.0599 B(  5-C , 10-O ) :   0.0769 B(  5-C , 11-O ) :   1.2137 
B(  5-C , 12-O ) :   0.0648 B(  7-C ,  8-H ) :   0.8815 B(  7-C ,  9-O ) :   1.2501 
B(  7-C , 10-O ) :   1.1953 B(  7-C , 11-O ) :   0.0651 B(  9-O , 10-O ) :   0.0755 
B( 10-O , 16-H ) :   0.8601 B( 10-O , 19-H ) :   0.0923 B( 11-O , 17-H ) :   0.8766 
B( 12-O , 18-H ) :   0.8823 B( 13-O , 19-H ) :   0.8438 

------------------------------------------
LOEWDIN REDUCED ORBITAL POPULATIONS PER MO
-------------------------------------------
THRESHOLD FOR PRINTING IS 0.1%%
                      0         1         2         3         4         5   
                 -18.77468 -18.77034 -18.76719 -18.76467 -18.73567  -9.99294
                   2.00000   2.00000   2.00000   2.00000   2.00000   2.00000
                  --------  --------  --------  --------  --------  --------
 7 C  s               0.0       0.0       0.0       0.0       0.0      99.6
 9 O  s              99.9       0.0       0.0       0.0       0.0       0.0
10 O  s               0.0       0.0      99.9       0.0       0.0       0.0
10 O  pz              0.0       0.0       0.0       0.0       0.0       0.1
11 O  s               0.0      99.9       0.0       0.0       0.0       0.0
12 O  s               0.0       0.0       0.0      99.9       0.0       0.0
13 O  s               0.0       0.0       0.0       0.0      99.9       0.0

                      6         7         8         9        10        11   
                  -9.94886  -9.94286  -9.94180  -9.93663  -0.98886  -0.95043
                   2.00000   2.00000   2.00000   2.00000   2.00000   2.00000
                  --------  --------  --------  --------  --------  --------
 0 C  s               0.0       0.0       0.0      99.6       4.1       0.6
 0 C  pz              0.0       0.0       0.0       0.0       0.5       0.0
 0 C  px              0.0       0.0       0.0       0.0       3.3       0.8
 0 C  py              0.0       0.0       0.0       0.0       0.0       0.1
 0 C  dx2y2           0.0       0.0       0.0       0.0       0.2       0.1
 1 C  s               0.0       0.1      99.4       0.0       1.3       0.1
 1 C  px              0.0       0.0       0.0       0.0       0.5       0.0
 1 C  py              0.0       0.1       0.0       0.0       0.1       0.7
 2 H  s               0.0       0.0       0.1       0.0       0.1       0.0
 3 C  s               0.0      99.5       0.1       0.0       1.0       5.1
 3 C  pz              0.0       0.0       0.0       0.0       0.1       1.1
 3 C  px              0.1       0.0       0.0       0.0       0.2       0.1
 3 C  py              0.0       0.0       0.1       0.0       0.1       1.8
 3 C  dyz             0.0       0.0       0.0       0.0       0.0       0.1
 4 H  s               0.0       0.1       0.0       0.0       0.2       0.8
 5 C  s              99.6       0.0       0.0       0.0       3.5       6.3
 5 C  pz              0.0       0.0       0.0       0.0       0.5       0.9
 5 C  px              0.0       0.1       0.0       0.0       0.2       0.6
 5 C  py              0.0       0.0       0.0       0.0       0.7       4.6
 5 C  dyz             0.0       0.0       0.0       0.0       0.0       0.1
 5 C  dxy             0.0       0.0       0.0       0.0       0.0       0.2
 6 H  s               0.1       0.0       0.0       0.0       0.5       0.9
 7 C  s               0.0       0.0       0.0       0.0      15.4       0.4
 7 C  pz              0.0       0.0       0.0       0.0       0.5       0.0
 7 C  px              0.0       0.0       0.0       0.0       1.9       0.3
 7 C  py              0.1       0.0       0.0       0.0       1.2       2.7
 7 C  dxy             0.0       0.0       0.0       0.0       0.2       0.1
 8 H  s               0.0       0.0       0.0       0.0       1.8       0.0
 9 O  s               0.0       0.0       0.0       0.0      26.9       6.3
 9 O  pz              0.0       0.0       0.0       0.0       0.4       0.0
 9 O  py              0.0       0.0       0.0       0.0       1.9       0.3
10 O  s               0.0       0.0       0.0       0.0      18.2       0.4
10 O  pz              0.0       0.0       0.0       0.0       1.2       0.0
10 O  py              0.0       0.0       0.0       0.0       0.4       0.0
11 O  s               0.0       0.0       0.0       0.0       3.5      32.2
11 O  pz              0.0       0.0       0.0       0.0       0.1       0.6
11 O  px              0.0       0.0       0.0       0.0       0.2       1.3
12 O  s               0.0       0.0       0.0       0.0       0.7      18.2
12 O  pz              0.0       0.0       0.0       0.0       0.0       0.7
12 O  py              0.0       0.1       0.0       0.0       0.0       0.3
13 O  s               0.0       0.0       0.0       0.0       1.2       0.0
13 O  pz              0.0       0.0       0.1       0.0       0.1       0.0
14 H  s               0.0       0.0       0.0       0.1       0.5       0.1
15 H  s               0.0       0.0       0.0       0.1       0.5       0.1
16 H  s               0.0       0.0       0.0       0.0       3.6       0.0
17 H  s               0.0       0.0       0.0       0.0       0.7       6.7
18 H  s               0.0       0.0       0.0       0.0       0.1       3.6
19 H  s               0.0       0.0       0.0       0.0       0.9       0.0

                     12        13        14        15        16        17   
                  -0.93742  -0.91968  -0.91489  -0.70040  -0.68212  -0.59373
                   2.00000   2.00000   2.00000   2.00000   2.00000   2.00000
                  --------  --------  --------  --------  --------  --------
 0 C  s               0.9       3.0       0.1       2.5      19.3       2.6
 0 C  pz              0.2       0.2       0.5       0.1       0.0       1.2
 0 C  px              0.1       1.6       1.6       1.1       0.4       1.9
 0 C  py              0.0       0.0       0.3       2.3       0.0       2.4
 0 C  dx2y2           0.0       0.1       0.1       0.1       0.0       0.0
 1 C  s               2.6       0.9       7.7       8.3       5.0      10.3
 1 C  pz              0.2       0.1       7.7       2.1       3.7       0.0
 1 C  px              0.1       0.1       0.0       1.3       0.0       1.1
 1 C  py              0.1       0.6       1.4       1.6       0.9       2.4
 1 C  dz2             0.0       0.0       0.5       0.1       0.0       0.0
 1 C  dyz             0.0       0.0       0.3       0.1       0.1       0.0
 2 H  s               0.5       0.1       0.9       1.5       1.4       4.9
 3 C  s               5.1       0.1       0.0      14.1       0.1       0.9
 3 C  pz              1.4       0.1       0.6       0.0       0.0       0.8
 3 C  px              3.1       0.2       0.0       1.6       1.9       5.5
 3 C  py              1.4       0.6       1.8       4.0       0.3       1.7
 3 C  dxz             0.1       0.0       0.0       0.1       0.0       0.0
 3 C  dyz             0.2       0.0       0.0       0.1       0.0       0.0
 3 C  dxy             0.1       0.0       0.1       0.0       0.0       0.1
 4 H  s               0.5       0.0       0.1       2.3       0.0       0.3
 5 C  s               1.2       0.5       0.0      11.8       5.8       7.2
 5 C  pz              0.5       0.0       0.0       0.0       0.0       0.4
 5 C  px              3.7       0.3       0.0       3.8       0.1       0.1
 5 C  py              0.7       0.6       0.0       1.2       2.2       0.0
 5 C  dxy             0.2       0.1       0.0       0.1       0.1       0.0
 6 H  s               0.1       0.1       0.0       2.4       1.2       2.7
 7 C  s               0.2       0.5       0.3       0.7      11.1       1.5
 7 C  pz              1.0      10.5       0.9       0.1       1.8       0.1
 7 C  px              0.3       1.0       0.2       0.4       0.1       0.2
 7 C  py              0.7       0.4       0.5       5.2       0.3       7.0
 7 C  dz2             0.1       0.8       0.0       0.0       0.1       0.0
 7 C  dyz             0.0       0.1       0.0       0.1       0.0       0.0
 7 C  dxy             0.0       0.1       0.0       0.2       0.0       0.1
 8 H  s               0.0       0.1       0.1       0.1       2.8       0.6
 9 O  s               1.8      13.2       6.1       3.2       0.0       0.0
 9 O  pz              0.0       0.1       0.0       0.0       1.6       2.7
 9 O  px              0.1       0.5       0.0       0.3      12.4       9.1
 9 O  py              0.0       0.3       0.2       0.2       1.5       0.6
 9 O  dx2y2           0.0       0.0       0.0       0.0       0.1       0.0
 9 O  dxy             0.0       0.0       0.0       0.0       0.1       0.0
10 O  s               3.5      37.0       1.1       0.5       2.6       0.0
10 O  pz              0.0       0.2       0.0       0.1       3.2       2.3
10 O  px              0.1       0.4       0.0       0.0       0.3       0.0
10 O  py              0.2       1.3       0.1       0.1       0.4       1.2
11 O  s              16.5       6.7       0.0       2.9       1.2       1.1
11 O  pz              0.2       0.1       0.0       0.1       0.1       0.3
11 O  px              0.5       0.2       0.0       0.5       0.1       0.6
11 O  py              0.0       0.1       0.0       2.8       2.2       7.3
12 O  s              33.1       3.7       3.2       3.7       0.0       0.5
12 O  pz              1.1       0.1       0.1       0.2       0.0       0.2
12 O  px              0.4       0.1       0.0       2.8       0.1       0.1
12 O  py              0.4       0.0       0.0       1.7       0.0       0.3
13 O  s               4.2       2.3      49.1       3.3       1.7       1.6
13 O  pz              0.2       0.1       1.3       1.0       0.9       3.9
13 O  px              0.1       0.0       1.6       0.3       0.2       1.6
13 O  py              0.0       0.0       0.1       0.4       0.1       2.0
14 H  s               0.1       0.3       0.0       0.8       4.0       0.9
15 H  s               0.1       0.4       0.0       0.3       4.6       1.2
16 H  s               1.0       7.5       0.2       0.1       1.7       0.8
17 H  s               3.1       1.5       0.0       1.7       1.0       2.6
18 H  s               6.9       0.8       0.7       2.3       0.0       0.0
19 H  s               0.7       0.2       9.9       1.3       0.6       2.5

                     18        19        20        21        22        23   
                  -0.59028  -0.52282  -0.50296  -0.49051  -0.47386  -0.44991
                   2.00000   2.00000   2.00000   2.00000   2.00000   2.00000
                  --------  --------  --------  --------  --------  --------
 0 C  s               4.2       3.6       0.1       0.8       1.1       0.0
 0 C  pz              0.0       0.3       0.6       0.6       5.9       0.2
 0 C  px              3.4       1.8       1.4       0.8       0.1       2.9
 0 C  py              0.4       0.1       0.8       6.9       0.3       3.9
 0 C  dx2y2           0.1       0.1       0.0       0.0       0.0       0.0
 1 C  s               1.7       1.7       0.1       0.1       0.6       0.5
 1 C  pz              1.8       2.9       1.0       0.7       0.6       8.9
 1 C  px              1.1       3.5       2.5       4.4       1.5       0.2
 1 C  py              4.1       1.4       1.0       0.4       3.0       0.2
 2 H  s               1.4       2.0       0.7       0.3       0.6       0.7
 3 C  s              11.2       0.0       0.9       0.6       1.7       0.0
 3 C  pz              0.6       1.3      12.0       0.3       3.5       0.9
 3 C  px              0.6       0.8       0.0       0.4       2.1       1.3
 3 C  py              0.8       0.4       1.1       8.7       0.1       0.2
 3 C  dyz             0.0       0.0       0.1       0.1       0.1       0.0
 4 H  s               4.4       0.1       4.2       1.0       3.2       0.5
 5 C  s               0.5       0.6       0.4       0.5       2.0       0.3
 5 C  pz              0.2       0.0      14.5       2.0       1.3       1.2
 5 C  px              8.6       2.4       0.4       2.1       0.4       2.1
 5 C  py              3.7       0.1       0.3       3.0       4.1       4.1
 5 C  dxz             0.1       0.0       0.0       0.1       0.0       0.1
 5 C  dyz             0.0       0.0       0.0       0.0       0.0       0.1
 5 C  dxy             0.0       0.0       0.1       0.0       0.1       0.3
 6 H  s               0.2       0.1       6.0       1.2       2.1       0.9
 7 C  s               6.0       1.8       0.0       0.6       1.9       1.3
 7 C  pz              0.2       4.1       5.7       1.2       5.3       0.5
 7 C  px              1.6       0.1       1.6       9.6       7.3       0.8
 7 C  py              2.5       0.9       1.0       0.8       0.8       4.5
 7 C  dz2             0.0       0.1       0.0       0.0       0.1       0.1
 7 C  dyz             0.1       0.2       0.0       0.0       0.1       0.1
 7 C  dx2y2           0.0       0.0       0.0       0.0       0.1       0.1
 7 C  dxy             0.0       0.0       0.0       0.0       0.0       0.2
 8 H  s               3.0       0.1       1.2       3.2       7.2       1.0
 9 O  s               2.9       3.4       0.0       0.6       0.2       0.2
 9 O  pz              0.0       1.7       0.3       0.2       3.9       2.5
 9 O  px              0.1       0.1       4.7       0.0       1.1       5.7
 9 O  py              0.7       0.4       0.4       4.9       0.6       0.3
10 O  s               0.9       0.0       0.3       0.2       1.1       0.3
10 O  pz              3.3      14.6       6.0       4.6       2.6       3.1
10 O  px              0.0       3.4       2.6       1.0       3.1       0.9
10 O  py              0.0       5.3       0.2       0.4       3.4       0.8
10 O  dz2             0.0       0.1       0.0       0.0       0.0       0.0
11 O  s               0.0       0.0       0.3       0.0       0.4       0.8
11 O  pz              0.1       0.0       1.2       0.0       1.9       0.1
11 O  px              0.2       0.0       0.1       0.2       2.1       0.2
11 O  py              3.3       8.5       4.7       7.9       1.3      19.3
12 O  s               1.2       0.1       0.3       0.0       0.5       0.0
12 O  pz              1.0       0.0       0.5       1.6       1.5       0.0
12 O  px              8.6       2.7       8.9      10.2       0.6       0.0
12 O  py              3.2       0.3       2.3       2.6       0.3       1.3
13 O  s               0.1       0.0       0.5       0.3       0.2       0.2
13 O  pz              1.1       3.6       0.0       0.6       6.4       5.2
13 O  px              0.5       3.9       0.8       2.4       2.6       5.7
13 O  py              0.0       3.0       0.2       0.1       0.3       3.2
14 H  s               1.6       2.2       0.7       0.1       3.7       0.1
15 H  s               1.5       1.8       0.0       3.4       0.2       0.3
16 H  s               0.7       6.9       2.1       0.6       2.3       0.1
17 H  s               0.8       2.4       1.4       2.2       0.4       5.7
18 H  s               4.1       0.8       3.1       3.7       0.0       0.1
19 H  s               0.5       3.2       0.1       0.9       1.7       4.7

                     24        25        26        27        28        29   
                  -0.43319  -0.42739  -0.40532  -0.38139  -0.37913  -0.35737
                   2.00000   2.00000   2.00000   2.00000   2.00000   2.00000
                  --------  --------  --------  --------  --------  --------
 0 C  s               1.1       0.1       0.0       0.0       0.7       0.1
 0 C  pz              1.4       6.8      20.8       2.1       0.4       3.4
 0 C  px              8.4       1.7       0.2       2.7       0.3       3.5
 0 C  py              1.0       0.2       3.4       8.8       2.4      10.8
 0 C  dz2             0.0       0.0       0.0       0.2       0.2       0.0
 0 C  dyz             0.0       0.1       0.2       0.0       0.0       0.0
 0 C  dx2y2           0.1       0.0       0.1       0.0       0.0       0.3
 0 C  dxy             0.1       0.1       0.0       0.1       0.1       0.3
 1 C  s               0.3       0.0       0.7       0.2       0.2       0.2
 1 C  pz              0.0       0.0       0.1       0.9       4.1       5.4
 1 C  px              0.3       1.5       8.6       8.6       5.6       2.5
 1 C  py              2.4      12.7       0.5       0.0       1.6       2.3
 1 C  dz2             0.0       0.0       0.2       0.2       0.2       0.0
 1 C  dx2y2           0.0       0.0       0.1       0.0       0.1       0.1
 1 C  dxy             0.0       0.0       0.0       0.0       0.0       0.2
 2 H  s               0.0       1.8       1.9       4.5       6.8       3.1
 3 C  s               0.4       0.2       0.4       0.0       0.0       0.1
 3 C  pz              8.8       0.2       0.1       1.4       4.0       2.0
 3 C  px              7.5       3.9       0.4       2.9       4.5       0.1
 3 C  py              1.2       2.0       1.0       3.6       3.2       6.7
 3 C  dxz             0.1       0.0       0.0       0.0       0.0       0.0
 3 C  dyz             0.2       0.1       0.0       0.0       0.0       0.1
 3 C  dx2y2           0.1       0.1       0.1       0.0       0.4       0.0
 3 C  dxy             0.0       0.1       0.0       0.1       0.0       0.0
 4 H  s               5.7       0.1       0.1       1.3       2.3       1.9
 5 C  s               1.0       0.8       0.0       0.3       0.5       0.0
 5 C  pz              0.0      10.2       3.2       1.3       4.9       0.0
 5 C  px              2.7       0.7       0.3       2.0       6.4       0.3
 5 C  py              3.5       1.7       0.6       5.5       0.0       1.6
 5 C  dz2             0.1       0.1       0.0       0.0       0.0       0.0
 5 C  dxz             0.2       0.0       0.0       0.0       0.0       0.0
 5 C  dx2y2           0.0       0.0       0.0       0.2       0.0       0.1
 6 H  s               0.5       7.0       1.4       0.7       1.3       0.0
 7 C  s               0.1       0.4       0.2       0.3       0.0       0.1
 7 C  pz              1.2       1.3       0.3       0.7       0.7       0.2
 7 C  px              0.0       1.5       9.3       7.1       0.7       1.5
 7 C  py              5.1       0.7       0.4       3.5       0.3       0.1
 7 C  dz2             0.0       0.2       0.1       0.0       0.0       0.0
 7 C  dyz             0.0       0.3       0.0       0.0       0.1       0.0
 7 C  dx2y2           0.0       0.0       0.1       0.1       0.0       0.2
 8 H  s               0.0       0.0       5.8       2.4       0.1       0.7
 9 O  s               0.0       0.4       0.0       0.0       2.0       0.1
 9 O  pz              0.6       2.5       1.9       2.3       0.1       0.1
 9 O  px             10.0       0.4       0.6       0.1       0.2       5.7
 9 O  py              0.0       3.7       5.5       0.1       9.7       3.6
10 O  s               0.3       1.5       0.1       0.1       1.4       0.2
10 O  pz              2.3       1.9       0.7       1.1       1.0       1.0
10 O  px              0.0       0.5       2.0       5.1       1.5       2.5
10 O  py              0.6       6.8       0.3       0.6       3.3       0.2
11 O  s               1.7       0.3       0.2       0.0       0.3       2.2
11 O  pz              0.5       6.2       2.0       0.0       3.0       2.5
11 O  px              6.2       0.1       0.1       2.3       2.6       7.8
11 O  py              0.5       0.0       0.2       1.2       1.3       0.6
12 O  s               0.3       1.7       0.1       1.1       0.0       0.6
12 O  pz              0.2       0.1       0.0       7.7       5.0       6.1
12 O  px              4.3       5.8       0.5       0.1       1.4       0.0
12 O  py              8.9       0.4       0.0       1.7       0.1       1.4
12 O  dx2y2           0.1       0.0       0.0       0.0       0.0       0.0
13 O  s               0.0       0.1       2.4       0.0       0.5       0.1
13 O  pz              0.2       4.1       0.8       2.1       6.8       1.4
13 O  px              0.2       0.1       8.1       0.0       0.3       0.2
13 O  py              0.0       0.6       0.6       1.8       2.7       4.8
14 H  s               1.6       1.5      10.7       3.1       1.9       0.5
15 H  s               4.1       0.1       1.3       5.6       0.5       9.2
16 H  s               0.1       2.5       0.1       0.0       0.3       0.1
17 H  s               0.1       0.0       0.0       0.3       0.4       0.5
18 H  s               3.0       1.2       0.1       0.0       0.5       0.1
19 H  s               0.1       0.7       0.7       1.0       0.6       0.2

                     30        31        32        33        34        35   
                  -0.32917  -0.31865  -0.31542  -0.30034  -0.26650  -0.24573
                   2.00000   2.00000   2.00000   2.00000   2.00000   2.00000
                  --------  --------  --------  --------  --------  --------
 0 C  s               0.2       0.0       0.0       0.5       0.0       0.1
 0 C  pz              0.1       0.7       0.1       0.7       0.6       0.1
 0 C  px              0.8       0.1       0.4       0.4       0.9       0.1
 0 C  py              0.0       1.1       0.7       2.2       2.7       0.7
 0 C  dxz             0.0       0.0       0.0       0.2       0.0       0.2
 0 C  dxy             0.1       0.0       0.0       0.3       0.1       0.1
 1 C  s               0.5       0.3       0.3       0.3       0.0       0.2
 1 C  pz              0.1       0.8       0.4       0.4       2.0       0.0
 1 C  px              2.8       0.1       0.1       0.0       4.0       0.3
 1 C  py              0.0       1.2       0.1       4.3       0.6       1.1
 1 C  dz2             0.0       0.0       0.0       0.0       0.0       0.2
 1 C  dxz             0.1       0.2       0.1       0.1       0.4       0.0
 1 C  dyz             0.0       0.0       0.1       0.2       0.0       0.1
 1 C  dx2y2           0.2       0.0       0.0       0.0       0.1       0.1
 1 C  dxy             0.0       0.0       0.0       0.0       0.2       0.0
 2 H  s               3.9       0.1       0.7       0.0       3.9       0.1
 3 C  s               0.2       0.7       0.2       0.1       0.4       0.8
 3 C  pz              1.1       0.0       5.4       0.5       0.1       1.7
 3 C  px              1.9       2.3       0.0       0.2       0.1       0.2
 3 C  py              0.2       0.1       0.1       1.6       0.6       0.0
 3 C  dz2             0.0       0.0       0.2       0.1       0.0       0.6
 3 C  dyz             0.0       0.2       0.0       0.0       0.0       0.0
 3 C  dx2y2           0.0       0.0       0.2       0.0       0.1       0.2
 3 C  dxy             0.0       0.1       0.2       0.2       0.0       0.0
 4 H  s               0.7       0.6       4.2       0.4       0.1       3.9
 5 C  s               0.0       0.3       0.4       0.2       0.0       0.4
 5 C  pz              0.7       2.0       4.1       0.1       1.1       0.0
 5 C  px              0.0       4.2       0.7       0.3       1.4       0.0
 5 C  py              1.4       0.2       0.3       0.3       1.3       0.8
 5 C  dz2             0.0       0.2       0.2       0.1       0.3       0.0
 5 C  dyz             0.0       0.0       0.1       0.0       0.1       0.0
 5 C  dx2y2           0.0       0.6       0.0       0.0       0.0       0.0
 5 C  dxy             0.1       0.0       0.0       0.1       0.0       0.0
 6 H  s               0.5       2.2       3.9       0.4       2.0       0.1
 7 C  s               0.3       0.7       0.2       0.3       0.0       0.1
 7 C  pz              2.6       0.1       2.4       0.8       0.0       0.1
 7 C  px              1.6       0.5       0.4       0.2       0.1       0.0
 7 C  py              1.3       1.4       0.1       0.9       2.1       0.4
 7 C  dz2             0.0       0.0       0.1       0.1       0.0       0.4
 7 C  dxz             0.2       0.1       0.0       0.0       0.2       0.0
 7 C  dyz             0.1       0.2       0.1       0.0       0.0       0.1
 7 C  dx2y2           0.0       0.0       0.0       0.2       0.2       0.0
 7 C  dxy             0.1       0.0       0.1       0.1       0.0       0.0
 8 H  s               2.8       0.1       1.5       0.4       0.0       0.1
 9 O  s               0.0       0.0       0.8       2.6       1.3       0.1
 9 O  pz              5.5       0.6       0.8       7.9       0.6      12.4
 9 O  px              0.6       0.3       0.5       5.4       2.4       0.4
 9 O  py              0.4       0.1       1.9      13.4      12.2       7.4
10 O  s               3.8       0.2       2.3       0.0       0.5       0.1
10 O  pz              6.8       0.0       5.6       1.2       0.8       1.3
10 O  px             10.8       4.0       0.5       3.1       3.9       0.1
10 O  py             14.5       7.2      12.2       2.4       0.0       0.5
11 O  s               0.1       5.2       0.2       0.0       0.3       0.1
11 O  pz              2.1      13.7       0.2       1.8      17.2       4.3
11 O  px              0.6      23.2       9.5       0.4       1.5       2.5
11 O  py              0.0       1.4       0.2       0.1       0.2       0.1
12 O  s               2.3       1.0       2.6       1.3       0.2       0.1
12 O  pz              4.9       1.7       6.4      11.1       0.0      20.1
12 O  px              5.2       1.8       7.1       0.9       0.2       3.0
12 O  py              7.8       0.1      13.9       0.9       0.4      11.2
13 O  s               1.4       1.6       0.2       1.8       2.8       0.0
13 O  pz              0.3       0.7       1.0      12.8       2.6       4.0
13 O  px              1.6       8.3       2.2       8.2      21.3       0.1
13 O  py              0.0       2.8       0.3       2.2       1.8      17.1
14 H  s               0.4       0.0       0.2       0.9       0.0       0.8
15 H  s               0.7       0.4       0.3       2.7       0.6       0.3
16 H  s               2.3       0.3       0.8       0.0       0.5       0.1
17 H  s               0.1       2.1       0.3       0.0       0.4       0.2
18 H  s               0.8       0.9       1.1       0.5       0.2       0.0
19 H  s               1.8       0.6       0.3       0.6       2.0       0.0

                     36        37        38        39        40        41   
                  -0.24317  -0.23225  -0.23193  -0.20186   0.01620   0.02793
                   2.00000   2.00000   2.00000   2.00000   0.00000   0.00000
                  --------  --------  --------  --------  --------  --------
 0 C  s               0.1       0.1       0.1       0.4       0.1       0.0
 0 C  pz              0.2       3.7       0.0       2.6       0.3       0.4
 0 C  px              0.0       0.5       0.4       1.2       0.1       0.1
 0 C  py              1.7       0.3       0.3       1.3       0.0       0.1
 0 C  dz2             0.1       0.3       0.0       0.0       0.0       0.0
 0 C  dxz             0.1       0.4       0.0       0.1       0.0       0.0
 0 C  dyz             0.1       0.3       0.0       0.0       0.0       0.0
 1 C  s               0.3       0.7       0.0       0.1       0.4       0.9
 1 C  pz              0.0       1.0       0.1       0.8       0.0       0.0
 1 C  px              0.1       2.7       0.2       0.2       2.0       0.6
 1 C  py              0.6       0.1       0.0       5.8       0.2       0.3
 1 C  dz2             0.1       0.0       0.0       0.6       0.0       0.0
 1 C  dyz             0.0       0.2       0.0       0.5       0.1       0.0
 1 C  dx2y2           0.0       0.1       0.1       0.1       0.0       0.0
 1 C  dxy             0.0       0.0       0.0       0.2       0.1       0.1
 2 H  s               0.6       1.5       0.4       0.1       3.4       2.6
 3 C  s               0.4       0.1       0.1       0.5       0.7       0.0
 3 C  pz              0.9       0.0       2.2       0.2       2.1       0.6
 3 C  px              0.7       2.5       3.7       2.8       0.1       0.6
 3 C  py              0.6       0.4       0.1       3.8       0.9       1.1
 3 C  dz2             0.4       0.0       0.1       0.2       0.0       0.1
 3 C  dxz             0.1       0.0       0.1       0.1       0.0       0.4
 3 C  dyz             0.0       0.0       0.0       0.0       0.0       0.2
 3 C  dx2y2           0.0       0.2       0.0       0.1       0.0       0.0
 3 C  dxy             0.0       0.1       0.0       0.1       0.2       0.1
 4 H  s               3.1       0.2       1.7       1.1       3.5       0.4
 5 C  s               0.3       0.2       0.3       0.1       0.4       0.1
 5 C  pz              1.6       1.7       0.0       0.3       0.7       1.5
 5 C  px              0.6       0.3       4.7       0.1       0.4       0.8
 5 C  py              0.4       0.5       5.6       0.1       0.7       0.6
 5 C  dz2             0.5       0.3       0.1       0.0       0.0       0.4
 5 C  dxz             0.0       0.1       0.0       0.0       0.1       0.2
 5 C  dyz             0.0       0.1       0.0       0.0       0.2       0.3
 5 C  dx2y2           0.0       0.1       0.4       0.0       0.0       0.0
 5 C  dxy             0.1       0.0       0.0       0.0       0.2       0.0
 6 H  s               3.5       2.0       0.2       0.3       1.4       3.3
 7 C  s               0.0       0.2       0.0       0.0       0.0       0.5
 7 C  pz              0.0       0.6       0.0       0.0       0.5       2.2
 7 C  px              1.6       0.0       2.2       0.1       0.1       0.6
 7 C  py              0.1       0.2       3.1       0.4       0.4       0.2
 7 C  dz2             0.1       1.1       0.0       0.0       0.1       0.3
 7 C  dxz             0.5       0.0       0.4       0.1       0.0       0.0
 7 C  dyz             0.0       0.1       0.4       0.0       0.1       0.0
 7 C  dx2y2           0.0       0.0       0.7       0.0       0.0       0.0
 7 C  dxy             0.0       0.0       0.0       0.0       0.1       0.0
 8 H  s               2.5       0.7       6.0       0.5       0.1       2.8
 9 O  s               0.0       0.0       0.5       0.3       0.0       0.0
 9 O  pz              7.0      27.1       0.1       2.8       0.1       0.3
 9 O  px              0.9       3.5       0.6       0.5       0.3       0.0
 9 O  py              2.4       3.1       3.8       0.1       0.1       0.6
[...]
12 O  dxz             0.5       0.1       0.7       0.0       0.1       0.4
12 O  dyz             0.1       0.0       0.2       0.1       0.0       0.7
12 O  dx2y2           0.0       3.6      23.9       0.9       0.0       0.3
12 O  dxy             0.4       1.5       5.0       2.0       0.4       0.3
13 O  s               0.0       2.2       0.2       0.0       0.0       0.1
13 O  px              0.0       1.1       0.1       0.0       0.0       0.0
13 O  py              0.0       0.1       0.4       0.0       0.0       0.0
13 O  dz2             0.0       0.2      10.2       0.1       0.8       0.1
13 O  dxz             0.2      13.3       0.2       1.6       0.0       0.1
13 O  dyz             0.1       8.7      23.7       0.0       0.3       0.0
13 O  dx2y2           0.1      25.5       0.6       1.2       0.4       0.0
13 O  dxy             0.1      15.9       0.0       0.7       0.1       0.0
16 H  s               0.2       0.9       0.0       0.4       0.2       0.3
17 H  s               4.3       0.0       0.1       0.0       0.0       0.1
18 H  s               0.0       0.2       2.2       0.2       0.0       0.0
19 H  s               0.0       5.9       0.3       0.2       0.0       0.0

                    156       157       158       159   
                   3.29543   3.32327   3.34223   3.39431
                   0.00000   0.00000   0.00000   0.00000
                  --------  --------  --------  --------
 0 C  s               0.1       0.1       0.0       0.7
 0 C  px              0.2       0.1       0.0       1.3
 0 C  dz2             0.3       0.0       0.1       0.3
 0 C  dxz             0.0       0.0       0.0       0.7
 0 C  dyz             0.0       0.1       0.0       0.1
 0 C  dx2y2           0.2       0.2       0.0       2.2
 0 C  dxy             0.3       0.1       0.1       0.0
 1 C  s               0.5       1.7       0.4       0.0
 1 C  pz              0.6       2.1       0.7       0.1
 1 C  py              0.1       0.3       0.2       0.0
 1 C  dz2             1.2       3.1       2.3       0.0
 1 C  dxz             0.1       0.1       0.0       0.1
 1 C  dyz             1.0       3.7       0.3       0.1
 1 C  dx2y2           0.4       0.1       0.0       0.0
 3 C  s               1.2       0.0       1.0       0.0
 3 C  pz              0.6       0.0       0.7       0.0
 3 C  px              0.5       0.0       0.3       0.0
 3 C  py              0.9       0.0       0.9       0.0
 3 C  dxz             1.0       0.3       1.0       0.0
 3 C  dyz             3.5       0.2       3.0       0.1
 3 C  dx2y2           1.4       0.0       0.2       0.0
 3 C  dxy             1.5       0.1       1.3       0.0
 5 C  s               0.1       0.4       0.8       0.1
 5 C  pz              0.0       0.1       0.2       0.2
 5 C  px              0.3       0.3       0.2       0.2
 5 C  py              0.1       0.5       0.8       0.2
 5 C  dz2             0.0       0.0       0.4       0.0
 5 C  dxz             0.1       0.4       0.2       0.6
 5 C  dyz             0.3       1.2       1.8       0.1
 5 C  dx2y2           0.2       0.0       0.0       0.3
 5 C  dxy             1.5       2.6       1.4       0.2
 7 C  s               0.1       0.0       0.0       0.6
 7 C  pz              0.3       0.3       0.4       1.8
 7 C  px              0.0       0.1       0.0       0.7
 7 C  py              0.0       0.0       0.0       1.3
 7 C  dz2             1.4       1.5       1.9       2.3
 7 C  dxz             0.1       0.0       0.0       1.3
 7 C  dyz             0.1       0.0       0.3       2.4
 7 C  dx2y2           0.5       0.7       0.4       0.0
 7 C  dxy             0.0       0.0       0.0       4.1
 9 O  s               0.3       0.2       0.0       0.4
 9 O  pz              0.0       0.0       0.0       1.0
 9 O  px              0.1       0.0       0.1       3.6
 9 O  py              0.0       0.0       0.0       0.7
 9 O  dz2             0.3       0.0       0.0       0.2
 9 O  dxz             2.2       0.9       1.2       2.3
 9 O  dyz             0.1       0.3       0.5      13.4
 9 O  dx2y2           3.6       2.5       0.5      12.8
 9 O  dxy             0.0       0.1       0.8      26.4
10 O  s               0.1       0.3       0.4       0.5
10 O  pz              0.3       0.3       0.5       0.9
10 O  dz2             5.0       4.7       5.3       8.3
10 O  dxz             0.2       0.0       0.0       0.0
10 O  dyz             0.3       0.4       0.1       0.3
10 O  dx2y2           0.0       0.1       0.1       0.0
10 O  dxy             0.0       0.0       0.0       0.3
11 O  s               0.2       1.1       1.6       0.7
11 O  pz              0.0       0.1       0.1       0.0
11 O  px              0.1       0.3       0.4       0.0
11 O  py              0.4       0.8       1.0       0.3
11 O  dz2             0.0       0.6       0.9       0.5
11 O  dxz             1.0       3.1       3.7       0.3
11 O  dyz             1.3       3.6       3.6       0.8
11 O  dx2y2           0.1       0.3       0.5       0.5
11 O  dxy             4.1       9.2       8.7       1.9
12 O  s               2.3       0.0       2.9       0.0
12 O  pz              0.4       0.0       0.3       0.0
12 O  px              1.2       0.0       0.8       0.0
12 O  py              1.1       0.1       1.0       0.0
12 O  dz2             0.2       0.0       0.1       0.0
12 O  dxz             8.0       0.0       4.3       0.1
12 O  dyz            16.5       0.1      12.9       0.2
12 O  dx2y2           4.0       1.1       3.1       0.0
12 O  dxy             8.1       0.0       5.9       0.0
13 O  s               0.3       2.7       1.2       0.0
13 O  pz              0.8       2.3       0.7       0.0
13 O  px              0.2       0.1       0.0       0.0
13 O  py              0.1       0.4       0.3       0.0
13 O  dz2            10.0      26.6       4.6       0.1
13 O  dxz             0.1       1.6       0.7       0.0
13 O  dyz             3.3      12.1       7.8       0.2
13 O  dx2y2           1.1       1.3       0.4       0.0
13 O  dxy             0.1       0.3       0.3       0.1
16 H  s               0.1       0.1       0.0       0.2
17 H  s               0.1       0.2       0.3       0.0
18 H  s               0.5       0.0       0.2       0.0
19 H  s               0.3       0.6       0.1       0.0


                      *****************************
                      * MAYER POPULATION ANALYSIS *
                      *****************************

  NA   - Mulliken gross atomic population
  ZA   - Total nuclear charge
  QA   - Mulliken gross atomic charge
  VA   - Mayer's total valence
  BVA  - Mayer's bonded valence
  FA   - Mayer's free valence

  ATOM       NA         ZA         QA         VA         BVA        FA
  0 C      5.9459     6.0000     0.0541     4.0194     4.0194    -0.0000
  1 C      5.9917     6.0000     0.0083     4.1403     4.1403     0.0000
  2 H      0.9424     1.0000     0.0576     0.9757     0.9757     0.0000
  3 C      5.9435     6.0000     0.0565     4.0012     4.0012     0.0000
  4 H      0.9456     1.0000     0.0544     1.0057     1.0057     0.0000
  5 C      5.9982     6.0000     0.0018     4.1336     4.1336     0.0000
  6 H      0.9228     1.0000     0.0772     0.9711     0.9711     0.0000
  7 C      5.8051     6.0000     0.1949     4.1388     4.1388     0.0000
  8 H      0.9230     1.0000     0.0770     0.9655     0.9655    -0.0000
  9 O      8.2972     8.0000    -0.2972     2.2228     2.2228     0.0000
 10 O      8.4234     8.0000    -0.4234     2.0242     2.0242     0.0000
 11 O      8.4192     8.0000    -0.4192     2.0234     2.0234     0.0000
 12 O      8.4244     8.0000    -0.4244     2.0007     2.0007     0.0000
 13 O      8.4334     8.0000    -0.4334     2.0144     2.0144     0.0000
 14 H      0.9201     1.0000     0.0799     0.9523     0.9523    -0.0000
 15 H      0.8991     1.0000     0.1009     0.9622     0.9622     0.0000
 16 H      0.6870     1.0000     0.3130     0.9026     0.9026     0.0000
 17 H      0.6862     1.0000     0.3138     0.8811     0.8811     0.0000
 18 H      0.6967     1.0000     0.3033     0.8841     0.8841    -0.0000
 19 H      0.6953     1.0000     0.3047     0.9376     0.9376     0.0000

  Mayer bond orders larger than 0.100000
B(  0-C ,  1-C ) :   1.1085 B(  0-C ,  9-O ) :   0.9963 B(  0-C , 14-H ) :   0.9062 
B(  0-C , 15-H ) :   0.9102 B(  1-C ,  2-H ) :   0.8868 B(  1-C ,  3-C ) :   0.9742 
B(  1-C , 13-O ) :   1.0663 B(  3-C ,  4-H ) :   0.8680 B(  3-C ,  5-C ) :   1.0306 
B(  3-C , 12-O ) :   1.0640 B(  5-C ,  6-H ) :   0.8616 B(  5-C ,  7-C ) :   1.0439 
B(  5-C , 11-O ) :   1.0803 B(  7-C ,  8-H ) :   0.9019 B(  7-C ,  9-O ) :   1.1262 
B(  7-C , 10-O ) :   0.9991 B( 10-O , 16-H ) :   0.8209 B( 10-O , 19-H ) :   0.1042 
B( 11-O , 17-H ) :   0.8437 B( 12-O , 18-H ) :   0.8469 B( 13-O , 19-H ) :   0.8054 


-------
TIMINGS
-------

Total SCF time: 0 days 0 hours 0 min 2 sec 

Total time                  ....       2.053 sec
Sum of individual times     ....       2.037 sec  ( 99.3%)

SCF preparation             ....       0.039 sec  (  1.9%)
Fock matrix formation       ....       1.881 sec  ( 91.6%)
  Startup                   ....       0.002 sec  (  0.1% of F)
  Split-RI-J                ....       0.947 sec  ( 50.4% of F)
  XC integration            ....       0.925 sec  ( 49.2% of F)
    XC Preparation          ....       0.000 sec  (  0.0% of XC)
    Basis function eval.    ....       0.367 sec  ( 39.7% of XC)
    Density eval.           ....       0.236 sec  ( 25.5% of XC)
    XC-Functional eval.     ....       0.058 sec  (  6.3% of XC)
    XC-Potential eval.      ....       0.234 sec  ( 25.3% of XC)
Diagonalization             ....       0.000 sec  (  0.0%)
Density matrix formation    ....       0.003 sec  (  0.2%)
Total Energy calculation    ....       0.000 sec  (  0.0%)
Population analysis         ....       0.094 sec  (  4.6%)
Orbital Transformation      ....       0.005 sec  (  0.2%)
Orbital Orthonormalization  ....       0.000 sec  (  0.0%)
DIIS solution               ....       0.005 sec  (  0.3%)
  MO trafo                  ....       0.000 sec  (  0.0 % of DIIS)
  Orb grad                  ....       0.000 sec  (  0.0 % of DIIS)
  Energy W gradient         ....       0.000 sec  (  0.0 % of DIIS)
  DIIS error                ....       0.001 sec  ( 11.5 % of DIIS)
  DIIS work                 ....       0.005 sec  ( 87.4 % of DIIS)
  Form Q                    ....       0.000 sec  (  0.0 % of DIIS)
  Form QpQm                 ....       0.000 sec  (  0.0 % of DIIS)
  Exp/Cayley                ....       0.000 sec  (  0.0 % of DIIS)
  Orb update                ....       0.000 sec  (  0.0 % of DIIS)
  Wake-sleep                ....       0.000 sec  (  1.1 % of DIIS)
SOSCF solution              ....       0.010 sec  (  0.5%)
  MO trafo                  ....       0.006 sec  ( 62.6 % of SOSCF)
  Orb grad                  ....       0.000 sec  (  1.4 % of SOSCF)
  Rot update                ....       0.000 sec  (  2.4 % of SOSCF)
  Step                      ....       0.003 sec  ( 32.1 % of SOSCF)
Finished LeanSCF after   2.1 sec

Maximum memory used throughout the entire LEANSCF-calculation: 15.5 MB


-------------------------------------------------------------------------------
                          DFT DISPERSION CORRECTION                            
                                                                               
                                DFTD4 V3.4.0                                   
-------------------------------------------------------------------------------
The PBE functional is recognized
Active option DFTDOPT                   ...         5   

-------------------------   ----------------
Dispersion correction           -0.019918502
-------------------------   ----------------

------------------   -----------------
gCP correction             0.130307773
------------------   -----------------

-------------------------   --------------------
FINAL SINGLE POINT ENERGY      -571.412399188022
-------------------------   --------------------


------------------------------------------------------------------------------
                              ORCA PROPERTY CALCULATIONS
------------------------------------------------------------------------------

GBWName                                 ... sp.gbw
Number of atoms                         ...     20
Number of basis functions               ...    160
Max core memory                         ...   1024 MB

Electric properties:
Dipole moment                           ... YES
Quadrupole moment                       ...  NO
Static polarizability (Dipole/Dipole)   ...  NO
Static polarizability (Dipole/Quad.)    ...  NO
Static polarizability (Quad./Quad.)     ...  NO
Static polarizability (Velocity)        ...  NO

Atomic electric properties:
Dipole moment                           ...  NO
Quadrupole moment                       ...  NO
Static polarizability                   ...  NO

Choice of electric origin               ... Center of mass
Position of electric origin             ...     0.000006    -0.000000    -0.000008

General magnetic properties:
Magnetizability                         ...  NO

EPR properties:
g-Tensor (aka g-matrix)                 ...  NO
Zero-Field splitting spin-orbit         ...  NO
Zero-field splitting spin-spin          ...  NO
Hyperfine couplings                     ...  NO (   0 nuclei)
Quadrupole couplings                    ...  NO (   0 nuclei)
Contact density                         ...  NO (   0 nuclei)

NMR properties:
Chemical shifts                         ...  NO (   0 nuclei)
Spin-rotation constants                 ...  NO (   0 nuclei)
Spin-spin couplings                     ...  NO (   0 nuclei,    0 pairs)

Choice of magnetic origin               ... GIAO
Position of magnetic origin             ...     0.000000     0.000000     0.000000

Properties with geometric perturbations:
SCF Hessian                             ...  NO
IR spectrum                             ...  NO
VCD spectrum                            ...  NO
X-ray spectroscopy properties:
SCF XES/XAS/RIXS spectra                ...  NO


-------------
DIPOLE MOMENT
-------------

Method             : SCF
Type of density    : Electron Density
Multiplicity       :   1
Irrep              :   0
Energy             :  -571.5227884587981180 Eh
Relativity type    : 
Basis              : AO
                                X                 Y                 Z
Electronic contribution:     -1.577294167       0.491126781       1.142450785
Nuclear contribution   :      1.702136474      -1.525730086      -1.416036910
                        -----------------------------------------
Total Dipole Moment    :      0.124842307      -1.034603305      -0.273586125
                        -----------------------------------------
Magnitude (a.u.)       :      1.077422372
Magnitude (Debye)      :      2.738590030



--------------------
Rotational spectrum 
--------------------
 
Rotational constants in cm-1:             0.052549             0.048945             0.035529 
Rotational constants in MHz :          1575.390025          1467.333961          1065.141621 

Dipole components along the rotational axes: 
x,y,z [a.u.] :    -0.936002    -0.528948    -0.070376 
x,y,z [Debye]:    -2.379129    -1.344479    -0.178880 

 

Dipole moment calculation done in   0.0 sec 

Maximum memory used throughout the entire PROP-calculation: 10.2 MB

--------------------------------
SUGGESTED CITATIONS FOR THIS RUN
--------------------------------

Below you find a list of papers that are relevant to this ORCA run
We neither can nor want to force you to cite these papers, but we appreciate if you do
You receive ORCA, which is the product of decades of hard work by many enthusiastic individuals, for free
The only thing we kindly ask in return is that you cite our papers,
We deeply appreciate it, if you show your appreciation for ORCA by not just citing the generic ORCA reference.

Please note that relegating all ORCA citations to the supporting information does *not* help us.
SI sections are not indexed - citations you put there will not count into any citation statistics
But we need these citations in order to attract the funding resources that allow us to do what we are doing

Therefore, if you are a happy ORCA user, please consider citing a few of the papers listed below in the main body of your paper

In addition to the list printed below, the program has created the file sp.bibtex that contains the list in bibtex format
You can import this file easily into all common literature databanks and citation aid programs


List of essential papers. We consider these as the minimum necessary citations

  1. Neese,F.
     Software update: the ORCA program system, version 5.0
     WIRES Comput. Molec. Sci., 2022 12(1)e1606
     doi.org/10.1002/wcms.1606

List of papers to cite with high priority. The work reported in these papers was absolutely
necessary for this run to complete.
Our perspective: the developers of density functionals and basis sets usually get cited in chemistry papers
Good! But without the algorithms to do something with them, the functionals or basis sets would not do anything.
Hence, in our opinion, the algorithm design and method developments papers are equally worthy of getting cited

  1. Neese,F.
     An improvement of the resolution of the identity approximation for the formation of the Coulomb matrix
     J. Comp. Chem., 2003 24(14)1740-1747
     doi.org/10.1002/jcc.10318
  2. Neese,F.
     The SHARK Integral Generation and Digestion System
     J. Comp. Chem., 2022  1-16
     doi.org/10.1002/jcc.26942
  3. Caldeweyher,E.; Bannwarth,C.; Grimme,S.
     Extension of the D3 dispersion coefficient model
     J. Chem. Phys., 2017 147 034112
     doi.org/10.1063/1.4993215
  4. Caldeweyher,E.; Ehlert,S.; Hansen,A.; Neugebauer,H.; Spicher,S.; Bannwarth,C.; Grimme,S.
     A generally applicable atomic-charge dependent London dispersion correction
     J. Chem. Phys., 2019 150 154122
     doi.org/10.1063/1.5090222
  5. Caldeweyher,E.; Mewes,J.; Ehlert,S.; Grimme,S.
     Extension and evaluation of the D4 London-dispersion model for periodic systems
     Phys. Chem. Chem. Phys., 2020 22(16)8499-8512
     doi.org/10.1039/D0CP00502A
  6. Wittmann,L.; Gordiy,I.; Friede,M.; Helmich-Paris,B.; Grimme,S.; Hansen,A.; Bursch,M.
     Extension of the D3 and D4 London Dispersion Corrections to the full Actinides Series
     Phys. Chem. Chem. Phys., 2024 26(32)21379-21394
     doi.org/https://doi.org/10.1039/D4CP01514B 

List of suggested additional citations. These are papers that are important in the 'surrounding' of 
of this run, or papers that preceded the highly important papers. If you like your results we are grateful for a citation.

  1. Neese,F.
     The ORCA program system
     WIRES Comput. Molec. Sci., 2012 2(1)73-78
     doi.org/10.1002/wcms.81
  2. Neese,F.
     Software update: the ORCA program system, version 4.0
     WIRES Comput. Molec. Sci., 2018 8(1)1-6
     doi.org/10.1002/wcms.1327
  3. Neese,F.; Wennmohs,F.; Becker,U.; Riplinger,C.
     The ORCA quantum chemistry program package
     J. Chem. Phys., 2020 152 Art. No. L224108
     doi.org/10.1063/5.0004608

List of optional additional citations

  1. Neese,F.
     Approximate second-order SCF convergence for spin unrestricted wavefunctions
     Chem. Phys. Lett., 2000 325(1-3)93-98
     doi.org/10.1016/s0009-2614(00)00662-x

Timings for individual modules:

Sum of individual times          ...        2.677 sec (=   0.045 min)
Startup calculation              ...        0.471 sec (=   0.008 min)  17.6 %
SCF iterations                   ...        2.149 sec (=   0.036 min)  80.3 %
Property calculations            ...        0.057 sec (=   0.001 min)   2.1 %
                             ****ORCA TERMINATED NORMALLY****
TOTAL RUN TIME: 0 days 0 hours 0 minutes 2 seconds 818 msec
