 Entering Gaussian System
 *********************************************
 Gaussian 98:
 frequency output generated by the xtb code
 *********************************************
                         Standard orientation:
 --------------------------------------------------------------------
  Center     Atomic     Atomic              Coordinates (Angstroms)
  Number     Number      Type              X           Y           Z
 --------------------------------------------------------------------
    1          6             0       -1.968909   -0.221687   -0.496207
    2          6             0       -1.171408   -0.112411    0.797459
    3          6             0        0.114701    0.686009    0.639134
    4         16             0        1.382296   -0.162542   -0.370406
    5          1             0       -1.420039   -0.791225   -1.243224
    6          1             0       -2.912327   -0.729606   -0.312789
    7          1             0       -2.183619    0.766536   -0.899033
    8          1             0       -0.928371   -1.111655    1.164241
    9          1             0       -1.780691    0.385273    1.556588
   10          1             0       -0.072146    1.660295    0.187551
   11          1             0        0.596782    0.829696    1.605960
   12          1             0        0.745074   -0.052809   -1.533071
 --------------------------------------------------------------------
     1 basis functions        1 primitive gaussians
     1 alpha electrons        1 beta electrons

 Harmonic frequencies (cm**-1), IR intensities (km*mol⁻¹),
 Raman scattering activities (A**4/amu), Raman depolarization ratios,
 reduced masses (AMU), force constants (mDyne/A) and normal coordinates:
                      1                      2                      3
                        a                      a                      a 
 Frequencies --    91.5207               194.3724               244.8280
 Red. masses --     1.9131                 1.1160                 1.4668
 Frc consts  --     0.0000                 0.0000                 0.0000
 IR Inten    --     5.6588                22.6529                13.7987
 Raman Activ --     0.0000                 0.0000                 0.0000
 Depolar     --     0.0000                 0.0000                 0.0000
 Atom AN      X      Y      Z        X      Y      Z        X      Y      Z
   1   6     0.39  -0.20  -0.13    -0.07   0.02  -0.02    -0.37  -0.06   0.11
   2   6    -0.07   0.20   0.12    -0.05  -0.07  -0.02    -0.16   0.04  -0.02
   3   6     0.09  -0.04   0.28     0.00  -0.13   0.06    -0.03  -0.14  -0.10
   4  16    -0.33  -0.01  -0.20     0.15   0.21  -0.04     0.35   0.02   0.01
   5   1     0.14  -0.24   0.12    -0.22  -0.34   0.11    -0.22  -0.21   0.10
   6   1     0.04   0.07  -0.07    -0.21   0.39   0.07    -0.19   0.18   0.13
   7   1     0.26  -0.10  -0.22     0.34   0.00  -0.21     0.05  -0.03  -0.09
   8   1    -0.10   0.09   0.17    -0.06  -0.03   0.01    -0.09   0.01   0.03
   9   1    -0.07   0.17  -0.08     0.00   0.01  -0.01     0.01   0.08  -0.01
  10   1     0.08   0.04   0.17    -0.01  -0.02   0.06     0.02  -0.04  -0.03
  11   1     0.05  -0.13   0.09     0.00  -0.07   0.02    -0.04  -0.05  -0.02
  12   1     0.01   0.34  -0.04    -0.28  -0.51   0.11     0.38   0.53  -0.13
                      4                      5                      6
                        a                      a                      a 
 Frequencies --   290.5297               405.2324               674.4268
 Red. masses --     1.7049                 2.2638                 4.1635
 Frc consts  --     0.0000                 0.0000                 0.0000
 IR Inten    --     7.7348                 1.5497                 1.2239
 Raman Activ --     0.0000                 0.0000                 0.0000
 Depolar     --     0.0000                 0.0000                 0.0000
 Atom AN      X      Y      Z        X      Y      Z        X      Y      Z
   1   6    -0.20  -0.12  -0.02     0.27   0.19   0.08    -0.06  -0.02  -0.05
   2   6    -0.28   0.29   0.01    -0.29  -0.11   0.40    -0.18   0.02   0.09
   3   6     0.10  -0.25   0.15    -0.30  -0.22  -0.21    -0.28   0.45   0.43
   4  16     0.31   0.11  -0.14     0.18   0.04  -0.13     0.37  -0.27  -0.30
   5   1     0.08   0.14  -0.04     0.22   0.13   0.07     0.03  -0.03   0.04
   6   1     0.08  -0.29  -0.02     0.04   0.05  -0.21    -0.02  -0.01  -0.05
   7   1    -0.32  -0.07   0.04     0.17   0.10   0.08    -0.01  -0.03  -0.07
   8   1    -0.23   0.10   0.16    -0.16  -0.02   0.18     0.10  -0.01  -0.13
   9   1    -0.07   0.26  -0.10    -0.06   0.08   0.06    -0.14  -0.22   0.10
  10   1     0.13   0.00   0.16    -0.19  -0.15  -0.20    -0.05   0.08   0.02
  11   1     0.03  -0.23   0.07    -0.03   0.14  -0.12    -0.09   0.16   0.11
  12   1    -0.11  -0.23   0.04     0.11  -0.07  -0.07    -0.11   0.04   0.06
                      7                      8                      9
                        a                      a                      a 
 Frequencies --   737.1683               839.1576               912.8039
 Red. masses --     1.0985                 1.2111                 1.3559
 Frc consts  --     0.0000                 0.0000                 0.0000
 IR Inten    --    10.0816                 6.1559                 7.4827
 Raman Activ --     0.0000                 0.0000                 0.0000
 Depolar     --     0.0000                 0.0000                 0.0000
 Atom AN      X      Y      Z        X      Y      Z        X      Y      Z
   1   6     0.03   0.00   0.09     0.07  -0.10  -0.02    -0.08   0.07  -0.21
   2   6    -0.08   0.09   0.05     0.15  -0.19  -0.07     0.05   0.01   0.10
   3   6    -0.17   0.12  -0.14    -0.16   0.22   0.15     0.21  -0.07   0.37
   4  16    -0.04   0.00   0.00     0.01  -0.06  -0.07    -0.13   0.07  -0.05
   5   1     0.12  -0.03   0.13    -0.26   0.10  -0.30    -0.06  -0.07  -0.02
   6   1     0.01  -0.02  -0.05    -0.05   0.13   0.09     0.05  -0.05   0.13
   7   1     0.04  -0.03  -0.07     0.09   0.13   0.34    -0.17  -0.08  -0.20
   8   1     0.15   0.00  -0.16    -0.05   0.08   0.39    -0.16  -0.08  -0.08
   9   1     0.01  -0.16   0.16    -0.13   0.23  -0.33    -0.02  -0.03   0.03
  10   1     0.09   0.22   0.32    -0.11   0.09   0.13    -0.16  -0.20  -0.20
  11   1     0.10  -0.40  -0.04     0.00  -0.04   0.03     0.21   0.36  -0.04
  12   1     0.48  -0.33  -0.31     0.23  -0.14  -0.15     0.40  -0.25  -0.27
                     10                     11                     12
                        a                      a                      a 
 Frequencies --   933.3844              1062.7510              1080.3968
 Red. masses --     2.1268                 1.2605                 1.4644
 Frc consts  --     0.0000                 0.0000                 0.0000
 IR Inten    --     5.3654                 1.0094                 2.5055
 Raman Activ --     0.0000                 0.0000                 0.0000
 Depolar     --     0.0000                 0.0000                 0.0000
 Atom AN      X      Y      Z        X      Y      Z        X      Y      Z
   1   6     0.34   0.18   0.20     0.18  -0.14   0.07    -0.17  -0.07   0.28
   2   6     0.15   0.18  -0.29    -0.26   0.21  -0.03     0.15   0.04  -0.37
   3   6    -0.44  -0.22   0.07     0.07  -0.18   0.05    -0.03  -0.07   0.24
   4  16     0.04  -0.03  -0.04    -0.05   0.08  -0.02    -0.06   0.02  -0.06
   5   1    -0.07  -0.09   0.05    -0.15   0.04  -0.18     0.27   0.08   0.22
   6   1     0.21  -0.04   0.47    -0.01   0.10   0.11    -0.11  -0.02  -0.35
   7   1    -0.16  -0.07  -0.10     0.08   0.07   0.25     0.21   0.04   0.07
   8   1    -0.07  -0.00  -0.14     0.27   0.10  -0.09     0.03   0.05   0.00
   9   1     0.02   0.03  -0.08    -0.33  -0.28  -0.01     0.23   0.16  -0.04
  10   1    -0.15  -0.08   0.00     0.46  -0.11  -0.31     0.09  -0.10  -0.17
  11   1    -0.20  -0.05   0.05    -0.08   0.07   0.04    -0.34   0.13   0.20
  12   1     0.00  -0.00  -0.00     0.08  -0.06  -0.06     0.15  -0.12  -0.11
                     13                     14                     15
                        a                      a                      a 
 Frequencies --  1114.2862              1201.9169              1245.1846
 Red. masses --     2.6362                 1.3603                 1.2256
 Frc consts  --     0.0000                 0.0000                 0.0000
 IR Inten    --     0.6439                 3.5488                 1.0450
 Raman Activ --     0.0000                 0.0000                 0.0000
 Depolar     --     0.0000                 0.0000                 0.0000
 Atom AN      X      Y      Z        X      Y      Z        X      Y      Z
   1   6    -0.17  -0.06  -0.35    -0.00   0.24  -0.15     0.16  -0.21  -0.12
   2   6     0.39   0.29   0.30     0.02  -0.36   0.22    -0.14   0.14   0.15
   3   6    -0.34  -0.27   0.06     0.01   0.15  -0.08     0.19   0.05  -0.09
   4  16     0.02   0.00  -0.01    -0.03   0.03  -0.03    -0.01  -0.02  -0.03
   5   1    -0.09   0.02  -0.15    -0.02  -0.10   0.07    -0.17   0.03  -0.24
   6   1    -0.06   0.02  -0.11     0.10  -0.08   0.14    -0.02   0.09   0.07
   7   1    -0.02   0.01  -0.04    -0.19  -0.07  -0.24     0.03   0.04   0.20
   8   1     0.39   0.16   0.14    -0.02  -0.03   0.24    -0.25  -0.12  -0.24
   9   1     0.18   0.02   0.17     0.07   0.09  -0.01     0.34   0.07   0.32
  10   1    -0.01  -0.08  -0.03     0.50   0.06  -0.15    -0.16   0.05   0.12
  11   1    -0.06  -0.06   0.00    -0.41  -0.07   0.20    -0.45   0.05   0.22
  12   1    -0.01   0.01   0.01     0.06  -0.05  -0.05     0.06  -0.04  -0.04
                     16                     17                     18
                        a                      a                      a 
 Frequencies --  1276.6371              1341.7068              1415.1081
 Red. masses --     1.1942                 1.4478                 1.2300
 Frc consts  --     0.0000                 0.0000                 0.0000
 IR Inten    --    18.6705                 1.6447                 5.5915
 Raman Activ --     0.0000                 0.0000                 0.0000
 Depolar     --     0.0000                 0.0000                 0.0000
 Atom AN      X      Y      Z        X      Y      Z        X      Y      Z
   1   6    -0.06   0.12   0.03    -0.09  -0.08   0.08    -0.24  -0.04  -0.35
   2   6    -0.00   0.05   0.06     0.46   0.17   0.23     0.09   0.04   0.03
   3   6     0.34  -0.12  -0.14    -0.09   0.01  -0.09    -0.01  -0.03  -0.04
   4  16    -0.01  -0.02  -0.02    -0.00   0.01  -0.00     0.00  -0.00  -0.00
   5   1     0.04  -0.02   0.08    -0.02   0.07  -0.06     0.39  -0.05   0.31
   6   1     0.01  -0.03  -0.02    -0.08   0.01  -0.20     0.10  -0.06   0.48
   7   1    -0.05  -0.03  -0.12     0.04  -0.04  -0.07     0.27   0.23   0.38
   8   1     0.31   0.13   0.14    -0.48  -0.21  -0.23    -0.11  -0.02   0.01
   9   1    -0.38  -0.18  -0.17    -0.40  -0.17  -0.21    -0.07  -0.09  -0.00
  10   1    -0.44   0.00   0.23     0.13   0.02  -0.04     0.04   0.04   0.07
  11   1    -0.41   0.08   0.20    -0.13  -0.09   0.04    -0.04   0.08  -0.00
  12   1     0.04  -0.03  -0.03    -0.00   0.00  -0.00    -0.01  -0.00  -0.00
                     19                     20                     21
                        a                      a                      a 
 Frequencies --  1443.5163              1477.3184              1500.5368
 Red. masses --     1.0906                 1.0902                 1.0589
 Frc consts  --     0.0000                 0.0000                 0.0000
 IR Inten    --     0.9266                 1.4850                 2.2412
 Raman Activ --     0.0000                 0.0000                 0.0000
 Depolar     --     0.0000                 0.0000                 0.0000
 Atom AN      X      Y      Z        X      Y      Z        X      Y      Z
   1   6    -0.01  -0.01  -0.06     0.01   0.00   0.04    -0.18  -0.03   0.11
   2   6    -0.01   0.03  -0.01     0.06   0.09  -0.26    -0.07  -0.03   0.04
   3   6     0.12   0.24   0.08    -0.00  -0.02  -0.02     0.02   0.02   0.00
   4  16    -0.01   0.01   0.01    -0.00   0.00   0.00    -0.00   0.00   0.00
   5   1     0.06  -0.02   0.05    -0.04   0.06  -0.07    -0.02   0.41  -0.31
   6   1    -0.01   0.03   0.06     0.01  -0.01  -0.02     0.18  -0.26   0.26
   7   1    -0.02   0.03   0.07     0.03  -0.03  -0.09     0.57  -0.04  -0.41
   8   1    -0.03   0.02   0.07    -0.34   0.14   0.57     0.06  -0.01  -0.04
   9   1    -0.01  -0.08   0.06     0.05  -0.54   0.38     0.02   0.06  -0.01
  10   1    -0.31  -0.29  -0.51     0.03   0.03   0.06    -0.02  -0.02  -0.04
  11   1    -0.01  -0.66   0.11     0.01   0.07  -0.02    -0.00  -0.05   0.01
  12   1    -0.01   0.01   0.01     0.00   0.00   0.00    -0.00   0.00   0.00
                     22                     23                     24
                        a                      a                      a 
 Frequencies --  1505.9591              2442.9618              2962.8907
 Red. masses --     1.0535                 1.0387                 1.0820
 Frc consts  --     0.0000                 0.0000                 0.0000
 IR Inten    --     5.2471               124.0546                32.8077
 Raman Activ --     0.0000                 0.0000                 0.0000
 Depolar     --     0.0000                 0.0000                 0.0000
 Atom AN      X      Y      Z        X      Y      Z        X      Y      Z
   1   6    -0.03   0.21   0.00    -0.00  -0.00   0.00    -0.02   0.01   0.01
   2   6     0.00   0.05  -0.00    -0.00   0.00   0.00     0.15  -0.17  -0.15
   3   6     0.00   0.00   0.00     0.00  -0.00  -0.00     0.01   0.02  -0.00
   4  16     0.00  -0.00   0.00    -0.09   0.02  -0.15    -0.00   0.00   0.00
   5   1    -0.40  -0.44   0.05     0.00  -0.00  -0.00     0.04  -0.04  -0.06
   6   1     0.26  -0.57  -0.25     0.00   0.00   0.00     0.02   0.02  -0.00
   7   1     0.26   0.15   0.20     0.00   0.00   0.00     0.00  -0.04   0.02
   8   1    -0.03   0.00  -0.02    -0.00  -0.00  -0.00    -0.03   0.19  -0.10
   9   1     0.00  -0.01   0.02     0.00  -0.00  -0.00    -0.52   0.42   0.64
  10   1    -0.02  -0.01  -0.01     0.00   0.00   0.00     0.02  -0.09   0.05
  11   1     0.00  -0.02   0.00    -0.00  -0.00  -0.01    -0.02  -0.00  -0.05
  12   1     0.01   0.00  -0.00     0.48  -0.09   0.85     0.00  -0.00   0.00
                     25                     26                     27
                        a                      a                      a 
 Frequencies --  2979.7221              2991.6323              3003.0252
 Red. masses --     1.0726                 1.0677                 1.0703
 Frc consts  --     0.0000                 0.0000                 0.0000
 IR Inten    --     4.5885                26.3404                15.5815
 Raman Activ --     0.0000                 0.0000                 0.0000
 Depolar     --     0.0000                 0.0000                 0.0000
 Atom AN      X      Y      Z        X      Y      Z        X      Y      Z
   1   6     0.00   0.00  -0.00    -0.00  -0.04   0.01     0.01   0.01  -0.01
   2   6    -0.00  -0.08   0.07    -0.03   0.18  -0.10    -0.00  -0.01   0.03
   3   6    -0.05   0.19  -0.13    -0.01   0.12  -0.04     0.11   0.04   0.22
   4  16    -0.00   0.00   0.00    -0.00   0.00   0.00    -0.00   0.00   0.01
   5   1    -0.00   0.00   0.00    -0.01  -0.00   0.01    -0.02   0.02   0.02
   6   1    -0.01  -0.00   0.00     0.05   0.02  -0.01    -0.02  -0.01   0.00
   7   1     0.01  -0.02   0.01    -0.03   0.14  -0.06     0.01  -0.05   0.02
   8   1    -0.10   0.39  -0.13     0.19  -0.75   0.26    -0.02   0.09  -0.03
   9   1     0.11  -0.10  -0.12    -0.09   0.10   0.09     0.04  -0.04  -0.05
  10   1     0.14  -0.74   0.36     0.08  -0.40   0.20     0.03  -0.06   0.06
  11   1     0.05   0.04   0.09    -0.04   0.01  -0.07    -0.42  -0.11  -0.85
  12   1     0.00  -0.00   0.00     0.00  -0.00   0.00    -0.00   0.00  -0.01
                     28                     29                     30
                        a                      a                      a 
 Frequencies --  3027.2038              3031.8014              3045.6815
 Red. masses --     1.0816                 1.0779                 1.0551
 Frc consts  --     0.0000                 0.0000                 0.0000
 IR Inten    --    44.9557                41.2790                25.6245
 Raman Activ --     0.0000                 0.0000                 0.0000
 Depolar     --     0.0000                 0.0000                 0.0000
 Atom AN      X      Y      Z        X      Y      Z        X      Y      Z
   1   6    -0.05   0.25  -0.06     0.17  -0.06  -0.19    -0.18  -0.12  -0.01
   2   6    -0.01   0.05  -0.01     0.02  -0.01  -0.02    -0.01  -0.01   0.00
   3   6    -0.01   0.01  -0.01    -0.00   0.00  -0.01     0.00  -0.00   0.00
   4  16    -0.00   0.00  -0.00    -0.00   0.00  -0.00     0.00   0.00   0.00
   5   1     0.08  -0.05  -0.12    -0.47   0.49   0.62    -0.15   0.11   0.17
   6   1    -0.06   0.01   0.01    -0.20  -0.13   0.02     0.81   0.43  -0.18
   7   1     0.18  -0.85   0.34     0.05  -0.13   0.02    -0.00  -0.12   0.04
   8   1     0.04  -0.15   0.05     0.00  -0.01   0.00    -0.01   0.03  -0.01
   9   1     0.01  -0.00  -0.01    -0.05   0.04   0.06     0.01  -0.01  -0.01
  10   1     0.01  -0.05   0.02     0.00  -0.01   0.00    -0.00   0.01  -0.01
  11   1     0.02   0.01   0.03     0.02   0.00   0.03    -0.00  -0.00  -0.00
  12   1     0.00   0.00   0.00     0.00  -0.00   0.00     0.00   0.00  -0.00
