      -----------------------------------------------------------      
     |                   =====================                   |     
     |                           x T B                           |     
     |                   =====================                   |     
     |                         S. Grimme                         |     
     |          Mulliken Center for Theoretical Chemistry        |     
     |                    University of Bonn                     |     
      -----------------------------------------------------------      

   * xtb version 6.7.1 (41059b4) compiled by 'michael@archlinux' on 2025-03-24

   xtb is free software: you can redistribute it and/or modify it under
   the terms of the GNU Lesser General Public License as published by
   the Free Software Foundation, either version 3 of the License, or
   (at your option) any later version.
   
   xtb is distributed in the hope that it will be useful,
   but WITHOUT ANY WARRANTY; without even the implied warranty of
   MERCHANTABILITY or FITNESS FOR A PARTICULAR PURPOSE.  See the
   GNU Lesser General Public License for more details.
   
   Cite this work as:
   * C. Bannwarth, E. Caldeweyher, S. Ehlert, A. Hansen, P. Pracht,
     J. Seibert, S. Spicher, S. Grimme, WIREs Comput. Mol. Sci., 2020, 11,
     e01493. DOI: 10.1002/wcms.1493
   
   for GFN2-xTB:
   * C. Bannwarth, S. Ehlert and S. Grimme., J. Chem. Theory Comput., 2019,
     15, 1652-1671. DOI: 10.1021/acs.jctc.8b01176
   for GFN1-xTB:
   * S. Grimme, C. Bannwarth, P. Shushkov, J. Chem. Theory Comput., 2017,
     13, 1989-2009. DOI: 10.1021/acs.jctc.7b00118
   for GFN0-xTB:
   * P. Pracht, E. Caldeweyher, S. Ehlert, S. Grimme, ChemRxiv, 2019, preprint.
     DOI: 10.26434/chemrxiv.8326202.v1
   for GFN-FF:
   * S. Spicher and S. Grimme, Angew. Chem. Int. Ed., 2020, 59, 15665-15673.
     DOI: 10.1002/anie.202004239
   
   for ALPB and GBSA implicit solvation:
   * S. Ehlert, M. Stahn, S. Spicher, S. Grimme, J. Chem. Theory Comput.,
     2021, 17, 4250-4261. DOI: 10.1021/acs.jctc.1c00471
   
   for ddCOSMO and CPCM-X implicit solvation:
   * M. Stahn, S. Ehlert, S. Grimme, J. Phys. Chem. A,
     2023, XX, XXXX-XXXX. DOI: 10.1021/acs.jpca.3c04382
   
   for DFT-D4:
   * E. Caldeweyher, C. Bannwarth and S. Grimme, J. Chem. Phys., 2017,
     147, 034112. DOI: 10.1063/1.4993215
   * E. Caldeweyher, S. Ehlert, A. Hansen, H. Neugebauer, S. Spicher,
     C. Bannwarth and S. Grimme, J. Chem. Phys., 2019, 150, 154122.
     DOI: 10.1063/1.5090222
   * E. Caldeweyher, J.-M. Mewes, S. Ehlert and S. Grimme, Phys. Chem. Chem. Phys.
     2020, 22, 8499-8512. DOI: 10.1039/D0CP00502A
   
   for sTDA-xTB:
   * S. Grimme and C. Bannwarth, J. Chem. Phys., 2016, 145, 054103.
     DOI: 10.1063/1.4959605
   
   in the mass-spec context:
   * V. Asgeirsson, C. Bauer and S. Grimme, Chem. Sci., 2017, 8, 4879.
     DOI: 10.1039/c7sc00601b
   * J. Koopman and S. Grimme, ACS Omega 2019, 4, 12, 15120-15133.
     DOI: 10.1021/acsomega.9b02011
   
   for metadynamics refer to:
   * S. Grimme, J. Chem. Theory Comput., 2019, 155, 2847-2862
     DOI: 10.1021/acs.jctc.9b00143
   
   for SPH calculations refer to:
   * S. Spicher and S. Grimme, J. Chem. Theory Comput., 2021, 17, 1701-1714
     DOI: 10.1021/acs.jctc.0c01306
   
   for ONIOM refer to:
   * C. Plett, A. Katbashev, S. Ehlert, S. Grimme, M. Bursch,
     Phys. Chem. Chem. Phys., 2023, 25, 17860-17868. DOI: 10.1039/D3CP02178E
   
   for DIPRO refer to:
   * J. Kohn, N. Gildemeister, S. Grimme, D. Fazzi, A. Hansen,
     J. Chem. Phys., 2023, just accepted.
   
   for PTB refer to:
   * S. Grimme, M. Mueller, A. Hansen, J. Chem. Phys., 2023, 158, 124111.
     DOI: 10.1063/5.0137838
   
   with help from (in alphabetical order)
   P. Atkinson, C. Bannwarth, F. Bohle, G. Brandenburg, E. Caldeweyher
   M. Checinski, S. Dohm, S. Ehlert, S. Ehrlich, I. Gerasimov, C. Hölzer
   A. Katbashev, J. Kohn, J. Koopman, C. Lavigne, S. Lehtola, F. März, M. Müller,
   F. Musil, H. Neugebauer, J. Pisarek, C. Plett, P. Pracht, F. Pultar,
   J. Seibert, P. Shushkov, S. Spicher, M. Stahn, M. Steiner, T. Strunk,
   J. Stückrath, T. Rose, and J. Unsleber
   
 * started run on 2025/04/09 at 01:47:52.247     
   ID    Z sym.   atoms
    1    6 C      1-3
    2   16 S      4
    3    1 H      5-12

           -------------------------------------------------
          |                Calculation Setup                |
           -------------------------------------------------

          program call               : /usr/bin/xtb xtb_rrho.coord --gfn2 --ohess vtight --chrg 0 --enso --norestart -I rrho-xcontrol-inp --parallel 1
          coordinate file            : xtb_rrho.coord
          omp threads                :                     1


           -------------------------------------------------
          |                 G F N 2 - x T B                 |
           -------------------------------------------------

        Reference                      10.1021/acs.jctc.8b01176
      * Hamiltonian:
        H0-scaling (s, p, d)           1.850000    2.230000    2.230000
        zeta-weighting                 0.500000
      * Dispersion:
        s8                             2.700000
        a1                             0.520000
        a2                             5.000000
        s9                             5.000000
      * Repulsion:
        kExp                           1.500000    1.000000
        rExp                           1.000000
      * Coulomb:
        alpha                          2.000000
        third order                    shell-resolved
        anisotropic                    true
        a3                             3.000000
        a5                             4.000000
        cn-shift                       1.200000
        cn-exp                         4.000000
        max-rad                        5.000000


          ...................................................
          :                      SETUP                      :
          :.................................................:
          :  # basis functions                  30          :
          :  # atomic orbitals                  29          :
          :  # shells                           17          :
          :  # electrons                        26          :
          :  max. iterations                   250          :
          :  Hamiltonian                  GFN2-xTB          :
          :  restarted?                      false          :
          :  GBSA solvation                  false          :
          :  PC potential                    false          :
          :  electronic temp.          300.0000000     K    :
          :  accuracy                    1.0000000          :
          :  -> integral cutoff          0.2500000E+02      :
          :  -> integral neglect         0.1000000E-07      :
          :  -> SCF convergence          0.1000000E-05 Eh   :
          :  -> wf. convergence          0.1000000E-03 e    :
          :  Broyden damping             0.4000000          :
          :  net charge                          0          :
          :  unpaired electrons                  0          :
          ...................................................

 iter      E             dE          RMSdq      gap      omega  full diag
   1    -13.8619619 -0.138620E+02  0.354E+00    5.30       0.0  T
   2    -13.8950777 -0.331158E-01  0.201E+00    4.75       1.0  T
   3    -13.8964243 -0.134655E-02  0.846E-01    4.66       1.0  T
   4    -13.8970137 -0.589447E-03  0.290E-01    4.52       1.0  T
   5    -13.8970427 -0.289534E-04  0.124E-01    4.52       1.0  T
   6    -13.8970571 -0.143760E-04  0.320E-02    4.52       1.0  T
   7    -13.8970578 -0.742371E-06  0.138E-02    4.52       2.1  T
   8    -13.8970579 -0.154383E-06  0.322E-03    4.52       9.0  T
   9    -13.8970580 -0.296595E-08  0.639E-04    4.52      45.2  T
  10    -13.8970580 -0.181272E-09  0.297E-04    4.52      97.3  T

   *** convergence criteria satisfied after 10 iterations ***

         #    Occupation            Energy/Eh            Energy/eV
      -------------------------------------------------------------
         1        2.0000           -0.7073444             -19.2478
       ...           ...                  ...                  ...
         7        2.0000           -0.4969146             -13.5217
         8        2.0000           -0.4898994             -13.3308
         9        2.0000           -0.4639136             -12.6237
        10        2.0000           -0.4550651             -12.3830
        11        2.0000           -0.4504102             -12.2563
        12        2.0000           -0.4385352             -11.9331
        13        2.0000           -0.3684575             -10.0262 (HOMO)
        14                         -0.2021979              -5.5021 (LUMO)
        15                         -0.1235205              -3.3612
        16                         -0.0092837              -0.2526
        17                         -0.0084152              -0.2290
        18                          0.0045725               0.1244
       ...                                ...                  ...
        29                          0.5089007              13.8479
      -------------------------------------------------------------
                  HL-Gap            0.1662596 Eh            4.5242 eV
             Fermi-level           -0.2853277 Eh           -7.7642 eV

 SCC (total)                   0 d,  0 h,  0 min,  0.004 sec
 SCC setup                      ...        0 min,  0.000 sec (  1.479%)
 Dispersion                     ...        0 min,  0.000 sec (  0.827%)
 classical contributions        ...        0 min,  0.000 sec (  0.254%)
 integral evaluation            ...        0 min,  0.001 sec ( 16.117%)
 iterations                     ...        0 min,  0.002 sec ( 51.258%)
 molecular gradient             ...        0 min,  0.001 sec ( 28.478%)
 printout                       ...        0 min,  0.000 sec (  1.409%)

         :::::::::::::::::::::::::::::::::::::::::::::::::::::
         ::                     SUMMARY                     ::
         :::::::::::::::::::::::::::::::::::::::::::::::::::::
         :: total energy             -13.741637935739 Eh    ::
         :: gradient norm              0.015772756361 Eh/a0 ::
         :: HOMO-LUMO gap              4.524154203305 eV    ::
         ::.................................................::
         :: SCC energy               -13.897052096170 Eh    ::
         :: -> isotropic ES            0.005689306912 Eh    ::
         :: -> anisotropic ES          0.002703307766 Eh    ::
         :: -> anisotropic XC          0.009416572345 Eh    ::
         :: -> dispersion             -0.006243437618 Eh    ::
         :: repulsion energy           0.155414160431 Eh    ::
         :: add. restraining           0.000000000000 Eh    ::
         :: total charge               0.000000000000 e     ::
         :::::::::::::::::::::::::::::::::::::::::::::::::::::

      ----------------------------------------------------------- 
     |                   =====================                   |
     |                        A N C O P T                        |
     |                   =====================                   |
     |               Approximate Normal Coordinate               |
     |                Rational Function Optimizer                |
      ----------------------------------------------------------- 

          ...................................................
          :                      SETUP                      :
          :.................................................:
          :   optimization level         verytight          :
          :   max. optcycles                   240          :
          :   ANC micro-cycles                  20          :
          :   degrees of freedom                30          :
          :.................................................:
          :   RF solver                   davidson          :
          :   write xtbopt.log                true          :
          :   linear?                        false          :
          :   energy convergence         0.1000000E-06 Eh   :
          :   grad. convergence          0.2000000E-03 Eh/α :
          :   maximum RF displ.          1.0000000          :
          :   Hlow (freq-cutoff)         0.1000000E-01      :
          :   Hmax (freq-cutoff)         5.0000000          :
          :   S6 in model hess.         20.0000000          :
          ...................................................

generating ANC from exact Hessian ...
Using Lindh-Hessian (1995)
 Shifting diagonal of input Hessian by    6.4265170743609129E-003
 Lowest  eigenvalues of input Hessian
    0.000000    0.000000    0.000000    0.000000    0.000000    0.000000
    0.010000    0.010885    0.016299    0.019643    0.026119    0.033930
    0.048355    0.056709    0.058418    0.060439    0.066653    0.072322
 Highest eigenvalues
    1.024767    1.066019    1.081668    1.147220    1.188100    1.255782


........................................................................
.............................. CYCLE    1 ..............................
........................................................................

 iter      E             dE          RMSdq      gap      omega  full diag
   1    -13.8970580 -0.138971E+02  0.694E-05    4.52       0.0  T
   2    -13.8970580 -0.196287E-11  0.428E-05    4.52     675.2  T
   3    -13.8970580 -0.373035E-12  0.151E-05    4.52    1915.7  T
     SCC iter.                  ...        0 min,  0.001 sec
     gradient                   ...        0 min,  0.001 sec
 * total energy  :   -13.7416379 Eh     change       -0.3820055E-10 Eh
   gradient norm :     0.0157735 Eh/α   predicted     0.0000000E+00 (-100.00%)
   displ. norm   :     0.1303643 α      lambda       -0.1001973E-02
   maximum displ.:     0.0682870 α      in ANC's #5, #2, #4, ...

........................................................................
.............................. CYCLE    2 ..............................
........................................................................

 iter      E             dE          RMSdq      gap      omega  full diag
   1    -13.9029199 -0.139029E+02  0.146E-01    4.58       0.0  T
   2    -13.9029246 -0.461444E-05  0.805E-02    4.58       1.0  T
   3    -13.9029250 -0.408825E-06  0.148E-02    4.57       1.9  T
   4    -13.9029254 -0.388158E-06  0.686E-03    4.57       4.2  T
   5    -13.9029254 -0.359827E-07  0.214E-03    4.57      13.5  T
   6    -13.9029254 -0.226715E-08  0.104E-03    4.57      27.7  T
   7    -13.9029254 -0.246585E-09  0.246E-04    4.57     117.2  T
   8    -13.9029254 -0.191385E-10  0.553E-05    4.57     521.7  T
     SCC iter.                  ...        0 min,  0.001 sec
     gradient                   ...        0 min,  0.001 sec
 * total energy  :   -13.7422351 Eh     change       -0.5971332E-03 Eh
   gradient norm :     0.0062637 Eh/α   predicted    -0.5095004E-03 ( -14.68%)
   displ. norm   :     0.0600724 α      lambda       -0.1134203E-03
   maximum displ.:     0.0357924 α      in ANC's #1, #2, #5, ...

........................................................................
.............................. CYCLE    3 ..............................
........................................................................

 iter      E             dE          RMSdq      gap      omega  full diag
   1    -13.9051251 -0.139051E+02  0.582E-02    4.59       0.0  T
   2    -13.9051265 -0.135611E-05  0.291E-02    4.59       1.0  T
   3    -13.9051266 -0.143284E-06  0.572E-03    4.59       5.0  T
   4    -13.9051266 -0.134711E-07  0.260E-03    4.59      11.1  T
   5    -13.9051266 -0.234103E-08  0.832E-04    4.59      34.7  T
   6    -13.9051266 -0.795820E-09  0.399E-04    4.59      72.3  T
     SCC iter.                  ...        0 min,  0.001 sec
     gradient                   ...        0 min,  0.001 sec
 * total energy  :   -13.7423010 Eh     change       -0.6588866E-04 Eh
   gradient norm :     0.0017342 Eh/α   predicted    -0.5691593E-04 ( -13.62%)
   displ. norm   :     0.0547567 α      lambda       -0.1725260E-04
   maximum displ.:     0.0475560 α      in ANC's #1, #2, #3, ...

........................................................................
.............................. CYCLE    4 ..............................
........................................................................

 iter      E             dE          RMSdq      gap      omega  full diag
   1    -13.9054093 -0.139054E+02  0.552E-02    4.60       0.0  T
   2    -13.9054100 -0.676775E-06  0.262E-02    4.60       1.1  T
   3    -13.9054101 -0.131469E-06  0.320E-03    4.60       9.0  T
   4    -13.9054101 -0.416934E-08  0.161E-03    4.60      18.0  T
   5    -13.9054101 -0.996847E-09  0.411E-04    4.60      70.3  T
   6    -13.9054101 -0.878764E-10  0.184E-04    4.60     157.1  T
     SCC iter.                  ...        0 min,  0.001 sec
     gradient                   ...        0 min,  0.001 sec
 * total energy  :   -13.7423167 Eh     change       -0.1573016E-04 Eh
   gradient norm :     0.0009901 Eh/α   predicted    -0.8639874E-05 ( -45.07%)
   displ. norm   :     0.0403054 α      lambda       -0.7508344E-05
   maximum displ.:     0.0356276 α      in ANC's #1, #3, #4, ...

........................................................................
.............................. CYCLE    5 ..............................
........................................................................

 iter      E             dE          RMSdq      gap      omega  full diag
   1    -13.9050288 -0.139050E+02  0.508E-02    4.60       0.0  T
   2    -13.9050292 -0.347464E-06  0.244E-02    4.60       1.2  T
   3    -13.9050292 -0.909187E-07  0.264E-03    4.60      11.0  T
   4    -13.9050292  0.478275E-09  0.792E-04    4.60      36.4  T
   5    -13.9050292 -0.164622E-08  0.202E-04    4.60     143.3  T
     SCC iter.                  ...        0 min,  0.001 sec
     gradient                   ...        0 min,  0.001 sec
 * total energy  :   -13.7423254 Eh     change       -0.8735203E-05 Eh
   gradient norm :     0.0008205 Eh/α   predicted    -0.3755046E-05 ( -57.01%)
   displ. norm   :     0.0412298 α      lambda       -0.5599873E-05
   maximum displ.:     0.0351507 α      in ANC's #1, #3, #4, ...

........................................................................
.............................. CYCLE    6 ..............................
........................................................................

 iter      E             dE          RMSdq      gap      omega  full diag
   1    -13.9049042 -0.139049E+02  0.457E-02    4.60       0.0  T
   2    -13.9049045 -0.287240E-06  0.220E-02    4.60       1.3  T
   3    -13.9049046 -0.755873E-07  0.230E-03    4.60      12.5  T
   4    -13.9049046 -0.480878E-10  0.439E-04    4.60      65.7  T
   5    -13.9049046 -0.442910E-09  0.146E-04    4.60     197.1  T
     SCC iter.                  ...        0 min,  0.001 sec
     gradient                   ...        0 min,  0.001 sec
 * total energy  :   -13.7423318 Eh     change       -0.6411915E-05 Eh
   gradient norm :     0.0005529 Eh/α   predicted    -0.2803165E-05 ( -56.28%)
   displ. norm   :     0.0337082 α      lambda       -0.3429859E-05
   maximum displ.:     0.0301928 α      in ANC's #1, #3, #2, ...

........................................................................
.............................. CYCLE    7 ..............................
........................................................................

 iter      E             dE          RMSdq      gap      omega  full diag
   1    -13.9049958 -0.139050E+02  0.356E-02    4.60       0.0  T
   2    -13.9049960 -0.172719E-06  0.173E-02    4.60       1.7  T
   3    -13.9049960 -0.407154E-07  0.219E-03    4.60      13.2  T
   4    -13.9049960 -0.185280E-08  0.114E-03    4.60      25.3  T
   5    -13.9049960 -0.131259E-08  0.191E-04    4.60     151.3  T
   6    -13.9049960 -0.101288E-10  0.712E-05    4.60     405.4  T
     SCC iter.                  ...        0 min,  0.001 sec
     gradient                   ...        0 min,  0.001 sec
 * total energy  :   -13.7423356 Eh     change       -0.3734887E-05 Eh
   gradient norm :     0.0003834 Eh/α   predicted    -0.1714215E-05 ( -54.10%)
   displ. norm   :     0.0248244 α      lambda       -0.1954673E-05
   maximum displ.:     0.0226878 α      in ANC's #1, #3, #2, ...

........................................................................
.............................. CYCLE    8 ..............................
........................................................................

 iter      E             dE          RMSdq      gap      omega  full diag
   1    -13.9050558 -0.139051E+02  0.207E-02    4.60       0.0  T
   2    -13.9050558 -0.640683E-07  0.101E-02    4.60       2.8  T
   3    -13.9050558 -0.142054E-07  0.146E-03    4.60      19.8  T
   4    -13.9050558 -0.125373E-08  0.784E-04    4.60      36.8  T
   5    -13.9050558 -0.545832E-09  0.125E-04    4.60     231.1  T
     SCC iter.                  ...        0 min,  0.001 sec
     gradient                   ...        0 min,  0.001 sec
 * total energy  :   -13.7423378 Eh     change       -0.2257688E-05 Eh
   gradient norm :     0.0002619 Eh/α   predicted    -0.9766217E-06 ( -56.74%)
   displ. norm   :     0.0191978 α      lambda       -0.1255579E-05
   maximum displ.:     0.0180928 α      in ANC's #1, #2, #5, ...

........................................................................
.............................. CYCLE    9 ..............................
........................................................................

 iter      E             dE          RMSdq      gap      omega  full diag
   1    -13.9050761 -0.139051E+02  0.128E-02    4.60       0.0  T
   2    -13.9050761 -0.239748E-07  0.623E-03    4.60       4.6  T
   3    -13.9050761 -0.549547E-08  0.944E-04    4.60      30.6  T
   4    -13.9050761 -0.388418E-10  0.161E-04    4.60     179.6  T
     SCC iter.                  ...        0 min,  0.001 sec
     gradient                   ...        0 min,  0.001 sec
 * total energy  :   -13.7423394 Eh     change       -0.1572958E-05 Eh
   gradient norm :     0.0002189 Eh/α   predicted    -0.6295335E-06 ( -59.98%)
   displ. norm   :     0.0167470 α      lambda       -0.9805341E-06
   maximum displ.:     0.0150537 α      in ANC's #1, #3, #2, ...

........................................................................
.............................. CYCLE   10 ..............................
........................................................................

 iter      E             dE          RMSdq      gap      omega  full diag
   1    -13.9051009 -0.139051E+02  0.101E-02    4.60       0.0  T
   2    -13.9051009 -0.127729E-07  0.505E-03    4.60       5.7  T
   3    -13.9051009 -0.287921E-08  0.833E-04    4.60      34.7  T
   4    -13.9051009 -0.321609E-10  0.132E-04    4.60     218.8  T
     SCC iter.                  ...        0 min,  0.001 sec
     gradient                   ...        0 min,  0.001 sec
 * total energy  :   -13.7423407 Eh     change       -0.1318372E-05 Eh
   gradient norm :     0.0002022 Eh/α   predicted    -0.4883499E-06 ( -62.96%)
   displ. norm   :     0.0197143 α      lambda       -0.1002195E-05
   maximum displ.:     0.0161648 α      in ANC's #1, #3, #2, ...

........................................................................
.............................. CYCLE   11 ..............................
........................................................................

 iter      E             dE          RMSdq      gap      omega  full diag
   1    -13.9050886 -0.139051E+02  0.996E-03    4.60       0.0  T
   2    -13.9050886 -0.111296E-07  0.507E-03    4.60       5.7  T
   3    -13.9050886 -0.258962E-08  0.884E-04    4.60      32.7  T
   4    -13.9050886 -0.344791E-10  0.940E-05    4.60     307.1  T
     SCC iter.                  ...        0 min,  0.001 sec
     gradient                   ...        0 min,  0.001 sec
 * total energy  :   -13.7423420 Eh     change       -0.1310415E-05 Eh
   gradient norm :     0.0001294 Eh/α   predicted    -0.5018679E-06 ( -61.70%)
   displ. norm   :     0.0208504 α      lambda       -0.8120378E-06
   maximum displ.:     0.0167842 α      in ANC's #1, #3, #2, ...

........................................................................
.............................. CYCLE   12 ..............................
........................................................................

 iter      E             dE          RMSdq      gap      omega  full diag
   1    -13.9050658 -0.139051E+02  0.105E-02    4.60       0.0  T
   2    -13.9050658 -0.119165E-07  0.538E-03    4.60       5.4  T
   3    -13.9050658 -0.278955E-08  0.949E-04    4.60      30.4  T
   4    -13.9050658 -0.550724E-10  0.861E-05    4.60     335.3  T
     SCC iter.                  ...        0 min,  0.001 sec
     gradient                   ...        0 min,  0.001 sec
 * total energy  :   -13.7423430 Eh     change       -0.9771843E-06 Eh
   gradient norm :     0.0000799 Eh/α   predicted    -0.4072633E-06 ( -58.32%)
   displ. norm   :     0.0154154 α      lambda       -0.4164240E-06
   maximum displ.:     0.0130164 α      in ANC's #1, #3, #2, ...

........................................................................
.............................. CYCLE   13 ..............................
........................................................................

 iter      E             dE          RMSdq      gap      omega  full diag
   1    -13.9050713 -0.139051E+02  0.863E-03    4.60       0.0  T
   2    -13.9050713 -0.896179E-08  0.433E-03    4.60       6.7  T
   3    -13.9050713 -0.216830E-08  0.700E-04    4.60      41.2  T
   4    -13.9050713 -0.194511E-10  0.806E-05    4.60     357.9  T
     SCC iter.                  ...        0 min,  0.001 sec
     gradient                   ...        0 min,  0.001 sec
 * total energy  :   -13.7423435 Eh     change       -0.4818579E-06 Eh
   gradient norm :     0.0000857 Eh/α   predicted    -0.2087783E-06 ( -56.67%)
   displ. norm   :     0.0085463 α      lambda       -0.1819877E-06
   maximum displ.:     0.0079138 α      in ANC's #1, #3, #2, ...

........................................................................
.............................. CYCLE   14 ..............................
........................................................................

 iter      E             dE          RMSdq      gap      omega  full diag
   1    -13.9050711 -0.139051E+02  0.573E-03    4.60       0.0  T
   2    -13.9050711 -0.426126E-08  0.283E-03    4.60      10.2  T
   3    -13.9050711 -0.104059E-08  0.433E-04    4.60      66.7  T
   4    -13.9050711 -0.811085E-11  0.597E-05    4.60     483.3  T
     SCC iter.                  ...        0 min,  0.001 sec
     gradient                   ...        0 min,  0.001 sec
 * total energy  :   -13.7423437 Eh     change       -0.2303942E-06 Eh
   gradient norm :     0.0000644 Eh/α   predicted    -0.9006576E-07 ( -60.91%)
   displ. norm   :     0.0053830 α      lambda       -0.1067023E-06
   maximum displ.:     0.0052927 α      in ANC's #1, #2, #5, ...

........................................................................
.............................. CYCLE   15 ..............................
........................................................................

 iter      E             dE          RMSdq      gap      omega  full diag
   1    -13.9050756 -0.139051E+02  0.480E-03    4.60       0.0  T
   2    -13.9050756 -0.332136E-08  0.231E-03    4.60      12.5  T
   3    -13.9050756 -0.835767E-09  0.281E-04    4.60     102.8  T
   4    -13.9050756 -0.468603E-11  0.420E-05    4.60     687.5  T
     SCC iter.                  ...        0 min,  0.001 sec
     gradient                   ...        0 min,  0.001 sec
 * total energy  :   -13.7423439 Eh     change       -0.1504330E-06 Eh
   gradient norm :     0.0000500 Eh/α   predicted    -0.5434975E-07 ( -63.87%)
   displ. norm   :     0.0054464 α      lambda       -0.1080625E-06
   maximum displ.:     0.0050996 α      in ANC's #1, #3, #5, ...

........................................................................
.............................. CYCLE   16 ..............................
........................................................................

 iter      E             dE          RMSdq      gap      omega  full diag
   1    -13.9050804 -0.139051E+02  0.576E-03    4.60       0.0  T
   2    -13.9050804 -0.474545E-08  0.275E-03    4.60      10.5  T
   3    -13.9050804 -0.122382E-08  0.296E-04    4.60      97.6  T
   4    -13.9050804 -0.538947E-11  0.454E-05    4.60     636.5  T
     SCC iter.                  ...        0 min,  0.001 sec
     gradient                   ...        0 min,  0.001 sec
 * total energy  :   -13.7423440 Eh     change       -0.1400431E-06 Eh
   gradient norm :     0.0000361 Eh/α   predicted    -0.5274346E-07 ( -62.34%)
   displ. norm   :     0.0057254 α      lambda       -0.8785675E-07
   maximum displ.:     0.0052184 α      in ANC's #1, #3, #5, ...

........................................................................
.............................. CYCLE   17 ..............................
........................................................................

 iter      E             dE          RMSdq      gap      omega  full diag
   1    -13.9050789 -0.139051E+02  0.610E-03    4.60       0.0  T
   2    -13.9050789 -0.535719E-08  0.292E-03    4.60       9.9  T
   3    -13.9050789 -0.138866E-08  0.316E-04    4.60      91.3  T
   4    -13.9050789 -0.530953E-11  0.476E-05    4.60     606.8  T
     SCC iter.                  ...        0 min,  0.001 sec
     gradient                   ...        0 min,  0.001 sec
 * total energy  :   -13.7423441 Eh     change       -0.1122775E-06 Eh
   gradient norm :     0.0000224 Eh/α   predicted    -0.4466159E-07 ( -60.22%)
   displ. norm   :     0.0045901 α      lambda       -0.4986476E-07
   maximum displ.:     0.0042965 α      in ANC's #1, #3, #5, ...

........................................................................
.............................. CYCLE   18 ..............................
........................................................................

 iter      E             dE          RMSdq      gap      omega  full diag
   1    -13.9050790 -0.139051E+02  0.493E-03    4.60       0.0  T
   2    -13.9050790 -0.347131E-08  0.236E-03    4.60      12.2  T
   3    -13.9050790 -0.899115E-09  0.252E-04    4.60     114.6  T
   4    -13.9050790 -0.241585E-11  0.399E-05    4.60     723.0  T
     SCC iter.                  ...        0 min,  0.001 sec
     gradient                   ...        0 min,  0.001 sec
 * total energy  :   -13.7423442 Eh     change       -0.6501564E-07 Eh
   gradient norm :     0.0000158 Eh/α   predicted    -0.2558583E-07 ( -60.65%)
   displ. norm   :     0.0030421 α      lambda       -0.2514702E-07
   maximum displ.:     0.0029824 α      in ANC's #1, #3, #2, ...

   *** GEOMETRY OPTIMIZATION CONVERGED AFTER 18 ITERATIONS ***

------------------------------------------------------------------------
 total energy gain   :        -0.0007063 Eh       -0.4432 kcal/mol
 total RMSD          :         0.1110547 a0        0.0588 Å
 total power (kW/mol):        -0.1030145 (step)  -37.0245 (real)
------------------------------------------------------------------------

 ANCopt (total)                0 d,  0 h,  0 min,  0.050 sec
 optimizer setup                ...        0 min,  0.000 sec (  0.078%)
 model hessian                  ...        0 min,  0.001 sec (  2.381%)
 ANC generation                 ...        0 min,  0.000 sec (  0.235%)
 coordinate transformation      ...        0 min,  0.000 sec (  0.083%)
 single point calculation       ...        0 min,  0.046 sec ( 92.315%)
 optimization log               ...        0 min,  0.001 sec (  1.037%)
 hessian update                 ...        0 min,  0.000 sec (  0.124%)
 rational function              ...        0 min,  0.001 sec (  1.305%)

================
 final structure:
================
$coord
       -3.72069368901882       -0.41894469254489       -0.93770886372086      C
       -2.21364498820352       -0.21244110718097        1.50697174574054      C
        0.21674185319864        1.29636851010789        1.20779073032370      C
        2.61216405543866       -0.30714540584306       -0.69995643073391      S
       -2.68346809800307       -1.49520831263470       -2.34936416215643      H
       -5.50348994031197       -1.37878347229858       -0.59110794024368      H
       -4.12644232222444        1.44852479052199       -1.69893712943449      H
       -1.75436265334500       -2.10073601343329        2.20008685054509      H
       -3.36503145582040        0.72803771515550        2.94151384113492      H
       -0.13635297922614        3.13750136397430        0.35442549430714      H
        1.12773624451225        1.56789829431893        3.03483118659967      H
        1.40799709541255       -0.09978202423872       -2.89707850874881      H
$end

 Bond Distances (Angstroems)
 ---------------------------
C1-C2=1.5237         C1-H5=1.0880         C1-H6=1.0870         C1-H7=1.0886         C2-C1=1.5237         C2-C3=1.5220         
C2-H8=1.0918         C2-H9=1.0932         C3-C2=1.5220         C3-S4=1.8292         C3-H10=1.0900        C3-H11=1.0899        
S4-C3=1.8292         S4-H12=1.3304        H5-C1=1.0880         H6-C1=1.0870         H7-C1=1.0886         H8-C2=1.0918         
H9-C2=1.0932         H10-C3=1.0900        H11-C3=1.0899        H12-S4=1.3304        
 C  H  Rav=1.0898 sigma=0.0020  Rmin=1.0870  Rmax=1.0932     7
 C  C  Rav=1.5228 sigma=0.0008  Rmin=1.5220  Rmax=1.5237     2
 S  H  Rav=1.3304 sigma=0.0000  Rmin=1.3304  Rmax=1.3304     1
 S  C  Rav=1.8292 sigma=0.0000  Rmin=1.8292  Rmax=1.8292     1

 selected bond angles (degree)
 --------------------
H5-C1-C2=110.88                H6-C1-C2=110.15                H6-C1-H5=108.00                H7-C1-C2=110.63                
H7-C1-H5=108.70                H7-C1-H6=108.39                C3-C2-C1=113.05                H8-C2-C1=109.64                
H8-C2-C3=109.08                H9-C2-C1=109.30                H9-C2-C3=107.72                H9-C2-H8=107.90                
S4-C3-C2=113.55                H10-C3-C2=111.54               H10-C3-S4=107.75               H11-C3-C2=110.53               
H11-C3-S4=104.14               H11-C3-H10=109.00              H12-S4-C3= 96.44               

 selected dihedral angles (degree)
 ---------------------------------
C3-C2-C1-H5= 65.05            C3-C2-C1-H6=184.55            C3-C2-C1-H7=304.36            H8-C2-C1-H5=303.10            
H8-C2-C1-H6= 62.60            H8-C2-C1-H7=182.41            H9-C2-C1-H5=185.01            H9-C2-C1-H6=304.51            
H9-C2-C1-H7= 64.33            S4-C3-C2-C1=290.52            S4-C3-C2-H8= 52.78            S4-C3-C2-H9=169.65            
H10-C3-C2-C1= 52.49           H10-C3-C2-H8=174.75           H10-C3-C2-H9=291.62           H11-C3-C2-C1=173.92           
H11-C3-C2-H8=296.18           H11-C3-C2-H9= 53.05           H12-S4-C3-C2= 69.74           H12-S4-C3-H10=305.69          
H12-S4-C3-H11=190.03          
           -------------------------------------------------
          |                Final Singlepoint                |
           -------------------------------------------------

          ...................................................
          :                      SETUP                      :
          :.................................................:
          :  # basis functions                  30          :
          :  # atomic orbitals                  29          :
          :  # shells                           17          :
          :  # electrons                        26          :
          :  max. iterations                   250          :
          :  Hamiltonian                  GFN2-xTB          :
          :  restarted?                      false          :
          :  GBSA solvation                  false          :
          :  PC potential                    false          :
          :  electronic temp.          300.0000000     K    :
          :  accuracy                    1.0000000          :
          :  -> integral cutoff          0.2500000E+02      :
          :  -> integral neglect         0.1000000E-07      :
          :  -> SCF convergence          0.1000000E-05 Eh   :
          :  -> wf. convergence          0.1000000E-03 e    :
          :  Broyden damping             0.4000000          :
          :  net charge                          0          :
          :  unpaired electrons                  0          :
          ...................................................

 iter      E             dE          RMSdq      gap      omega  full diag
   1    -13.9050790 -0.139051E+02  0.179E-05    4.60       0.0  T
   2    -13.9050790 -0.261124E-12  0.968E-06    4.60    2982.9  T
   3    -13.9050790 -0.266454E-13  0.446E-06    4.60    6477.4  T

   *** convergence criteria satisfied after 3 iterations ***

         #    Occupation            Energy/Eh            Energy/eV
      -------------------------------------------------------------
         1        2.0000           -0.7086174             -19.2825
       ...           ...                  ...                  ...
         7        2.0000           -0.4987525             -13.5717
         8        2.0000           -0.4907808             -13.3548
         9        2.0000           -0.4653261             -12.6622
        10        2.0000           -0.4556406             -12.3986
        11        2.0000           -0.4505129             -12.2591
        12        2.0000           -0.4399115             -11.9706
        13        2.0000           -0.3682489             -10.0206 (HOMO)
        14                         -0.1992923              -5.4230 (LUMO)
        15                         -0.1174667              -3.1964
        16                         -0.0103780              -0.2824
        17                         -0.0084554              -0.2301
        18                          0.0055645               0.1514
       ...                                ...                  ...
        29                          0.5384222              14.6512
      -------------------------------------------------------------
                  HL-Gap            0.1689566 Eh            4.5975 eV
             Fermi-level           -0.2837706 Eh           -7.7218 eV

 SCC (total)                   0 d,  0 h,  0 min,  0.002 sec
 SCC setup                      ...        0 min,  0.000 sec (  1.278%)
 Dispersion                     ...        0 min,  0.000 sec (  0.682%)
 classical contributions        ...        0 min,  0.000 sec (  0.318%)
 integral evaluation            ...        0 min,  0.001 sec ( 21.269%)
 iterations                     ...        0 min,  0.001 sec ( 26.119%)
 molecular gradient             ...        0 min,  0.001 sec ( 48.225%)
 printout                       ...        0 min,  0.000 sec (  1.814%)

         :::::::::::::::::::::::::::::::::::::::::::::::::::::
         ::                     SUMMARY                     ::
         :::::::::::::::::::::::::::::::::::::::::::::::::::::
         :: total energy             -13.742344186414 Eh    ::
         :: gradient norm              0.000015839597 Eh/a0 ::
         :: HOMO-LUMO gap              4.597542636898 eV    ::
         ::.................................................::
         :: SCC energy               -13.905073562974 Eh    ::
         :: -> isotropic ES            0.005841328664 Eh    ::
         :: -> anisotropic ES          0.002417561405 Eh    ::
         :: -> anisotropic XC          0.009362380507 Eh    ::
         :: -> dispersion             -0.006273100057 Eh    ::
         :: repulsion energy           0.162729376560 Eh    ::
         :: add. restraining           0.000000000000 Eh    ::
         :: total charge              -0.000000000000 e     ::
         :::::::::::::::::::::::::::::::::::::::::::::::::::::

           ------------------------------------------------- 
          |                Numerical Hessian                |
           ------------------------------------------------- 
step length          :   0.00500
SCC accuracy         :   0.30000
Hessian scale factor :   1.00000
frozen atoms in %    :   0.00000    0
RMS gradient         :   0.00002
estimated CPU  time      0.00 min
estimated wall time      0.00 min

writing file <hessian>, containing the non-mass-weighted Hessian matrix in atomic units (Eₕ/Bohr²).

 projected vibrational frequencies (cm⁻¹)
eigval :       -0.00    -0.00    -0.00     0.00     0.00     0.00
eigval :       91.52   194.37   244.83   290.53   405.23   674.43
eigval :      737.17   839.16   912.80   933.38  1062.75  1080.40
eigval :     1114.29  1201.92  1245.18  1276.64  1341.71  1415.11
eigval :     1443.52  1477.32  1500.54  1505.96  2442.96  2962.89
eigval :     2979.72  2991.63  3003.03  3027.20  3031.80  3045.68
           -------------------------------------------------
          |                Property Printout                |
           -------------------------------------------------

    * Orbital Energies and Occupations

         #    Occupation            Energy/Eh            Energy/eV
      -------------------------------------------------------------
         1        2.0000           -0.7086174             -19.2825
         2        2.0000           -0.6354957             -17.2927
         3        2.0000           -0.6039765             -16.4350
         4        2.0000           -0.5715645             -15.5531
         5        2.0000           -0.5279062             -14.3651
         6        2.0000           -0.5222758             -14.2118
         7        2.0000           -0.4987526             -13.5717
         8        2.0000           -0.4907808             -13.3548
         9        2.0000           -0.4653261             -12.6622
        10        2.0000           -0.4556406             -12.3986
        11        2.0000           -0.4505129             -12.2591
        12        2.0000           -0.4399115             -11.9706
        13        2.0000           -0.3682489             -10.0206 (HOMO)
        14                         -0.1992923              -5.4230 (LUMO)
        15                         -0.1174668              -3.1964
        16                         -0.0103780              -0.2824
        17                         -0.0084554              -0.2301
        18                          0.0055645               0.1514
        19                          0.0857217               2.3326
        20                          0.1161451               3.1605
        21                          0.1383635               3.7651
        22                          0.1584012               4.3103
        23                          0.1682467               4.5782
        24                          0.1857807               5.0554
       ...                                ...                  ...
        29                          0.5384222              14.6512
      -------------------------------------------------------------
                  HL-Gap            0.1689566 Eh            4.5975 eV
             Fermi-level           -0.2837706 Eh           -7.7218 eV

     #   Z          covCN         q      C6AA      α(0)
     1   6          3.752    -0.101    22.497     6.764
     2   6          3.820    -0.053    21.505     6.600
     3   6          3.795     0.003    20.529     6.452
     4  16          1.913    -0.297   153.912    20.881
     5   1          0.925     0.040     2.443     2.444
     6   1          0.925     0.039     2.468     2.457
     7   1          0.925     0.034     2.525     2.485
     8   1          0.924     0.047     2.361     2.403
     9   1          0.924     0.036     2.498     2.472
    10   1          0.925     0.044     2.403     2.424
    11   1          0.925     0.048     2.350     2.398
    12   1          0.923     0.160     1.326     1.801

 Mol. C6AA /au·bohr⁶  :       1466.856858
 Mol. C8AA /au·bohr⁸  :      41245.014140
 Mol. α(0) /au        :         59.578736


Wiberg/Mayer (AO) data.
largest (>0.10) Wiberg bond orders for each atom

 ---------------------------------------------------------------------------
     #   Z sym  total        # sym  WBO       # sym  WBO       # sym  WBO
 ---------------------------------------------------------------------------
     1   6      3.997 --     2      1.021     7      0.987     6      0.986
                             5      0.984
     2   6      3.996 --     1      1.021     3      1.013     8      0.977
                             9      0.970
     3   6      3.976 --     2      1.013     4      0.993    10      0.977
                            11      0.974
     4  16      2.012 --     3      0.993    12      0.961
     5   1      0.998 --     1      0.984
     6   1      0.999 --     1      0.986
     7   1      0.999 --     1      0.987
     8   1      0.998 --     2      0.977
     9   1      0.999 --     2      0.970
    10   1      0.998 --     3      0.977
    11   1      0.998 --     3      0.974
    12   1      0.974 --     4      0.961
 ---------------------------------------------------------------------------

Topologies differ in total number of bonds
Writing topology from bond orders to xtbtopo.mol

molecular dipole:
                 x           y           z       tot (Debye)
 q only:       -0.675       0.209      -0.043
   full:       -0.918       0.379       0.029       2.526
molecular quadrupole (traceless):
                xx          xy          yy          xz          yz          zz
 q only:       -2.348       0.648       0.163      -0.066       0.286       2.186
  q+dip:       -4.219       1.129       1.276       0.672      -0.225       2.942
   full:       -3.929       0.813       0.500       0.635       0.167       3.429

           -------------------------------------------------
          |                Geometry Summary                 |
           -------------------------------------------------

      molecular mass/u    :       76.1605211
   center of mass at/Å    :       -0.0004645      -0.0002766      -0.0006807
  moments of inertia/u·Å² :        0.4323138E+02   0.1561772E+03   0.1803912E+03
rotational constants/cm⁻¹ :        0.3899397E+00   0.1079392E+00   0.9345043E-01

 * 10 selected distances

     #   Z          #   Z                                           value/Å
     1   6          2   6                                         1.5236540 (max)
     2   6          3   6                                         1.5220444
     1   6          5   1                                         1.0879646
     1   6          6   1                                         1.0870420 (min)
     1   6          7   1                                         1.0885554
     2   6          8   1                                         1.0918257
     2   6          9   1                                         1.0932477
     3   6         10   1                                         1.0899868
     3   6         11   1                                         1.0898632
     4  16         12   1                                         1.3303692

 * 3 distinct bonds (by element types)

   Z      Z             #   av. dist./Å        max./Å        min./Å
   1 H    6 C           7     1.0897836     1.0932477     1.0870420
   6 C    6 C           2     1.5228492     1.5236540     1.5220444
   1 H   16 S           1     1.3303692     1.3303692     1.3303692

           -------------------------------------------------
          |               Frequency Printout                |
           -------------------------------------------------
 projected vibrational frequencies (cm⁻¹)
eigval :       -0.00    -0.00    -0.00     0.00     0.00     0.00
eigval :       91.52   194.37   244.83   290.53   405.23   674.43
eigval :      737.17   839.16   912.80   933.38  1062.75  1080.40
eigval :     1114.29  1201.92  1245.18  1276.64  1341.71  1415.11
eigval :     1443.52  1477.32  1500.54  1505.96  2442.96  2962.89
eigval :     2979.72  2991.63  3003.03  3027.20  3031.80  3045.68
 reduced masses (amu)
    1:      4.15    2:      7.81    3:      3.64    4:      2.26    5:      5.34    6:      9.89
    7:      1.91    8:      1.12    9:      1.47   10:      1.70   11:      2.26   12:      4.16
   13:      1.10   14:      1.21   15:      1.36   16:      2.13   17:      1.26   18:      1.46
   19:      2.64   20:      1.36   21:      1.23   22:      1.19   23:      1.45   24:      1.23
   25:      1.09   26:      1.09   27:      1.06   28:      1.05   29:      1.04   30:      1.08
   31:      1.07   32:      1.07   33:      1.07   34:      1.08   35:      1.08   36:      1.06
 IR intensities (km·mol⁻¹)
    1:      0.77    2:      0.20    3:      0.92    4:      1.34    5:      0.22    6:      0.49
    7:      5.66    8:     22.65    9:     13.80   10:      7.73   11:      1.55   12:      1.22
   13:     10.08   14:      6.16   15:      7.48   16:      5.37   17:      1.01   18:      2.51
   19:      0.64   20:      3.55   21:      1.05   22:     18.67   23:      1.64   24:      5.59
   25:      0.93   26:      1.48   27:      2.24   28:      5.25   29:    124.05   30:     32.81
   31:      4.59   32:     26.34   33:     15.58   34:     44.96   35:     41.28   36:     25.62
 Raman intensities (Ä⁴*amu⁻¹)
    1:      0.00    2:      0.00    3:      0.00    4:      0.00    5:      0.00    6:      0.00
Molecule has no symmetry elements
It seems to be the C1 point group
    7:      0.00    8:      0.00    9:      0.00   10:      0.00   11:      0.00   12:      0.00
   13:      0.00   14:      0.00   15:      0.00   16:      0.00   17:      0.00   18:      0.00
   19:      0.00   20:      0.00   21:      0.00   22:      0.00   23:      0.00   24:      0.00
   25:      0.00   26:      0.00   27:      0.00   28:      0.00   29:      0.00   30:      0.00
   31:      0.00   32:      0.00   33:      0.00   34:      0.00   35:      0.00   36:      0.00
 output can be read by thermo (or use thermo option).
 writing <g98.out> molden fake output.
 recommended (thermochemical) frequency scaling factor: 1.0
           -------------------------------------------------
          |             Thermodynamic Functions             |
           -------------------------------------------------

c1  symmetry found (for desy threshold:  0.10E+00) used in thermo

          ...................................................
          :                      SETUP                      :
          :.................................................:
          :  # frequencies                          30      :
          :  # imaginary freq.                       0      :
          :  linear?                             false      :
          :  only rotor calc.                    false      :
          :  symmetry                               c1      :
          :  rotational number                       1      :
          :  scaling factor                  1.0000000      :
          :  rotor cutoff                    0.0000000 cm⁻¹ :
          :  imag. cutoff                 -100.0000000 cm⁻¹ :
          :.................................................:

    mode    ω/cm⁻¹     T·S(HO)/kcal·mol⁻¹    T·S(FR)/kcal·mol⁻¹   T·S(vib)
   ------------------------------------------------------------------------
       1     91.52    -1.08148 (100.00%)    -0.87703 (  0.00%)    -1.08148
       2    194.37    -0.65167 (100.00%)    -0.65412 (  0.00%)    -0.65167
       3    244.83    -0.52699 (100.00%)    -0.58580 (  0.00%)    -0.52699
       4    290.53    -0.43854 (100.00%)    -0.53512 (  0.00%)    -0.43854
   ------------------------------------------------------------------------

   temp. (K)  partition function   enthalpy   heat capacity  entropy
                                   cal/mol     cal/K/mol   cal/K/mol   J/K/mol
 298.15  VIB   11.8                 1945.107     13.863     11.426
         ROT  0.843E+05              888.727      2.981     25.520
         INT  0.994E+06             2833.835     16.844     36.946
         TR   0.203E+26             1481.212      4.968     38.906
         TOT                        4315.0469    21.8116    75.8524   317.3662

       T/K    H(0)-H(T)+PV         H(T)/Eh          T*S/Eh         G(T)/Eh
   ------------------------------------------------------------------------
    298.15    0.687646E-02    0.108195E+00    0.360399E-01    0.721550E-01
   ------------------------------------------------------------------------

         :::::::::::::::::::::::::::::::::::::::::::::::::::::
         ::                  THERMODYNAMIC                  ::
         :::::::::::::::::::::::::::::::::::::::::::::::::::::
         :: total free energy         -13.670189166412 Eh   ::
         ::.................................................::
         :: total energy              -13.742344186414 Eh   ::
         :: zero point energy           0.101318455433 Eh   ::
         :: G(RRHO) w/o ZPVE           -0.029163435430 Eh   ::
         :: G(RRHO) contrib.            0.072155020002 Eh   ::
         :::::::::::::::::::::::::::::::::::::::::::::::::::::

optimized geometry written to: xtbopt.coord


           -------------------------------------------------
          | TOTAL ENERGY              -13.742344186414 Eh   |
          | TOTAL ENTHALPY            -13.634149266034 Eh   |
          | TOTAL FREE ENERGY         -13.670189166412 Eh   |
          | GRADIENT NORM               0.000015840131 Eh/α |
          | HOMO-LUMO GAP               4.597542361253 eV   |
           -------------------------------------------------

------------------------------------------------------------------------
 * finished run on 2025/04/09 at 01:47:52.505     
------------------------------------------------------------------------
 total:
 * wall-time:     0 d,  0 h,  0 min,  0.257 sec
 *  cpu-time:     0 d,  0 h,  0 min,  0.255 sec
 * ratio c/w:     0.992 speedup
 SCF:
 * wall-time:     0 d,  0 h,  0 min,  0.004 sec
 *  cpu-time:     0 d,  0 h,  0 min,  0.004 sec
 * ratio c/w:     0.972 speedup
 ANC optimizer:
 * wall-time:     0 d,  0 h,  0 min,  0.053 sec
 *  cpu-time:     0 d,  0 h,  0 min,  0.052 sec
 * ratio c/w:     0.991 speedup
 analytical hessian:
 * wall-time:     0 d,  0 h,  0 min,  0.195 sec
 *  cpu-time:     0 d,  0 h,  0 min,  0.194 sec
 * ratio c/w:     0.993 speedup

