
                                 *****************
                                 * O   R   C   A *
                                 *****************

                                            #,                                       
                                            ###                                      
                                            ####                                     
                                            #####                                    
                                            ######                                   
                                           ########,                                 
                                     ,,################,,,,,                         
                               ,,#################################,,                 
                          ,,##########################################,,             
                       ,#########################################, ''#####,          
                    ,#############################################,,   '####,        
                  ,##################################################,,,,####,       
                ,###########''''           ''''###############################       
              ,#####''   ,,,,##########,,,,          '''####'''          '####       
            ,##' ,,,,###########################,,,                        '##       
           ' ,,###''''                  '''############,,,                           
         ,,##''                                '''############,,,,        ,,,,,,###''
      ,#''                                            '''#######################'''  
     '                                                          ''''####''''         
             ,#######,   #######,   ,#######,      ##                                
            ,#'     '#,  ##    ##  ,#'     '#,    #''#        ,####,   ,####,        
            ##       ##  ##   ,#'  ##            #'  '#       #'       #'  '#        
            ##       ##  #######   ##           ,######,      #####,   #    #        
            '#,     ,#'  ##    ##  '#,     ,#' ,#      #,     #,   #   #,  ,#        
             '#######'   ##     ##  '#######'  #'      '#     '####' # '####'        



                #########################################################
                #                        -***-                          #
                #          Department of theory and spectroscopy        #
                #                                                       #
                #                      Frank Neese                      #
                #                                                       #
                #     Directorship, Architecture, Infrastructure        #
                #                    SHARK, DRIVERS                     #
                #        Core code/Algorithms in most modules           #
                #                                                       #
                #        Max Planck Institute fuer Kohlenforschung      #
                #                Kaiser Wilhelm Platz 1                 #
                #                 D-45470 Muelheim/Ruhr                 #
                #                      Germany                          #
                #                                                       #
                #                  All rights reserved                  #
                #                        -***-                          #
                #########################################################


                         Program Version 6.0.1  -  RELEASE   -


 With contributions from (in alphabetic order):
[Max-Planck-Institut fuer Kohlenforschung]                               
  Daniel Aravena         : Magnetic Suceptibility                        
  Michael Atanasov       : Ab Initio Ligand Field Theory (pilot matlab implementation)
  Alexander A. Auer      : GIAO ZORA, VPT2 properties, NMR spectrum      
  Ute Becker             : All parallelization in ORCA, NUMFREQ, NUMCALC 
  Giovanni Bistoni       : ED, misc. LED, open-shell LED, HFLD           
  Martin Brehm           : Molecular dynamics                            
  Dmytro Bykov           : pre 5.0 version of the SCF Hessian            
  Marcos Casanova-Páez   : Triplet and SCS-CIS(D). UHF-(DLPNO)-IP/EA/STEOM-CCSD. UHF-CVS-IP/STEOM-CCSD   
  Vijay G. Chilkuri      : MRCI spin determinant printing, contributions to CSF-ICE 
  Pauline Colinet        : FMM embedding                                 
  Dipayan Datta          : RHF DLPNO-CCSD density                        
  Achintya Kumar Dutta   : EOM-CC, STEOM-CC                              
  Nicolas Foglia         : Exact transition moments, OPA infrastructure, MCD improvements    
  Dmitry Ganyushin       : Spin-Orbit,Spin-Spin,Magnetic field MRCI      
  Miquel Garcia-Rates    : C-PCM and meta-GGA Hessian, CCSD/C-PCM, Gaussian charge scheme 
  Tiago L. C. Gouveia    : GS-ROHF, GS-ROCIS                             
  Yang Guo               : DLPNO-NEVPT2, F12-NEVPT2, CIM, IAO-localization        
  Andreas Hansen         : Spin unrestricted coupled pair/coupled cluster methods 
  Ingolf Harden          : AUTO-CI MPn and infrastructure                
  Benjamin Helmich-Paris : MC-RPA, TRAH-(SCF,CASSCF), AVAS, COSX integrals, SCF dyn. polar. 
  Lee Huntington         : MR-EOM, pCC                                   
  Robert Izsak           : Overlap fitted RIJCOSX, COSX-SCS-MP3, EOM     
  Riya Kayal             : Wick's Theorem for AUTO-CI, AUTO-CI UHF-CCSDT 
  Emily Kempfer          : AUTO-CI, RHF CISDT and CCSDT                  
  Christian Kollmar      : KDIIS, OOCD, Brueckner-CCSD(T), CCSD density, CASPT2, CASPT2-K, improved NEVPT2 
  Axel Koslowski         : Symmetry handling                             
  Simone Kossmann        : meta-GGA functionals, TD-DFT gradient, OOMP2, (MP2 Hessian; deprecated post 5.0) 
  Lucas Lang             : DCDCAS                                        
  Marvin Lechner         : AUTO-CI (C++ implementation), FIC-MRCC        
  Spencer Leger          : CASSCF response                               
  Dagmar Lenk            : GEPOL surface, SMD, ORCA-2-JSON               
  Dimitrios Liakos       : Extrapolation schemes; Compound Job, initial MDCI parallelization 
  Dimitrios Manganas     : Further ROCIS development; embedding schemes. LFT, Crystal Embedding 
  Dimitrios Pantazis     : SARC Basis sets                               
  Anastasios Papadopoulos: AUTO-CI, single reference methods and gradients 
  Taras Petrenko         : pre 6.0 DFT Hessian and TD-DFT gradient, (ASA, deprecated), ECA, 1-Electron XAS/XES, NRVS 
  Peter Pinski           : DLPNO-MP2, DLPNO-MP2 Gradient                 
  Christoph Reimann      : Effective Core Potentials                     
  Marius Retegan         : Local ZFS, SOC                                
  Christoph Riplinger    : Optimizer, TS searches, QM/MM, DLPNO-CCSD(T), (RO)-DLPNO pert. Triples 
  Michael Roemelt        : Original ROCIS implementation                 
  Masaaki Saitow         : Open-shell DLPNO-CCSD energy and density      
  Barbara Sandhoefer     : DKH picture change effects                    
  Kantharuban Sivalingam : CASSCF convergence/infrastructure, NEVPT2 and variants, FIC-MRCI 
  Bernardo de Souza      : ESD, SOC TD-DFT                               
  Georgi L. Stoychev     : AutoAux, RI-MP2 NMR, DLPNO-MP2 response, X2C  
  Van Anh Tran           : RI-MP2 g-tensors                              
  Willem Van den Heuvel  : Paramagnetic NMR                              
  Zikuan Wang            : NOTCH, Electric field optimization            
  Frank Wennmohs         : Technical directorship and infrastructure     
  Hang Xu                : AUTO-CI-Response properties                   
                                                                         
[FACCTs GmbH]                                                            
  Markus Bursch, Miquel Garcia-Rates, Christoph Riplinger, Bernardo de Souza, Georgi L. Stoychev 
                                                                 
  APM, Basis sets (HGBS, AHGBS, def-TZVP (Ac-Lr), def2-XVPD (La-Lu)), CI-OPT, improved COSX, DLPNO-Multilevel,           
  DOCKER, DRACO, updates on ESD, GOAT, IRC, LR-CPCM, MBIS, meta-GGA TD-DFT gradient, ML-optimized integration grids, 
  MM, NACMEs, nearIR, NEB, NEB-TS, NL-DFT gradient (VV10), 2- and 3-layer-ONIOM, interface openCOSMO-RS, QMMM,   
  Crystal-QMMM, SF, symmetry and pop. for TD-DFT, r2SCAN hybrids, SOLVATOR                                   
                                                                         
[Other institutions]                                                     
  V. Asgeirsson          : NEB                                           
  Christoph Bannwarth    : sTDA-DFT, sTD-DFT, PBEh-3c, B97-3c, D3        
  Sebastian Ehlert       : rSCAN, r2SCAN, r2SCAN-3c, D4, dhf basis sets  
  Marvin Friede          : D4 for Fr, Ra, Ac-Lr                          
  Lars Goerigk           : TD-DFT with DH, B97 family of functionals     
  Stefan Grimme          : VdW corrections, initial TS optimization, DFT functionals, gCP, sTDA/sTD-DF 
  Waldemar Hujo          : DFT-NL                                        
  H. Jonsson             : NEB                                           
  Holger Kruse           : gCP                                           
  Marcel Mueller         : wB97X-3c, vDZP basis set                      
  Hagen Neugebauer       : wr2SCAN                                       
  Tobias Risthaus        : range-separated hybrid DFT                    
  Lukas Wittmann         : regularized MP2, r2SCAN double-hybrids, wr2SCAN        
                                                                         
We gratefully acknowledge several colleagues who have allowed us to      
interface, adapt or use parts of their codes:                            
  Ed Valeev, F. Pavosevic, A. Kumar             : LibInt (2-el integral package), F12 methods 
  Garnet Chan, S. Sharma, J. Yang, R. Olivares  : DMRG                   
  Ulf Ekstrom                                   : XCFun DFT Library      
  Mihaly Kallay                                 : mrcc  (arbitrary order and MRCC methods)
  Frank Weinhold                                : gennbo (NPA and NBO analysis)           
  Simon Mueller                                 : openCOSMO-RS                            
  Christopher J. Cramer and Donald G. Truhlar   : smd solvation model                     
  S Lehtola, MJT Oliveira, MAL Marques          : LibXC Library                           
  Liviu Ungur et al                             : ANISO software                          


 Your calculation uses the libint2 library for the computation of 2-el integrals
 For citations please refer to: http://libint.valeyev.net

 Your ORCA version has been built with support for libXC version: 6.2.2
 For citations please refer to: https://libxc.gitlab.io

 This ORCA versions uses:
   CBLAS   interface :  Fast vector & matrix operations
   LAPACKE interface :  Fast linear algebra routines
   SCALAPACK package :  Parallel linear algebra routines
   Shared memory     :  Shared parallel matrices
   BLAS/LAPACK       :  OpenBLAS 0.3.27  USE64BITINT DYNAMIC_ARCH NO_AFFINITY Zen SINGLE_THREADED
        Core in use  :  Zen
   Copyright (c) 2011-2014, The OpenBLAS Project


Your calculation utilizes the geometrical counterpoise correction gCP
Please cite in your paper:
H.Kruse, S. Grimme J.Chem.Phys., 136, (2012), 154101 
   

Your calculation utilizes the atom-pairwise dispersion correction
based on EEQ partial charges (D4)


================================================================================

----- Orbital basis set information -----
Your calculation utilizes the basis: def2-mTZVPP
   Stefan Grimme, Andreas Hansen, Sebastian Ehlert, and Jan-Michael Mewes 
   J. Chem. Phys. 154, 064103 (2021). DOI: 10.1063/5.0040021

----- AuxJ basis set information -----
Your calculation utilizes the auxiliary basis: def2/J
   F. Weigend, Phys. Chem. Chem. Phys. 8, 1057 (2006).

================================================================================
                                        WARNINGS
                       Please study these warnings very carefully!
================================================================================



WARNING: SCAN, rSCAN, or r2SCAN functional requested.
  ===> : libXC variant has now been activated.



================================================================================
                                       INPUT FILE
================================================================================
NAME = sp.inp
|  1> ! r2scan-3c def2/J RI DEFGRID2 scfconv6 printgap
|  2> %output
|  3>     printlevel normal
|  4> end
|  5> * xyz 0 1
|  6> C -2.5608674364 0.6225142244 0.0001686588
|  7> C -1.225776805 -0.0575978717 3.86805e-05
|  8> C -1.1491640545 -1.4446284688 -8.5351e-06
|  9> C 0.0756663889 -2.0833344162 -9.22892e-05
| 10> C 1.2400414585 -1.3387431535 -1.21912e-05
| 11> C 1.1768751546 0.0480526559 -8.8604e-06
| 12> C -0.0572801191 0.7034574026 -7.98265e-05
| 13> C -0.1075705006 2.2012964099 -0.0001895747
| 14> O 2.3178584625 0.8022364212 0.0001550985
| 15> H -2.6684822499 1.2557910156 -0.8798056559
| 16> H -3.3651488883 -0.1085822962 0.0015179617
| 17> H -2.6673221791 1.2578060086 0.8788153855
| 18> H -2.0582922591 -2.0279281042 -8.03896e-05
| 19> H 0.1279599902 -3.1618263222 -0.0003069295
| 20> H 2.204596798 -1.8303973339 -3.4721e-06
| 21> H -0.6349753372 2.5664620069 -0.8807973876
| 22> H -0.6343357815 2.5668952876 0.8806776689
| 23> H 0.8991776499 2.6067648525 -0.0007109295
| 24> H 3.0832148699 0.2159574664 0.0004236761
| 25> *
| 26> 
| 27>                          ****END OF INPUT****
================================================================================

                       ****************************
                       * Single Point Calculation *
                       ****************************

---------------------------------
CARTESIAN COORDINATES (ANGSTROEM)
---------------------------------
  C     -2.560867    0.622514    0.000169
  C     -1.225777   -0.057598    0.000039
  C     -1.149164   -1.444628   -0.000009
  C      0.075666   -2.083334   -0.000092
  C      1.240041   -1.338743   -0.000012
  C      1.176875    0.048053   -0.000009
  C     -0.057280    0.703457   -0.000080
  C     -0.107571    2.201296   -0.000190
  O      2.317858    0.802236    0.000155
  H     -2.668482    1.255791   -0.879806
  H     -3.365149   -0.108582    0.001518
  H     -2.667322    1.257806    0.878815
  H     -2.058292   -2.027928   -0.000080
  H      0.127960   -3.161826   -0.000307
  H      2.204597   -1.830397   -0.000003
  H     -0.634975    2.566462   -0.880797
  H     -0.634336    2.566895    0.880678
  H      0.899178    2.606765   -0.000711
  H      3.083215    0.215957    0.000424

----------------------------
CARTESIAN COORDINATES (A.U.)
----------------------------
  NO LB      ZA    FRAG     MASS         X           Y           Z
   0 C     6.0000    0    12.011   -4.839338    1.176381    0.000319
   1 C     6.0000    0    12.011   -2.316382   -0.108844    0.000073
   2 C     6.0000    0    12.011   -2.171605   -2.729952   -0.000016
   3 C     6.0000    0    12.011    0.142989   -3.936931   -0.000174
   4 C     6.0000    0    12.011    2.343339   -2.529858   -0.000023
   5 C     6.0000    0    12.011    2.223972    0.090806   -0.000017
   6 C     6.0000    0    12.011   -0.108244    1.329342   -0.000151
   7 C     6.0000    0    12.011   -0.203279    4.159847   -0.000358
   8 O     8.0000    0    15.999    4.380118    1.516007    0.000293
   9 H     1.0000    0     1.008   -5.042701    2.373101   -1.662592
  10 H     1.0000    0     1.008   -6.359210   -0.205191    0.002869
  11 H     1.0000    0     1.008   -5.040508    2.376909    1.660720
  12 H     1.0000    0     1.008   -3.889609   -3.832229   -0.000152
  13 H     1.0000    0     1.008    0.241809   -5.974986   -0.000580
  14 H     1.0000    0     1.008    4.166084   -3.458950   -0.000007
  15 H     1.0000    0     1.008   -1.199929    4.849910   -1.664466
  16 H     1.0000    0     1.008   -1.198721    4.850729    1.664240
  17 H     1.0000    0     1.008    1.699200    4.926072   -0.001343
  18 H     1.0000    0     1.008    5.826432    0.408100    0.000801

--------------------------------
INTERNAL COORDINATES (ANGSTROEM)
--------------------------------
 C      0   0   0     0.000000000000     0.00000000     0.00000000
 C      1   0   0     1.498338904990     0.00000000     0.00000000
 C      2   1   0     1.389144842362   120.15639487     0.00000000
 C      3   2   1     1.381359804446   120.70197944   180.00173300
 C      4   3   2     1.382094590689   119.86155862     0.00000000
 C      5   4   3     1.388233625486   119.99005871     0.00000000
 C      2   1   3     1.394485442571   119.92847110   179.99787846
 C      7   2   1     1.498683030632   121.15365898     0.00000000
 O      6   5   4     1.367711990015   120.85655910   179.99583559
 H      1   2   3     1.089483931451   110.59656405   239.64129900
 H      1   2   3     1.086909654443   110.73409993     0.07353643
 H      1   2   3     1.089471584602   110.59869053   120.50958369
 H      3   2   1     1.080163210918   119.52283926     0.00000000
 H      4   3   2     1.079758981493   120.31642181   180.01096042
 H      5   4   3     1.082631440583   120.39311628   179.99550045
 H      8   7   2     1.089482397766   110.56612289   300.31066331
 H      8   7   2     1.089528017714   110.58109546    59.72367676
 H      8   7   2     1.085332561149   110.01414122   180.02461023
 H      9   6   5     0.964102440264   109.08264716     0.00000000

---------------------------
INTERNAL COORDINATES (A.U.)
---------------------------
 C      0   0   0     0.000000000000     0.00000000     0.00000000
 C      1   0   0     2.831450186231     0.00000000     0.00000000
 C      2   1   0     2.625103312413   120.15639487     0.00000000
 C      3   2   1     2.610391722809   120.70197944   180.00173300
 C      4   3   2     2.611780267576   119.86155862     0.00000000
 C      5   4   3     2.623381362068   119.99005871     0.00000000
 C      2   1   3     2.635195584200   119.92847110   179.99787846
 C      7   2   1     2.832100489450   121.15365898     0.00000000
 O      6   5   4     2.584601091209   120.85655910   179.99583559
 H      1   2   3     2.058826257749   110.59656405   239.64129900
 H      1   2   3     2.053961579213   110.73409993     0.07353643
 H      1   2   3     2.058802925588   110.59869053   120.50958369
 H      3   2   1     2.041212648571   119.52283926     0.00000000
 H      4   3   2     2.040448765664   120.31642181   180.01096042
 H      5   4   3     2.045876926674   120.39311628   179.99550045
 H      8   7   2     2.058823359506   110.56612289   300.31066331
 H      8   7   2     2.058909568714   110.58109546    59.72367676
 H      8   7   2     2.050981304799   110.01414122   180.02461023
 H      9   6   5     1.821889577145   109.08264716     0.00000000

---------------------
BASIS SET INFORMATION
---------------------
There are 3 groups of distinct atoms

 Group   1 Type C   : 11s6p1d contracted to 5s3p1d pattern {62111/411/1}
 Group   2 Type O   : 11s6p2d contracted to 5s3p2d pattern {62111/411/11}
 Group   3 Type H   : 4s1p contracted to 2s1p pattern {31/1}

Atom   0C    basis set group =>   1
Atom   1C    basis set group =>   1
Atom   2C    basis set group =>   1
Atom   3C    basis set group =>   1
Atom   4C    basis set group =>   1
Atom   5C    basis set group =>   1
Atom   6C    basis set group =>   1
Atom   7C    basis set group =>   1
Atom   8O    basis set group =>   2
Atom   9H    basis set group =>   3
Atom  10H    basis set group =>   3
Atom  11H    basis set group =>   3
Atom  12H    basis set group =>   3
Atom  13H    basis set group =>   3
Atom  14H    basis set group =>   3
Atom  15H    basis set group =>   3
Atom  16H    basis set group =>   3
Atom  17H    basis set group =>   3
Atom  18H    basis set group =>   3
---------------------------------
AUXILIARY/J BASIS SET INFORMATION
---------------------------------
There are 3 groups of distinct atoms

 Group   1 Type C   : 12s5p4d2f1g contracted to 6s4p3d1f1g pattern {711111/2111/211/2/1}
 Group   2 Type O   : 12s5p4d2f1g contracted to 6s4p3d1f1g pattern {711111/2111/211/2/1}
 Group   3 Type H   : 5s2p1d contracted to 3s1p1d pattern {311/2/1}

Atom   0C    basis set group =>   1
Atom   1C    basis set group =>   1
Atom   2C    basis set group =>   1
Atom   3C    basis set group =>   1
Atom   4C    basis set group =>   1
Atom   5C    basis set group =>   1
Atom   6C    basis set group =>   1
Atom   7C    basis set group =>   1
Atom   8O    basis set group =>   2
Atom   9H    basis set group =>   3
Atom  10H    basis set group =>   3
Atom  11H    basis set group =>   3
Atom  12H    basis set group =>   3
Atom  13H    basis set group =>   3
Atom  14H    basis set group =>   3
Atom  15H    basis set group =>   3
Atom  16H    basis set group =>   3
Atom  17H    basis set group =>   3
Atom  18H    basis set group =>   3

Checking for AutoStart:
The File: sp.gbw exists
Trying to determine its content:
     ... Fine, the file contains calculation information
     ... Fine, the calculation information was read
     ... Fine, the file contains a basis set
     ... Fine, the basis set was read
     ... Fine, the file contains a geometry
     ... Fine, the geometry was read
     ... Fine, the file contains a set of orbitals
     ... Fine, the orbitals can be read
     => possible old guess file was deleted
     => GBW file was renamed to GES file
     => GES file is set as startup file
     => Guess is set to MORead
     ... now leaving AutoStart

------------------------------------------------------------------------------
                             ORCA STARTUP CALCULATIONS
                           -- RI-GTO INTEGRALS CHOSEN --
------------------------------------------------------------------------------
------------------------------------------------------------------------------
                   ___                                                        
                  /   \      - P O W E R E D   B Y -                         
                 /     \                                                     
                 |  |  |   _    _      __       _____    __    __             
                 |  |  |  | |  | |    /  \     |  _  \  |  |  /  |          
                  \  \/   | |  | |   /    \    | | | |  |  | /  /          
                 / \  \   | |__| |  /  /\  \   | |_| |  |  |/  /          
                |  |  |   |  __  | /  /__\  \  |    /   |      \           
                |  |  |   | |  | | |   __   |  |    \   |  |\   \          
                \     /   | |  | | |  |  |  |  | |\  \  |  | \   \       
                 \___/    |_|  |_| |__|  |__|  |_| \__\ |__|  \__/        
                                                                              
                      - O R C A' S   B I G   F R I E N D -                    
                                      &                                       
                       - I N T E G R A L  F E E D E R -                       
                                                                              
 v1 FN, 2020, v2 2021, v3 2022-2024                                           
------------------------------------------------------------------------------


----------------------
SHARK INTEGRAL PACKAGE
----------------------

Number of atoms                             ...     19
Number of basis functions                   ...    226
Number of shells                            ...    112
Maximum angular momentum                    ...      2
Integral batch strategy                     ... SHARK/LIBINT Hybrid
RI-J (if used) integral strategy            ... SPLIT-RIJ (Revised 2003 algorithm where possible)
Printlevel                                  ...      1
Contraction scheme used                     ... SEGMENTED contraction
Prescreening option                         ... SCHWARTZ
   Thresh                                   ... 1.000e-10
   Tcut                                     ... 1.000e-11
   Tpresel                                  ... 1.000e-11 
Coulomb Range Separation                    ... NOT USED
Exchange Range Separation                   ... NOT USED
Multipole approximations                    ... NOT USED
Finite Nucleus Model                        ... NOT USED
CABS basis                                  ... NOT available
Auxiliary Coulomb fitting basis             ... AVAILABLE
   # of basis functions in Aux-J            ...    551
   # of shells in Aux-J                     ...    185
   Maximum angular momentum in Aux-J        ...      4
Auxiliary J/K fitting basis                 ... NOT available
Auxiliary Correlation fitting basis         ... NOT available
Auxiliary 'external' fitting basis          ... NOT available

Checking pre-screening integrals            ... done (  0.0 sec) Dimension = 112
Check shell pair data                       ... done (  0.0 sec)
Shell pair information
Shell pair cut-off parameter TPreSel        ...   1.0e-11
Total number of shell pairs                 ...      6328
Shell pairs after pre-screening             ...      5666
Total number of primitive shell pairs       ...     23019
Primitive shell pairs kept                  ...     14522
          la=0 lb=0:   1872 shell pairs
          la=1 lb=0:   2157 shell pairs
          la=1 lb=1:    648 shell pairs
          la=2 lb=0:    592 shell pairs
          la=2 lb=1:    343 shell pairs
          la=2 lb=2:     54 shell pairs

Calculating one electron integrals          ... done (  0.0 sec)
Calculating RI/J V-Matrix + Cholesky decomp.... done (  0.0 sec)
Calculating Nuclear repulsion               ... done (  0.0 sec) ENN=    433.261404320588 Eh

Diagonalization of the overlap matrix:
Smallest eigenvalue                        ... 1.820e-05
Time for diagonalization                   ...    0.003 sec
Threshold for overlap eigenvalues          ... 1.000e-07
Number of eigenvalues below threshold      ... 0
Time for construction of square roots      ...    0.001 sec
Total time needed                          ...    0.006 sec

-------------------
DFT GRID GENERATION
-------------------

General Integration Accuracy     IntAcc      ... 4.388
Radial Grid Type                 RadialGrid  ... OptM3 with GC (2021)
Angular Grid (max. ang.)         AngularGrid ... 4 (Lebedev-302)
Angular grid pruning method      GridPruning ... 4 (adaptive)
Weight generation scheme         WeightScheme... mBecke (2022)
Basis function cutoff            BFCut       ... 1.0000e-10
Integration weight cutoff        WCut        ... 1.0000e-14
Partially contracted basis set               ... off
Rotationally invariant grid construction     ... off
Angular grids for H and He will be reduced by one unit
Diffuse basis detected: some atoms will have their outermost
                        angular grid increased by 1.

Total number of grid points                  ...    86376
Total number of batches                      ...     1362
Average number of points per batch           ...       63
Average number of grid points per atom       ...     4546
Initializing property integral containers    ... done (  0.0 sec)

SHARK setup successfully completed in   0.6 seconds

Maximum memory used throughout the entire STARTUP-calculation: 39.7 MB
-------------------------------------------------------------------------------
                                 ORCA GUESS
                   Start orbitals & Density for SCF / CASSCF
-------------------------------------------------------------------------------

------------
SCF SETTINGS
------------
Hamiltonian:
 Density Functional     Method          .... DFT(GTOs)
  Functional kind                       .... Exchange
  Functional name                       .... Re-regularized SCAN exchange by Furness et al
  Functional family                     .... MGGA
  Functional refs                              
    [ 0] J. W. Furness, A. D. Kaplan, J. Ning, J. P. Perdew, and J. Sun.,  J. Phys. Chem. Lett. 11, 8208-8215 (2020), doi: 10.1021/acs.jpclett.0c02405
    [ 1] J. W. Furness, A. D. Kaplan, J. Ning, J. P. Perdew, and J. Sun.,  J. Phys. Chem. Lett. 11, 9248-9248 (2020), doi: 10.1021/acs.jpclett.0c03077
  Functional external parameters        .... 6
    Parameter  0 _c1        =  6.670000e-01 : c1 parameter        
    Parameter  1 _c2        =  8.000000e-01 : c2 parameter        
    Parameter  2 _d         =  1.240000e+00 : d parameter         
    Parameter  3 _k1        =  6.500000e-02 : k1 parameter        
    Parameter  4 _eta       =  1.000000e-03 : eta parameter       
    Parameter  5 _dp2       =  3.610000e-01 : dp2 parameter       
  Functional kind                       .... Correlation
  Functional name                       .... Re-regularized SCAN correlation by Furness et al
  Functional family                     .... MGGA
  Functional refs                              
    [ 0] J. W. Furness, A. D. Kaplan, J. Ning, J. P. Perdew, and J. Sun.,  J. Phys. Chem. Lett. 11, 8208-8215 (2020), doi: 10.1021/acs.jpclett.0c02405
    [ 1] J. W. Furness, A. D. Kaplan, J. Ning, J. P. Perdew, and J. Sun.,  J. Phys. Chem. Lett. 11, 9248-9248 (2020), doi: 10.1021/acs.jpclett.0c03077
  Functional external parameters        .... 1
    Parameter  0 _eta       =  1.000000e-03 : Regularization parameter
 Gradients option       PostSCFGGA      .... off
 RI-approximation to the Coulomb term is turned on
   Number of AuxJ basis functions       .... 551


General Settings:
 Integral files         IntName         .... sp
 Hartree-Fock type      HFTyp           .... RHF
 Total Charge           Charge          ....    0
 Multiplicity           Mult            ....    1
 Number of Electrons    NEL             ....   66
 Basis Dimension        Dim             ....  226
 Nuclear Repulsion      ENuc            ....    433.2614043206 Eh

Convergence Acceleration:
 AO-DIIS                CNVDIIS         .... on
   Start iteration      DIISMaxIt       ....    12
   Startup error        DIISStart       ....  0.200000
   # of expansion vecs  DIISMaxEq       ....     5
   Bias factor          DIISBfac        ....   1.050
   Max. coefficient     DIISMaxC        ....  10.000
 MO-DIIS                CNVKDIIS        .... off
 Trust-Rad. Augm. Hess. CNVTRAH         .... auto
   Auto Start mean grad. ratio tolernc. ....  1.125000
   Auto Start start iteration           ....     1
   Auto Start num. interpolation iter.  ....    10
   Max. Number of Micro iterations      ....    24
   Max. Number of Macro iterations      .... Maxiter - #DIIS iter
   Number of Davidson start vectors     ....     2
   Converg. threshold    (grad. norm)   ....   3.330e-04
   Grad. Scal. Fac. for Micro threshold ....   0.100
   Minimum threshold for Micro iter.    ....   1.000e-02
   NR start threshold (gradient norm)   ....   1.000e-04
   Initial trust radius                 ....   0.400
   Minimum AH scaling param. (alpha)    ....   1.000
   Maximum AH scaling param. (alpha)    .... 1000.000
   Quad. conv. algorithm                .... NR
   White noise on init. David. guess    .... on
   Maximum white noise                  ....   0.010
   Pseudo random numbers                .... off
   Inactive MOs                         .... canonical
   Orbital update algorithm             .... Taylor
   Preconditioner                       .... Diag
   Full preconditioner red. dimension   ....   250
   COSX micro iterations for RIJONX calc.... off
 SOSCF                  CNVSOSCF        .... on
   Start iteration      SOSCFMaxIt      ....   150
   Startup grad/error   SOSCFStart      ....  0.003300
   Hessian update       SOSCFHessUp     .... L-BFGS
 Level Shifting         CNVShift        .... on
   Level shift para.    LevelShift      ....    0.2500
   Turn off err/grad.   ShiftErr        ....    0.0010
 Zerner damping         CNVZerner       .... off
 Static damping         CNVDamp         .... on
   Fraction old density DampFac         ....    0.7000
   Max. Damping (<1)    DampMax         ....    0.9800
   Min. Damping (>=0)   DampMin         ....    0.0000
   Turn off err/grad.   DampErr         ....    0.1000

SCF Procedure:
 Maximum # iterations   MaxIter         ....   125
 SCF integral mode      SCFMode         .... Direct
   Integral package                     .... SHARK and LIBINT hybrid scheme
 Reset frequency        DirectResetFreq ....    20
 Integral Threshold     Thresh          ....  1.000e-10 Eh
 Primitive CutOff       TCut            ....  1.000e-11 Eh

Convergence Tolerance:
 Convergence Check Mode ConvCheckMode   .... Total+1el-Energy
 Convergence forced     ConvForced      .... 0
 Energy Change          TolE            ....  1.000e-06 Eh
 1-El. energy change                    ....  1.000e-03 Eh
 Orbital Gradient       TolG            ....  3.330e-04
 Orbital Rotation angle TolX            ....  3.330e-04
 DIIS Error             TolErr          ....  1.000e-06

---------------------
INITIAL GUESS: MOREAD
---------------------
Guess MOs are being read from file: sp.ges
Input Geometry matches current geometry (good)
Atom 0: N(Shells)= 9 and 6 - projection required
Input basis set needs projection
NBasis(read)= 146
NBasis(calc)= 226
Basis set overlap was calculated
Using GuessMode=FMatrix for the initial guess
C*T matrix was formed
Effective Fockian was calculated
Effective Fockian was diagonalized
Initial density was built
                      ------------------
                      INITIAL GUESS DONE (   0.0 sec)
                      ------------------
             **** ENERGY FILE WAS UPDATED (sp.en.tmp) ****
Finished Guess after   0.1 sec
Maximum memory used throughout the entire GUESS-calculation: 17.0 MB

-------------------------------------------------------------------------------------------
                                      ORCA LEAN-SCF
                              memory conserving SCF solver
-------------------------------------------------------------------------------------------

----------------------------------------D-I-I-S--------------------------------------------
Iteration    Energy (Eh)           Delta-E    RMSDP     MaxDP     DIISErr   Damp  Time(sec)
-------------------------------------------------------------------------------------------
               ***  Starting incremental Fock matrix formation  ***
    1    -385.8160266904684477     0.00e+00  2.36e-02  9.50e-01  6.23e-01  0.700   1.5
    2    -385.8724470761966359    -5.64e-02  1.75e-02  6.93e-01  4.38e-01  0.700   1.3
    3    -385.9123188322330407    -3.99e-02  1.24e-02  4.87e-01  3.07e-01  0.700   1.4
    4    -385.9403074263605049    -2.80e-02  8.66e-03  3.41e-01  2.15e-01  0.700   1.4
                               ***Turning on AO-DIIS***
    5    -385.9599397825062397    -1.96e-02  6.07e-03  2.38e-01  1.50e-01  0.700   1.3
    6    -385.9737023353656014    -1.38e-02  4.25e-03  1.67e-01  1.05e-01  0.700   1.3
    7    -385.9833508184208313    -9.65e-03  2.98e-03  1.17e-01  7.36e-02  0.700   1.2
    8    -385.9901115841316823    -6.76e-03  6.94e-03  2.72e-01  5.16e-02  0.000   1.2
                              *** Initializing SOSCF ***
---------------------------------------S-O-S-C-F--------------------------------------
Iteration    Energy (Eh)           Delta-E    RMSDP     MaxDP     MaxGrad    Time(sec)
--------------------------------------------------------------------------------------
    9    -386.0059089280297258    -1.58e-02  1.25e-05  3.77e-04  1.36e-04     1.3
               *** Restarting incremental Fock matrix formation ***
   10    -386.0059091176497077    -1.90e-07  2.88e-05  8.89e-04  3.05e-05     1.5
                  *** Gradient check signals convergence ***

               *****************************************************
               *                     SUCCESS                       *
               *           SCF CONVERGED AFTER  10 CYCLES          *
               *****************************************************

             **** ENERGY FILE WAS UPDATED (sp.en.tmp) ****

----------------
TOTAL SCF ENERGY
----------------

Total Energy       :       -386.00590911764971 Eh          -10503.75479 eV

Components:
Nuclear Repulsion  :        433.26140432058776 Eh           11789.64219 eV
Electronic Energy  :       -819.26731343823747 Eh          -22293.39697 eV
One Electron Energy:      -1380.76600402462077 Eh          -37572.55312 eV
Two Electron Energy:        561.49869058638330 Eh           15279.15615 eV

Virial components:
Potential Energy   :       -770.45905388888423 Eh          -20965.25671 eV
Kinetic Energy     :        384.45314477123458 Eh           10461.50192 eV
Virial Ratio       :          2.00403889100020

DFT components:
N(Alpha)           :       33.000074709810 electrons
N(Beta)            :       33.000074709810 electrons
N(Total)           :       66.000149419621 electrons
E(X)               :      -53.535303150889 Eh       
E(C)               :       -2.122946485163 Eh       
E(XC)              :      -55.658249636052 Eh       

---------------
SCF CONVERGENCE
---------------

  Last Energy change         ...    1.8962e-07  Tolerance :   1.0000e-06
  Last MAX-Density change    ...    8.8866e-04  Tolerance :   1.0000e-05
  Last RMS-Density change    ...    2.8791e-05  Tolerance :   1.0000e-06
  Last DIIS Error            ...    1.3575e-04  Tolerance :   1.0000e-06
  Last Orbital Gradient      ...    3.0518e-05  Tolerance :   3.3300e-04
  Last Orbital Rotation      ...    1.5749e-04  Tolerance :   3.3300e-04


----------------
ORBITAL ENERGIES
----------------

  NO   OCC          E(Eh)            E(eV) 
   0   2.0000     -18.982250      -516.5333 
   1   2.0000     -10.089863      -274.5591 
   2   2.0000     -10.037751      -273.1411 
   3   2.0000     -10.033268      -273.0191 
   4   2.0000     -10.029312      -272.9115 
   5   2.0000     -10.027911      -272.8733 
   6   2.0000     -10.025285      -272.8019 
   7   2.0000     -10.020115      -272.6612 
   8   2.0000     -10.019353      -272.6405 
   9   2.0000      -1.026458       -27.9313 
  10   2.0000      -0.824252       -22.4290 
  11   2.0000      -0.746867       -20.3233 
  12   2.0000      -0.723622       -19.6908 
  13   2.0000      -0.662511       -18.0278 
  14   2.0000      -0.641117       -17.4457 
  15   2.0000      -0.579572       -15.7710 
  16   2.0000      -0.549156       -14.9433 
  17   2.0000      -0.492897       -13.4124 
  18   2.0000      -0.457394       -12.4463 
  19   2.0000      -0.447755       -12.1840 
  20   2.0000      -0.408862       -11.1257 
  21   2.0000      -0.394854       -10.7445 
  22   2.0000      -0.373686       -10.1685 
  23   2.0000      -0.372287       -10.1304 
  24   2.0000      -0.366110        -9.9624 
  25   2.0000      -0.358794        -9.7633 
  26   2.0000      -0.356918        -9.7122 
  27   2.0000      -0.340917        -9.2768 
  28   2.0000      -0.311755        -8.4833 
  29   2.0000      -0.300752        -8.1839 
  30   2.0000      -0.297607        -8.0983 
  31   2.0000      -0.218510        -5.9460 
  32   2.0000      -0.198781        -5.4091 
  33   0.0000      -0.024738        -0.6732 
  34   0.0000      -0.008141        -0.2215 
  35   0.0000       0.057265         1.5583 
  36   0.0000       0.083917         2.2835 
  37   0.0000       0.095944         2.6108 
  38   0.0000       0.128540         3.4977 
  39   0.0000       0.129023         3.5109 
  40   0.0000       0.137689         3.7467 
  41   0.0000       0.144035         3.9194 
  42   0.0000       0.146630         3.9900 
  43   0.0000       0.153394         4.1741 
*Only the first 10 virtual orbitals were printed.

                    ********************************
                    * MULLIKEN POPULATION ANALYSIS *
                    ********************************

-----------------------
MULLIKEN ATOMIC CHARGES
-----------------------
   0 C :   -0.551604
   1 C :    0.240809
   2 C :   -0.288924
   3 C :   -0.129298
   4 C :   -0.355537
   5 C :    0.416029
   6 C :   -0.015319
   7 C :   -0.603841
   8 O :   -0.414674
   9 H :    0.162147
  10 H :    0.150761
  11 H :    0.161956
  12 H :    0.145400
  13 H :    0.144754
  14 H :    0.132526
  15 H :    0.157411
  16 H :    0.157512
  17 H :    0.184103
  18 H :    0.305790
Sum of atomic charges:    0.0000000

--------------------------------
MULLIKEN REDUCED ORBITAL CHARGES
--------------------------------
  0 C s       :     3.394038  s :     3.394038
      pz      :     1.087002  p :     3.130228
      px      :     0.965607
      py      :     1.077620
      dz2     :     0.004857  d :     0.027338
      dxz     :     0.002801
      dyz     :     0.007165
      dx2y2   :     0.004562
      dxy     :     0.007952

  1 C s       :     3.081679  s :     3.081679
      pz      :     0.963755  p :     2.629511
      px      :     0.798823
      py      :     0.866933
      dz2     :     0.003566  d :     0.048001
      dxz     :     0.006357
      dyz     :     0.007542
      dx2y2   :     0.015100
      dxy     :     0.015436

  2 C s       :     3.192524  s :     3.192524
      pz      :     1.041611  p :     3.059003
      px      :     1.052311
      py      :     0.965081
      dz2     :     0.003311  d :     0.037397
      dxz     :     0.003600
      dyz     :     0.005417
      dx2y2   :     0.012034
      dxy     :     0.013035

  3 C s       :     3.160936  s :     3.160936
      pz      :     0.987175  p :     2.929664
      px      :     0.931820
      py      :     1.010668
      dz2     :     0.003328  d :     0.038698
      dxz     :     0.008270
      dyz     :     0.002319
      dx2y2   :     0.013161
      dxy     :     0.011620

  4 C s       :     3.230403  s :     3.230403
      pz      :     1.086663  p :     3.089066
      px      :     1.082199
      py      :     0.920204
      dz2     :     0.003458  d :     0.036068
      dxz     :     0.003203
      dyz     :     0.005883
      dx2y2   :     0.013255
      dxy     :     0.010270

  5 C s       :     3.051076  s :     3.051076
      pz      :     0.954927  p :     2.460342
      px      :     0.767559
      py      :     0.737856
      dz2     :     0.004889  d :     0.072553
      dxz     :     0.013600
      dyz     :     0.010293
      dx2y2   :     0.020867
      dxy     :     0.022906

  6 C s       :     3.202881  s :     3.202881
      pz      :     1.034418  p :     2.767017
      px      :     0.917111
      py      :     0.815488
      dz2     :     0.003641  d :     0.045421
      dxz     :     0.005977
      dyz     :     0.006512
      dx2y2   :     0.013764
      dxy     :     0.015526

  7 C s       :     3.432259  s :     3.432259
      pz      :     1.073522  p :     3.144283
      px      :     1.143922
      py      :     0.926838
      dz2     :     0.004893  d :     0.027300
      dxz     :     0.004295
      dyz     :     0.005859
      dx2y2   :     0.007139
      dxy     :     0.005114

  8 O s       :     3.753793  s :     3.753793
      pz      :     1.851867  p :     4.623502
      px      :     1.178419
      py      :     1.593216
      dz2     :     0.006082  d :     0.037379
      dxz     :     0.004283
      dyz     :     0.005646
      dx2y2   :     0.008627
      dxy     :     0.012742

  9 H s       :     0.819472  s :     0.819472
      pz      :     0.008448  p :     0.018381
      px      :     0.003670
      py      :     0.006263

 10 H s       :     0.831048  s :     0.831048
      pz      :     0.003692  p :     0.018190
      px      :     0.007714
      py      :     0.006784

 11 H s       :     0.819662  s :     0.819662
      pz      :     0.008434  p :     0.018382
      px      :     0.003668
      py      :     0.006280

 12 H s       :     0.834880  s :     0.834880
      pz      :     0.004567  p :     0.019720
      px      :     0.009417
      py      :     0.005736

 13 H s       :     0.835646  s :     0.835646
      pz      :     0.004274  p :     0.019600
      px      :     0.003191
      py      :     0.012135

 14 H s       :     0.847662  s :     0.847662
      pz      :     0.004748  p :     0.019812
      px      :     0.009861
      py      :     0.005203

 15 H s       :     0.824187  s :     0.824187
      pz      :     0.008445  p :     0.018402
      px      :     0.005423
      py      :     0.004534

 16 H s       :     0.824088  s :     0.824088
      pz      :     0.008447  p :     0.018400
      px      :     0.005418
      py      :     0.004535

 17 H s       :     0.797259  s :     0.797259
      pz      :     0.003639  p :     0.018638
      px      :     0.010586
      py      :     0.004413

 18 H s       :     0.651033  s :     0.651033
      pz      :     0.012336  p :     0.043178
      px      :     0.017115
      py      :     0.013727


------------------------
MULLIKEN OVERLAP CHARGES
------------------------
B(  0-C ,  1-C ) :   0.3697 B(  0-C ,  2-C ) :  -0.1723 B(  0-C ,  6-C ) :  -0.0879 
B(  0-C ,  7-C ) :  -0.1141 B(  0-C ,  9-H ) :   0.8569 B(  0-C , 10-H ) :   0.8365 
B(  0-C , 11-H ) :   0.8564 B(  1-C ,  2-C ) :   0.6847 B(  1-C ,  4-C ) :  -0.3832 
B(  1-C ,  5-C ) :   0.2216 B(  1-C ,  6-C ) :   0.5296 B(  1-C ,  7-C ) :  -0.3397 
B(  1-C ,  9-H ) :  -0.1132 B(  1-C , 10-H ) :  -0.1030 B(  1-C , 11-H ) :  -0.1132 
B(  2-C ,  3-C ) :   0.7559 B(  2-C ,  4-C ) :   0.0697 B(  2-C ,  5-C ) :  -0.4131 
B(  2-C ,  6-C ) :   0.2086 B(  2-C ,  7-C ) :   0.0812 B(  2-C , 12-H ) :   0.7451 
B(  3-C ,  4-C ) :   0.4170 B(  3-C ,  5-C ) :   0.1648 B(  3-C ,  6-C ) :  -0.2742 
B(  3-C , 13-H ) :   0.7580 B(  4-C ,  5-C ) :   0.5297 B(  4-C ,  7-C ) :   0.0677 
B(  4-C ,  8-O ) :  -0.2087 B(  4-C , 14-H ) :   0.7799 B(  5-C ,  6-C ) :   0.8155 
B(  5-C ,  7-C ) :  -0.2824 B(  5-C ,  8-O ) :   0.4862 B(  5-C , 14-H ) :  -0.1132 
B(  5-C , 18-H ) :  -0.1136 B(  6-C ,  7-C ) :   0.4153 B(  6-C ,  8-O ) :  -0.0633 
B(  6-C , 15-H ) :  -0.1208 B(  6-C , 16-H ) :  -0.1211 B(  6-C , 17-H ) :  -0.0868 
B(  7-C ,  8-O ) :   0.0673 B(  7-C , 15-H ) :   0.8541 B(  7-C , 16-H ) :   0.8546 
B(  7-C , 17-H ) :   0.8445 B(  8-O , 18-H ) :   0.6042 B(  9-H , 11-H ) :  -0.0588 
B( 15-H , 16-H ) :  -0.0575 


                     *******************************
                     * LOEWDIN POPULATION ANALYSIS *
                     *******************************

----------------------
LOEWDIN ATOMIC CHARGES
----------------------
   0 C :   -0.385761
   1 C :   -0.084301
   2 C :   -0.188588
   3 C :   -0.157459
   4 C :   -0.177714
   5 C :    0.189692
   6 C :   -0.077720
   7 C :   -0.374922
   8 O :   -0.520185
   9 H :    0.164155
  10 H :    0.159569
  11 H :    0.164137
  12 H :    0.166347
  13 H :    0.167153
  14 H :    0.166555
  15 H :    0.163569
  16 H :    0.163571
  17 H :    0.180614
  18 H :    0.281287

-------------------------------
LOEWDIN REDUCED ORBITAL CHARGES
-------------------------------
  0 C s       :     2.951547  s :     2.951547
      pz      :     1.152013  p :     3.370569
      px      :     1.079295
      py      :     1.139260
      dz2     :     0.011802  d :     0.063645
      dxz     :     0.005011
      dyz     :     0.018284
      dx2y2   :     0.009553
      dxy     :     0.018996

  1 C s       :     2.861332  s :     2.861332
      pz      :     0.958962  p :     3.123582
      px      :     1.065266
      py      :     1.099354
      dz2     :     0.006498  d :     0.099388
      dxz     :     0.010882
      dyz     :     0.013330
      dx2y2   :     0.033884
      dxy     :     0.034794

  2 C s       :     2.893613  s :     2.893613
      pz      :     1.031449  p :     3.212678
      px      :     1.100641
      py      :     1.080588
      dz2     :     0.005738  d :     0.082297
      dxz     :     0.005978
      dyz     :     0.009908
      dx2y2   :     0.028816
      dxy     :     0.031857

  3 C s       :     2.899229  s :     2.899229
      pz      :     0.977042  p :     3.173941
      px      :     1.098210
      py      :     1.098689
      dz2     :     0.005630  d :     0.084289
      dxz     :     0.015578
      dyz     :     0.003434
      dx2y2   :     0.032084
      dxy     :     0.027563

  4 C s       :     2.892030  s :     2.892030
      pz      :     1.056284  p :     3.206460
      px      :     1.100074
      py      :     1.050102
      dz2     :     0.005830  d :     0.079225
      dxz     :     0.005224
      dyz     :     0.010516
      dx2y2   :     0.030817
      dxy     :     0.026838

  5 C s       :     2.779511  s :     2.779511
      pz      :     0.914017  p :     2.872996
      px      :     0.933200
      py      :     1.025779
      dz2     :     0.010716  d :     0.157801
      dxz     :     0.026393
      dyz     :     0.018593
      dx2y2   :     0.048663
      dxy     :     0.053435

  6 C s       :     2.850979  s :     2.850979
      pz      :     1.016753  p :     3.133145
      px      :     1.054068
      py      :     1.062324
      dz2     :     0.006557  d :     0.093596
      dxz     :     0.010509
      dyz     :     0.010580
      dx2y2   :     0.031435
      dxy     :     0.034515

  7 C s       :     2.946593  s :     2.946593
      pz      :     1.149290  p :     3.364984
      px      :     1.157562
      py      :     1.058132
      dz2     :     0.011688  d :     0.063346
      dxz     :     0.011111
      dyz     :     0.012694
      dx2y2   :     0.016531
      dxy     :     0.011321

  8 O s       :     3.486030  s :     3.486030
      pz      :     1.817600  p :     4.753903
      px      :     1.312550
      py      :     1.623753
      dz2     :     0.034316  d :     0.280252
      dxz     :     0.046524
      dyz     :     0.025037
      dx2y2   :     0.075530
      dxy     :     0.098844

  9 H s       :     0.792205  s :     0.792205
      pz      :     0.020967  p :     0.043640
      px      :     0.007970
      py      :     0.014703

 10 H s       :     0.797297  s :     0.797297
      pz      :     0.008003  p :     0.043134
      px      :     0.018349
      py      :     0.016782

 11 H s       :     0.792222  s :     0.792222
      pz      :     0.020931  p :     0.043640
      px      :     0.007965
      py      :     0.014745

 12 H s       :     0.788722  s :     0.788722
      pz      :     0.010056  p :     0.044931
      px      :     0.021842
      py      :     0.013034

 13 H s       :     0.788427  s :     0.788427
      pz      :     0.009108  p :     0.044420
      px      :     0.007070
      py      :     0.028241

 14 H s       :     0.788807  s :     0.788807
      pz      :     0.010507  p :     0.044638
      px      :     0.022756
      py      :     0.011375

 15 H s       :     0.792755  s :     0.792755
      pz      :     0.020901  p :     0.043676
      px      :     0.012795
      py      :     0.009980

 16 H s       :     0.792758  s :     0.792758
      pz      :     0.020906  p :     0.043671
      px      :     0.012782
      py      :     0.009983

 17 H s       :     0.773750  s :     0.773750
      pz      :     0.007986  p :     0.045636
      px      :     0.027794
      py      :     0.009856

 18 H s       :     0.596764  s :     0.596764
      pz      :     0.031334  p :     0.121948
      px      :     0.048411
      py      :     0.042204


---------------------------------
LOEWDIN BOND ORDERS (THRESH 0.050000)
---------------------------------
B(  0-C ,  1-C ) :   1.1058 B(  0-C ,  2-C ) :   0.0903 B(  0-C ,  6-C ) :   0.0804 
B(  0-C ,  9-H ) :   0.9085 B(  0-C , 10-H ) :   0.9176 B(  0-C , 11-H ) :   0.9085 
B(  1-C ,  2-C ) :   1.4367 B(  1-C ,  3-C ) :   0.0904 B(  1-C ,  4-C ) :   0.1166 
B(  1-C ,  5-C ) :   0.0943 B(  1-C ,  6-C ) :   1.3960 B(  1-C ,  7-C ) :   0.0776 
B(  1-C , 12-H ) :   0.0529 B(  2-C ,  3-C ) :   1.5024 B(  2-C ,  4-C ) :   0.0933 
B(  2-C ,  5-C ) :   0.1030 B(  2-C ,  6-C ) :   0.0878 B(  2-C , 12-H ) :   0.8682 
B(  2-C , 13-H ) :   0.0550 B(  3-C ,  4-C ) :   1.5048 B(  3-C ,  5-C ) :   0.0942 
B(  3-C ,  6-C ) :   0.1192 B(  3-C , 12-H ) :   0.0541 B(  3-C , 13-H ) :   0.8718 
B(  3-C , 14-H ) :   0.0538 B(  4-C ,  5-C ) :   1.3264 B(  4-C ,  6-C ) :   0.0865 
B(  4-C ,  8-O ) :   0.2213 B(  4-C , 13-H ) :   0.0557 B(  4-C , 14-H ) :   0.8646 
B(  5-C ,  6-C ) :   1.2714 B(  5-C ,  7-C ) :   0.0794 B(  5-C ,  8-O ) :   1.4703 
B(  5-C , 14-H ) :   0.0560 B(  6-C ,  7-C ) :   1.0923 B(  6-C ,  8-O ) :   0.2129 
B(  7-C ,  8-O ) :   0.0622 B(  7-C , 15-H ) :   0.9084 B(  7-C , 16-H ) :   0.9084 
B(  7-C , 17-H ) :   0.8946 B(  8-O , 18-H ) :   0.9484 

------------------------------------------
LOEWDIN REDUCED ORBITAL POPULATIONS PER MO
-------------------------------------------
THRESHOLD FOR PRINTING IS 0.1%%
                      0         1         2         3         4         5   
                 -18.98225 -10.08986 -10.03775 -10.03327 -10.02931 -10.02791
                   2.00000   2.00000   2.00000   2.00000   2.00000   2.00000
                  --------  --------  --------  --------  --------  --------
 1 C  s               0.0       0.0      99.3       0.2       0.0       0.0
 2 C  px              0.0       0.0       0.0       0.0       0.1       0.0
 2 C  py              0.0       0.0       0.1       0.0       0.0       0.0
 3 C  s               0.0       0.0       0.0       0.0      96.6       3.0
 4 C  s               0.0       0.0       0.0       0.0       3.0      96.6
 4 C  py              0.0       0.1       0.0       0.0       0.0       0.0
 5 C  s               0.0      99.2       0.0       0.0       0.0       0.0
 5 C  px              0.0       0.0       0.0       0.1       0.0       0.0
 5 C  py              0.0       0.0       0.0       0.0       0.0       0.1
 6 C  s               0.0       0.0       0.2      99.3       0.0       0.0
 8 O  s              99.9       0.0       0.0       0.0       0.0       0.0
 8 O  dxy             0.0       0.2       0.0       0.0       0.0       0.0

                      6         7         8         9        10        11   
                 -10.02528 -10.02012 -10.01935  -1.02646  -0.82425  -0.74687
                   2.00000   2.00000   2.00000   2.00000   2.00000   2.00000
                  --------  --------  --------  --------  --------  --------
 0 C  s              99.7       0.0       0.0       0.0       3.4       7.1
 0 C  px              0.0       0.0       0.0       0.0       1.5       0.9
 0 C  py              0.0       0.0       0.0       0.0       0.3       0.0
 1 C  s               0.0       0.0       0.0       0.1      15.6       6.0
 1 C  px              0.1       0.0       0.0       0.1       1.1       0.3
 1 C  py              0.0       0.0       0.1       0.0       0.1       4.7
 1 C  dz2             0.0       0.0       0.0       0.0       0.2       0.1
 2 C  s               0.0       0.0      99.5       0.0      11.3       1.3
 2 C  px              0.0       0.0       0.0       0.0       1.3       3.1
 2 C  py              0.0       0.0       0.0       0.0       1.3       3.4
 2 C  dz2             0.0       0.0       0.0       0.0       0.1       0.0
 2 C  dx2y2           0.0       0.0       0.0       0.0       0.0       0.1
 3 C  s               0.0       0.0       0.1       0.1       9.5      13.7
 3 C  px              0.0       0.0       0.1       0.1       0.1       0.9
 3 C  py              0.0       0.0       0.0       0.1       2.3       0.6
 3 C  dz2             0.0       0.0       0.0       0.0       0.1       0.1
 4 C  s               0.0       0.0       0.0       0.9       8.2      13.6
 4 C  px              0.0       0.0       0.0       0.1       2.2       1.1
 4 C  py              0.0       0.0       0.0       1.5       0.2       0.6
 4 C  dz2             0.0       0.0       0.0       0.0       0.1       0.1
 5 C  s               0.0       0.0       0.0       9.7       6.3       0.5
 5 C  px              0.0       0.0       0.0       7.0       4.9       0.8
 5 C  py              0.0       0.0       0.0       2.2       0.9       7.4
 5 C  dz2             0.0       0.0       0.0       0.4       0.1       0.0
 5 C  dx2y2           0.0       0.0       0.0       0.2       0.0       0.1
 5 C  dxy             0.0       0.0       0.0       0.5       0.1       0.0
 6 C  s               0.0       0.0       0.0       0.8      13.7       7.5
 6 C  px              0.0       0.0       0.0       1.5       0.3       1.9
 6 C  py              0.0       0.1       0.0       0.1       1.4       2.1
 6 C  dz2             0.0       0.0       0.0       0.0       0.2       0.1
 7 C  s               0.0      99.7       0.0       0.1       2.7       8.0
 7 C  px              0.0       0.0       0.0       0.2       0.0       0.1
 7 C  py              0.0       0.0       0.0       0.2       1.5       1.0
 8 O  s               0.0       0.0       0.0      58.7       1.6       0.1
 8 O  px              0.0       0.0       0.0       0.2       1.1       0.0
 8 O  py              0.0       0.0       0.0       2.6       0.1       0.3
 8 O  dz2             0.0       0.0       0.0       0.2       0.2       0.0
 8 O  dx2y2           0.0       0.0       0.0       0.0       0.1       0.2
 8 O  dxy             0.0       0.0       0.0       0.1       0.2       0.2
 9 H  s               0.0       0.0       0.0       0.0       0.4       1.1
10 H  s               0.0       0.0       0.0       0.0       0.4       1.0
11 H  s               0.0       0.0       0.0       0.0       0.4       1.1
12 H  s               0.0       0.0       0.0       0.0       1.0       0.1
13 H  s               0.0       0.0       0.0       0.0       0.8       1.9
13 H  py              0.0       0.0       0.0       0.0       0.1       0.2
14 H  s               0.0       0.0       0.0       0.1       0.7       2.0
14 H  px              0.0       0.0       0.0       0.0       0.0       0.1
15 H  s               0.0       0.0       0.0       0.0       0.3       1.2
16 H  s               0.0       0.0       0.0       0.0       0.3       1.2
17 H  s               0.0       0.0       0.0       0.0       0.3       1.1
18 H  s               0.0       0.0       0.0       9.9       0.5       0.0
18 H  px              0.0       0.0       0.0       1.6       0.1       0.0
18 H  py              0.0       0.0       0.0       0.7       0.1       0.0

                     12        13        14        15        16        17   
                  -0.72362  -0.66251  -0.64112  -0.57957  -0.54916  -0.49290
                   2.00000   2.00000   2.00000   2.00000   2.00000   2.00000
                  --------  --------  --------  --------  --------  --------
 0 C  s               9.7      13.2       7.9       3.3       0.8       1.5
 0 C  px              0.2       0.2       0.5       2.6       0.1       6.7
 0 C  py              0.6       0.0       0.7       0.0       1.5       1.4
 1 C  s               6.7       0.1       2.4       3.9       0.4       5.3
 1 C  px              5.9       3.0       4.6       4.1       2.1       0.6
 1 C  py              2.5       3.5       2.4       1.7       8.9       0.4
 1 C  dx2y2           0.0       0.2       0.0       0.0       0.2       0.0
 1 C  dxy             0.1       0.0       0.1       0.1       0.0       0.0
 2 C  s              10.5       8.5       1.5       2.5       4.6       0.3
 2 C  px              0.3       0.7       0.4       0.3       6.4       1.1
 2 C  py              0.4       1.5       2.3       4.0       2.4       2.4
 2 C  dx2y2           0.0       0.0       0.1       0.1       0.1       0.1
 3 C  s               1.4       4.0       5.1       0.8       7.7       0.2
 3 C  px              3.6       5.8       3.5       4.0       0.5       5.2
 3 C  py              0.0       0.2       0.5       0.6       3.1       3.0
 3 C  dxy             0.1       0.2       0.1       0.1       0.0       0.0
 4 C  s               2.2       5.2       5.6       2.1       1.8       1.0
 4 C  px              0.2       1.6       0.1       0.5       6.0       3.2
 4 C  py              2.0       2.7       3.6       0.3       5.8      10.6
 4 C  dx2y2           0.1       0.1       0.0       0.0       0.1       0.0
 5 C  s               7.9       4.8       1.9       3.5       0.6       0.8
 5 C  px              2.2       0.1       1.8       0.5       3.8       8.2
 5 C  py              0.1       3.6       1.8       6.5       6.8       3.8
 5 C  dx2y2           0.0       0.1       0.1       0.0       0.2       0.0
 5 C  dxy             0.1       0.0       0.0       0.1       0.0       0.3
 6 C  s               6.6       0.3       1.9       1.2       4.7       0.1
 6 C  px              5.4       0.3       0.3      10.5       0.0       4.7
 6 C  py              1.5       3.9       9.7       0.8       0.5       0.7
 6 C  dx2y2           0.0       0.1       0.1       0.0       0.1       0.1
 6 C  dxy             0.1       0.0       0.0       0.1       0.0       0.3
 7 C  s               7.4       9.9      13.7       0.0       4.3       0.1
 7 C  px              0.2       0.0       0.2       0.9       0.0       0.0
 7 C  py              0.6       0.1       1.0       0.1       4.1       0.3
 8 O  s               1.9       1.0       0.0       0.1       1.0       0.3
 8 O  px              4.3       1.5       1.8      27.3       0.2      19.3
 8 O  py              0.1       0.8       0.0       0.4       2.3       0.5
 8 O  dz2             0.3       0.1       0.0       0.0       0.1       0.1
 8 O  dx2y2           0.2       0.1       0.2       0.2       0.6       0.2
 8 O  dxy             0.4       0.8       0.2       0.5       0.1       0.1
 9 H  s               1.5       3.0       2.4       1.1       0.6       1.5
 9 H  pz              0.1       0.2       0.1       0.1       0.0       0.1
10 H  s               1.9       3.0       1.9       2.0       0.0       1.7
10 H  px              0.1       0.1       0.1       0.1       0.0       0.0
10 H  py              0.1       0.1       0.1       0.1       0.0       0.1
11 H  s               1.5       3.0       2.4       1.1       0.6       1.5
11 H  pz              0.1       0.2       0.1       0.1       0.0       0.1
12 H  s               1.9       1.7       0.2       2.0       2.9       0.1
12 H  px              0.1       0.1       0.0       0.1       0.1       0.0
12 H  py              0.1       0.0       0.0       0.0       0.1       0.0
13 H  s               0.2       1.0       1.7       0.5       5.1       1.4
13 H  py              0.0       0.1       0.1       0.0       0.3       0.1
14 H  s               0.3       1.3       2.1       1.3       1.6       4.4
14 H  px              0.0       0.1       0.1       0.1       0.0       0.2
14 H  py              0.0       0.1       0.0       0.0       0.1       0.0
15 H  s               1.1       2.1       3.9       0.0       2.0       0.1
15 H  pz              0.1       0.1       0.2       0.0       0.1       0.0
16 H  s               1.1       2.1       3.9       0.0       2.0       0.1
16 H  pz              0.1       0.1       0.2       0.0       0.1       0.0
17 H  s               1.4       2.3       3.1       0.3       1.7       0.1
17 H  px              0.1       0.2       0.2       0.0       0.2       0.0
18 H  s               1.4       0.3       0.4       6.8       0.0       4.8
18 H  px              0.1       0.0       0.0       0.2       0.0       0.0
18 H  py              0.1       0.1       0.0       0.4       0.0       0.2

                     18        19        20        21        22        23   
                  -0.45739  -0.44776  -0.40886  -0.39485  -0.37369  -0.37229
                   2.00000   2.00000   2.00000   2.00000   2.00000   2.00000
                  --------  --------  --------  --------  --------  --------
 0 C  s               0.1       0.0       0.0       0.1       0.0       0.1
 0 C  pz              0.0       0.0      18.3       0.0      32.2       0.0
 0 C  px              1.0       1.3       0.0       2.2       0.0      13.0
 0 C  py              1.6       4.4       0.0      11.2       0.0       0.4
 0 C  dz2             0.0       0.0       0.0       0.1       0.0       0.0
 0 C  dyz             0.0       0.0       0.1       0.0       0.3       0.0
 0 C  dxy             0.0       0.0       0.0       0.0       0.0       0.1
 1 C  s               0.3       0.4       0.0       1.3       0.0       0.1
 1 C  pz              0.0       0.0      10.2       0.0       2.3       0.0
 1 C  px              0.3       1.5       0.0       4.8       0.0      10.8
 1 C  py              7.4       1.6       0.0       0.0       0.0       4.9
 1 C  dxz             0.0       0.0       0.0       0.0       0.2       0.0
 1 C  dx2y2           0.0       0.0       0.0       0.2       0.0       0.0
 1 C  dxy             0.1       0.1       0.0       0.0       0.0       0.0
 2 C  s               0.8       0.5       0.0       2.4       0.0       0.0
 2 C  pz              0.0       0.0       2.2       0.0       0.1       0.0
 2 C  px              1.1      13.8       0.0       1.2       0.0       4.4
 2 C  py             15.1       0.3       0.0       0.8       0.0       4.3
 2 C  dx2y2           0.0       0.0       0.0       0.1       0.0       0.4
 2 C  dxy             0.0       0.1       0.0       0.1       0.0       0.0
 3 C  s               0.2       0.6       0.0       1.1       0.0       0.1
 3 C  pz              0.0       0.0       1.1       0.0       0.4       0.0
 3 C  px              8.6       2.3       0.0       1.1       0.0       2.0
 3 C  py              8.2       3.2       0.0      16.3       0.0       5.9
 3 C  dx2y2           0.0       0.0       0.0       0.6       0.0       0.1
 3 C  dxy             0.1       0.0       0.0       0.0       0.0       0.4
 4 C  s               0.2       1.1       0.0       1.4       0.0       1.0
 4 C  pz              0.0       0.0       2.1       0.0       2.8       0.0
 4 C  px              9.0       4.4       0.0       3.8       0.0      12.6
 4 C  py              2.9       4.6       0.0       3.5       0.0       1.4
 4 C  dx2y2           0.1       0.0       0.0       0.5       0.0       0.0
 4 C  dxy             0.0       0.1       0.0       0.1       0.0       0.1
 5 C  s               0.5       0.3       0.0       2.1       0.0       0.0
 5 C  pz              0.0       0.0       7.2       0.0      10.9       0.0
 5 C  px              2.0       6.8       0.0       0.3       0.0       0.1
 5 C  py              1.4       1.5       0.0       0.9       0.0       1.5
 5 C  dx2y2           0.0       0.0       0.0       0.1       0.0       0.5
 5 C  dxy             0.2       0.7       0.0       0.0       0.0       0.1
 6 C  s               1.6       3.0       0.0       0.5       0.0       0.1
 6 C  pz              0.0       0.0      12.6       0.0       2.6       0.0
 6 C  px              2.9       7.7       0.0       0.8       0.0       0.0
 6 C  py              1.0       0.9       0.0       2.0       0.0       5.9
 6 C  dxz             0.0       0.0       0.0       0.0       0.1       0.0
 6 C  dxy             0.0       0.1       0.0       0.1       0.0       0.2
 7 C  s               0.3       0.1       0.0       0.2       0.0       0.1
 7 C  pz              0.0       0.0      19.0       0.0       6.4       0.0
 7 C  px              3.2       4.7       0.0       0.1       0.0       0.4
 7 C  py              3.8       4.2       0.0       4.7       0.0       4.8
 7 C  dxz             0.0       0.0       0.1       0.0       0.0       0.0
 7 C  dx2y2           0.1       0.1       0.0       0.0       0.0       0.0
 8 O  s               2.0       0.1       0.0       0.8       0.0       0.7
 8 O  pz              0.0       0.0       5.2       0.0      17.2       0.0
 8 O  px              0.1       7.1       0.0       0.7       0.0       0.1
 8 O  py             10.5       1.6       0.0       5.3       0.0       4.5
 8 O  dz2             0.1       0.2       0.0       0.0       0.0       0.0
 8 O  dxz             0.0       0.0       0.3       0.0       0.3       0.0
 8 O  dyz             0.0       0.0       0.1       0.0       0.2       0.0
 8 O  dx2y2           0.1       0.4       0.0       0.1       0.0       0.0
 8 O  dxy             0.1       0.4       0.0       0.1       0.0       0.1
 9 H  s               0.1       0.4       5.1       2.2       9.9       0.4
 9 H  px              0.0       0.0       0.0       0.0       0.0       0.1
 9 H  py              0.0       0.0       0.1       0.0       0.2       0.0
10 H  s               0.8       1.8       0.0       0.4       0.0       2.4
10 H  pz              0.0       0.0       0.1       0.0       0.2       0.0
10 H  py              0.0       0.0       0.0       0.0       0.0       0.1
11 H  s               0.1       0.4       5.1       2.2       9.8       0.4
11 H  px              0.0       0.0       0.0       0.0       0.0       0.1
11 H  py              0.0       0.0       0.1       0.0       0.2       0.0
12 H  s               4.5       5.8       0.0       0.5       0.0       4.3
12 H  px              0.2       0.1       0.0       0.0       0.0       0.1
12 H  py              0.0       0.1       0.0       0.0       0.0       0.0
13 H  s               2.6       0.5       0.0      12.8       0.0       3.1
13 H  py              0.1       0.0       0.0       0.3       0.0       0.0
14 H  s               0.9       5.6       0.0       7.1       0.0       5.5
14 H  px              0.0       0.2       0.0       0.2       0.0       0.0
15 H  s               0.0       1.5       5.1       0.3       1.5       0.2
16 H  s               0.0       1.5       5.1       0.3       1.5       0.2
17 H  s               3.0       0.2       0.0       0.6       0.0       0.9
17 H  pz              0.0       0.0       0.1       0.0       0.1       0.0
18 H  s               0.4       1.3       0.0       0.7       0.0       0.2
18 H  pz              0.0       0.0       0.1       0.0       0.3       0.0
18 H  py              0.1       0.1       0.0       0.0       0.0       0.1

                     24        25        26        27        28        29   
                  -0.36611  -0.35879  -0.35692  -0.34092  -0.31176  -0.30075
                   2.00000   2.00000   2.00000   2.00000   2.00000   2.00000
                  --------  --------  --------  --------  --------  --------
 0 C  s               0.0       0.0       0.3       0.0       0.2       0.0
 0 C  pz              0.0       2.0       0.0       0.0       0.0       3.3
 0 C  px              4.5       0.0       5.2       5.7       5.4       0.0
 0 C  py             11.2       0.0       0.0      17.5       1.8       0.0
 0 C  dz2             0.1       0.0       0.0       0.2       0.0       0.0
 0 C  dyz             0.0       0.0       0.0       0.0       0.0       0.1
 0 C  dx2y2           0.0       0.0       0.0       0.1       0.0       0.0
 0 C  dxy             0.1       0.0       0.1       0.3       0.1       0.0
 1 C  s               0.2       0.0       0.7       0.0       0.0       0.0
 1 C  pz              0.0       0.9       0.0       0.0       0.0       8.0
 1 C  px              0.2       0.0       1.5       1.9       9.7       0.0
 1 C  py              0.6       0.0       1.4       4.6       1.3       0.0
 1 C  dyz             0.0       0.0       0.0       0.0       0.0       0.2
 1 C  dx2y2           0.0       0.0       0.0       0.3       0.0       0.0
 1 C  dxy             0.0       0.0       0.2       0.2       0.6       0.0
 2 C  s               0.1       0.0       0.0       0.4       0.1       0.0
 2 C  pz              0.0       1.5       0.0       0.0       0.0      21.3
 2 C  px              3.3       0.0       6.4       0.8       9.6       0.0
 2 C  py              1.2       0.0       0.3       4.2       0.9       0.0
 2 C  dxz             0.0       0.0       0.0       0.0       0.0       0.1
 2 C  dxy             0.1       0.0       0.2       0.0       0.9       0.0
 3 C  s               0.5       0.0       0.1       0.0       0.1       0.0
 3 C  pz              0.0       2.3       0.0       0.0       0.0      23.3
 3 C  px              0.0       0.0       5.6       3.0       8.2       0.0
 3 C  py              3.8       0.0       0.1       0.0       0.1       0.0
 3 C  dyz             0.0       0.0       0.0       0.0       0.0       0.1
 3 C  dxy             0.0       0.0       0.1       0.0       0.3       0.0
 4 C  s               0.1       0.0       0.0       0.3       0.1       0.0
 4 C  pz              0.0       5.5       0.0       0.0       0.0       9.4
 4 C  px              1.0       0.0       1.9       0.9       6.1       0.0
 4 C  py              0.2       0.0       1.7       2.6       0.3       0.0
 4 C  dxz             0.0       0.0       0.0       0.0       0.0       0.2
 4 C  dxy             0.2       0.0       0.0       0.1       0.3       0.0
 5 C  s               0.3       0.0       0.1       0.2       0.3       0.0
 5 C  pz              0.0      11.2       0.0       0.0       0.0       0.0
 5 C  px              3.5       0.0       0.6       0.1       2.8       0.0
 5 C  py              0.3       0.0       1.0       3.2       0.4       0.0
 5 C  dxz             0.0       0.1       0.0       0.0       0.0       0.4
 5 C  dyz             0.0       0.0       0.0       0.0       0.0       0.3
 5 C  dx2y2           0.0       0.0       0.1       0.2       0.1       0.0
 5 C  dxy             0.0       0.0       0.1       0.1       0.4       0.0
 6 C  s               0.7       0.0       0.1       0.1       0.2       0.0
 6 C  pz              0.0       0.0       0.0       0.0       0.0       2.2
 6 C  px              0.1       0.0       0.2       6.9       8.1       0.0
 6 C  py             11.9       0.0       1.0       0.7       1.1       0.0
 6 C  dyz             0.0       0.3       0.0       0.0       0.0       0.1
 6 C  dx2y2           0.2       0.0       0.0       0.0       0.0       0.0
 6 C  dxy             0.0       0.0       0.3       0.0       0.5       0.0
 7 C  s               0.4       0.0       0.0       0.0       0.0       0.0
 7 C  pz              0.0      29.6       0.0       0.0       0.0       0.4
 7 C  px              0.0       0.0      37.5       0.3       9.8       0.0
 7 C  py             13.9       0.0       0.2       0.3       0.6       0.0
 7 C  dz2             0.0       0.0       0.3       0.0       0.1       0.0
 7 C  dxz             0.0       0.3       0.0       0.0       0.0       0.0
 7 C  dyz             0.0       0.1       0.0       0.0       0.0       0.0
 7 C  dx2y2           0.3       0.0       0.0       0.0       0.0       0.0
 7 C  dxy             0.0       0.0       0.2       0.0       0.3       0.0
 8 O  s               2.1       0.0       0.2       2.7       0.2       0.0
 8 O  pz              0.0      22.7       0.0       0.0       0.0      25.3
 8 O  px              0.2       0.0       0.3       0.3       1.1       0.0
 8 O  py             19.2       0.0       0.1      19.0       5.6       0.0
 8 O  dz2             0.0       0.0       0.2       0.1       0.0       0.0
 8 O  dxz             0.0       0.1       0.0       0.0       0.0       0.0
 8 O  dyz             0.0       0.4       0.0       0.0       0.0       0.0
 8 O  dx2y2           0.0       0.0       0.2       0.6       0.2       0.0
 8 O  dxy             0.2       0.0       0.4       0.3       0.2       0.0
 9 H  s               1.5       0.5       0.0       2.9       0.3       1.8
 9 H  pz              0.1       0.0       0.0       0.1       0.0       0.0
10 H  s               7.2       0.0       1.5      13.0       0.5       0.0
10 H  px              0.1       0.0       0.0       0.1       0.0       0.0
11 H  s               1.5       0.5       0.0       2.9       0.3       1.8
11 H  pz              0.1       0.0       0.0       0.1       0.0       0.0
12 H  s               2.5       0.0       2.8       0.0       8.3       0.0
12 H  pz              0.0       0.0       0.0       0.0       0.0       0.1
13 H  s               1.2       0.0       0.0       0.0       0.1       0.0
13 H  pz              0.0       0.0       0.0       0.0       0.0       0.2
14 H  s               0.6       0.0       0.3       0.1       3.3       0.0
15 H  s               0.6      10.3       5.0       0.0       1.1       0.2
15 H  pz              0.0       0.0       0.2       0.0       0.0       0.0
15 H  px              0.0       0.1       0.1       0.0       0.0       0.0
16 H  s               0.6      10.3       5.1       0.0       1.1       0.2
16 H  pz              0.0       0.0       0.2       0.0       0.0       0.0
16 H  px              0.0       0.1       0.1       0.0       0.0       0.0
17 H  s               1.6       0.0      15.1       0.1       6.4       0.0
17 H  pz              0.0       0.2       0.0       0.0       0.0       0.0
17 H  px              0.0       0.0       0.2       0.0       0.1       0.0
17 H  py              0.0       0.0       0.2       0.0       0.0       0.0
18 H  s               0.6       0.0       0.0       1.8       0.1       0.0
18 H  pz              0.0       0.4       0.0       0.0       0.0       0.4
18 H  px              0.1       0.0       0.0       0.1       0.1       0.0
18 H  py              0.1       0.0       0.0       0.1       0.0       0.0

                     30        31        32        33        34        35   
                  -0.29761  -0.21851  -0.19878  -0.02474  -0.00814   0.05727
                   2.00000   2.00000   2.00000   0.00000   0.00000   0.00000
                  --------  --------  --------  --------  --------  --------
 0 C  s               0.2       0.0       0.0       0.0       0.0       1.6
 0 C  pz              0.0       1.7       0.1       0.1       0.2       0.0
 0 C  px              2.8       0.0       0.0       0.0       0.0       0.0
 0 C  py              4.3       0.0       0.0       0.0       0.0       0.0
 0 C  dxz             0.0       0.2       0.0       0.3       0.2       0.0
 0 C  dyz             0.0       0.3       0.0       0.5       0.1       0.0
 1 C  s               0.0       0.0       0.0       0.0       0.0       0.3
 1 C  pz              0.0      25.5       1.0      21.0       9.3       0.0
 1 C  px              0.7       0.0       0.0       0.0       0.0       0.1
 1 C  py              8.7       0.0       0.0       0.0       0.0       0.2
 1 C  dxz             0.0       0.2       0.1       0.3       0.1       0.0
 1 C  dyz             0.0       0.0       0.5       0.1       1.0       0.0
 1 C  dx2y2           0.6       0.0       0.0       0.0       0.0       0.1
 2 C  s               0.1       0.0       0.0       0.0       0.0       0.4
 2 C  pz              0.0       2.0      24.5       0.0      29.2       0.0
 2 C  px              0.7       0.0       0.0       0.0       0.0       0.1
 2 C  py              9.1       0.0       0.0       0.0       0.0       0.3
 2 C  dxz             0.0       0.1       0.0       0.4       0.2       0.0
 2 C  dyz             0.0       0.4       0.0       1.0       0.1       0.0
 2 C  dx2y2           0.3       0.0       0.0       0.0       0.0       0.1
 3 C  s               0.1       0.0       0.0       0.0       0.0       1.7
 3 C  pz              0.0      15.5       6.2      22.9       8.9       0.0
 3 C  px              0.4       0.0       0.0       0.0       0.0       0.2
 3 C  py              6.9       0.0       0.0       0.0       0.0       0.5
 3 C  dz2             0.0       0.0       0.0       0.0       0.0       0.1
 3 C  dxz             0.0       0.3       0.5       0.3       0.9       0.0
 3 C  dyz             0.0       0.0       0.0       0.2       0.1       0.0
[...]
 9 H  s               3.7       0.4       0.0       0.9       0.0       0.0
 9 H  pz              5.3       0.6       0.0       1.7       0.0       0.0
 9 H  px              0.2       0.0       0.0       0.4       0.0       0.0
 9 H  py              3.7       0.0       0.1       0.2       0.0       0.0
10 H  s               0.0       5.5       0.0       3.3       0.3       0.0
10 H  pz              0.2       0.0       0.0       0.0       0.0       0.0
10 H  px              0.0       7.5       0.0       4.0       0.3       0.0
10 H  py              0.0       7.2       0.1       3.0       0.2       0.0
11 H  s               3.7       0.4       0.0       0.9       0.0       0.0
11 H  pz              5.3       0.6       0.0       1.7       0.0       0.0
11 H  px              0.2       0.0       0.0       0.4       0.0       0.0
11 H  py              3.8       0.0       0.1       0.2       0.0       0.0
12 H  s               0.0       0.2       0.0       0.0       3.5       0.5
12 H  px              0.0       0.5       0.2       0.0       5.1       0.5
12 H  py              0.0       0.2       0.0       0.0       2.5       0.2
13 H  s               0.0       0.5       0.0       0.3       3.7       0.6
13 H  px              0.0       0.1       0.1       0.0       0.0       0.0
13 H  py              0.0       1.5       0.0       0.9       7.8       1.0
14 H  s               0.0       1.1       0.0       0.2       1.5       1.1
14 H  px              0.0       3.1       0.0       0.6       2.5       1.3
14 H  py              0.0       0.6       0.2       0.1       0.8       0.4
15 H  s               4.4       1.0       0.2       1.4       0.0       0.0
15 H  pz              6.2       2.3       0.5       2.8       0.0       0.0
15 H  px              3.0       0.4       0.0       0.1       0.0       0.0
15 H  py              1.6       0.2       0.0       0.7       0.0       0.0
16 H  s               4.4       1.0       0.2       1.4       0.0       0.0
16 H  pz              6.3       2.2       0.5       2.8       0.0       0.0
16 H  px              3.0       0.4       0.0       0.1       0.0       0.0
16 H  py              1.6       0.2       0.0       0.7       0.0       0.0
17 H  s               0.0       2.1       1.1       6.1       0.0       0.1
17 H  pz              0.3       0.0       0.0       0.0       0.0       0.0
17 H  px              0.0       4.7       3.1      12.3       0.0       0.1
17 H  py              0.0       0.9       0.0       1.9       0.0       0.0
18 H  s               0.0       0.0       0.0       0.0       0.0       1.3
18 H  px              0.0       0.0       0.4       0.1       0.1       1.5
18 H  py              0.0       0.0       0.4       0.2       0.0       0.6

                    216       217       218       219       220       221   
                   4.61603  21.37503  21.84691  21.94918  22.02941  22.09375
                   0.00000   0.00000   0.00000   0.00000   0.00000   0.00000
                  --------  --------  --------  --------  --------  --------
 0 C  s               0.0       1.2      22.1       9.5      29.5      32.4
 1 C  s               0.0      22.1      10.6       9.3      14.2       0.1
 2 C  s               0.0      14.8       2.1      23.4       1.9       3.5
 3 C  s               0.0      12.8      19.2       6.5       6.3       4.8
 3 C  dx2y2           0.2       0.0       0.0       0.0       0.0       0.0
 4 C  s               0.1      12.6      18.8       2.2      12.2       6.6
 4 C  py              0.1       0.0       0.0       0.0       0.0       0.0
 4 C  dx2y2           0.2       0.0       0.0       0.0       0.0       0.0
 4 C  dxy             0.3       0.0       0.0       0.0       0.0       0.0
 5 C  s               0.2      12.0       1.8      28.9       0.0       5.1
 5 C  px              1.0       0.0       0.0       0.0       0.0       0.0
 5 C  py              0.8       0.0       0.0       0.0       0.1       0.0
 5 C  dx2y2           0.3       0.0       0.0       0.0       0.0       0.0
 5 C  dxy             2.4       0.0       0.0       0.0       0.0       0.0
 6 C  s               0.2      22.4      11.1      16.6       6.8       0.0
 6 C  px              0.0       0.0       0.0       0.1       0.0       0.0
 6 C  py              0.1       0.0       0.0       0.0       0.0       0.1
 6 C  dx2y2           0.2       0.0       0.0       0.0       0.0       0.0
 7 C  s               0.0       1.8      13.7       2.9      28.7      46.9
 8 O  s               4.6       0.1       0.0       0.1       0.0       0.0
 8 O  px             19.7       0.0       0.0       0.0       0.0       0.0
 8 O  py              3.2       0.0       0.0       0.0       0.0       0.0
 8 O  dz2             3.8       0.0       0.0       0.0       0.0       0.0
 8 O  dx2y2           0.1       0.0       0.0       0.0       0.0       0.0
 8 O  dxy            33.4       0.0       0.0       0.0       0.0       0.0
14 H  s               0.1       0.0       0.0       0.0       0.0       0.0
14 H  px              0.1       0.0       0.0       0.0       0.0       0.0
18 H  s              13.4       0.0       0.0       0.0       0.0       0.0
18 H  px              9.1       0.0       0.0       0.0       0.0       0.0
18 H  py              5.5       0.0       0.0       0.0       0.0       0.0

                    222       223       224       225   
                  22.19153  22.20659  22.35790  43.65793
                   0.00000   0.00000   0.00000   0.00000
                  --------  --------  --------  --------
 0 C  s               4.0       0.7       0.0       0.0
 1 C  s              24.2       2.5      16.7       0.0
 2 C  s              19.9      16.1      18.0       0.0
 3 C  s               2.1      32.8      15.2       0.0
 4 C  s              31.0       2.2      13.8       0.0
 5 C  s              16.1      16.2      19.4       0.0
 6 C  s               1.4      24.8      16.5       0.0
 7 C  s               0.9       4.4       0.1       0.0
 8 O  s               0.0       0.0       0.0      99.9


                      *****************************
                      * MAYER POPULATION ANALYSIS *
                      *****************************

  NA   - Mulliken gross atomic population
  ZA   - Total nuclear charge
  QA   - Mulliken gross atomic charge
  VA   - Mayer's total valence
  BVA  - Mayer's bonded valence
  FA   - Mayer's free valence

  ATOM       NA         ZA         QA         VA         BVA        FA
  0 C      6.5516     6.0000    -0.5516     3.7404     3.7404    -0.0000
  1 C      5.7592     6.0000     0.2408     3.4104     3.4104    -0.0000
  2 C      6.2889     6.0000    -0.2889     3.8897     3.8897     0.0000
  3 C      6.1293     6.0000    -0.1293     3.8849     3.8849     0.0000
  4 C      6.3555     6.0000    -0.3555     3.7232     3.7232     0.0000
  5 C      5.5840     6.0000     0.4160     3.6654     3.6654     0.0000
  6 C      6.0153     6.0000    -0.0153     3.8135     3.8135    -0.0000
  7 C      6.6038     6.0000    -0.6038     3.7044     3.7044    -0.0000
  8 O      8.4147     8.0000    -0.4147     2.0300     2.0300     0.0000
  9 H      0.8379     1.0000     0.1621     0.9574     0.9574    -0.0000
 10 H      0.8492     1.0000     0.1508     0.9655     0.9655    -0.0000
 11 H      0.8380     1.0000     0.1620     0.9575     0.9575    -0.0000
 12 H      0.8546     1.0000     0.1454     0.9713     0.9713     0.0000
 13 H      0.8552     1.0000     0.1448     0.9698     0.9698    -0.0000
 14 H      0.8675     1.0000     0.1325     0.9745     0.9745     0.0000
 15 H      0.8426     1.0000     0.1574     0.9592     0.9592    -0.0000
 16 H      0.8425     1.0000     0.1575     0.9592     0.9592    -0.0000
 17 H      0.8159     1.0000     0.1841     0.9565     0.9565    -0.0000
 18 H      0.6942     1.0000     0.3058     0.9056     0.9056    -0.0000

  Mayer bond orders larger than 0.100000
B(  0-C ,  1-C ) :   0.7862 B(  0-C ,  9-H ) :   0.9797 B(  0-C , 10-H ) :   0.9894 
B(  0-C , 11-H ) :   0.9796 B(  1-C ,  2-C ) :   1.3743 B(  1-C ,  6-C ) :   1.4362 
B(  2-C ,  3-C ) :   1.4538 B(  2-C , 12-H ) :   0.9233 B(  3-C ,  4-C ) :   1.4019 
B(  3-C , 13-H ) :   0.9398 B(  4-C ,  5-C ) :   1.2721 B(  4-C , 14-H ) :   0.9518 
B(  5-C ,  6-C ) :   1.5101 B(  5-C ,  8-O ) :   0.9532 B(  6-C ,  7-C ) :   0.7669 
B(  7-C , 15-H ) :   0.9819 B(  7-C , 16-H ) :   0.9820 B(  7-C , 17-H ) :   0.9879 
B(  8-O , 18-H ) :   0.8874 

-------
TIMINGS
-------

Total SCF time: 0 days 0 hours 0 min 13 sec 

Total time                  ....      13.609 sec
Sum of individual times     ....      13.586 sec  ( 99.8%)

SCF preparation             ....       0.038 sec  (  0.3%)
Fock matrix formation       ....      13.318 sec  ( 97.9%)
  Startup                   ....       0.003 sec  (  0.0% of F)
  Split-RI-J                ....       2.998 sec  ( 22.5% of F)
  XC integration            ....      10.293 sec  ( 77.3% of F)
    Basis function eval.    ....       1.866 sec  ( 18.1% of XC)
    Density eval.           ....       3.491 sec  ( 33.9% of XC)
    XC-Functional eval.     ....       1.077 sec  ( 10.5% of XC)
    XC-Potential eval.      ....       3.681 sec  ( 35.8% of XC)
Diagonalization             ....       0.000 sec  (  0.0%)
Density matrix formation    ....       0.014 sec  (  0.1%)
Total Energy calculation    ....       0.002 sec  (  0.0%)
Population analysis         ....       0.106 sec  (  0.8%)
Orbital Transformation      ....       0.016 sec  (  0.1%)
Orbital Orthonormalization  ....       0.000 sec  (  0.0%)
DIIS solution               ....       0.084 sec  (  0.6%)
  MO trafo                  ....       0.000 sec  (  0.0 % of DIIS)
  Orb grad                  ....       0.000 sec  (  0.0 % of DIIS)
  Energy W gradient         ....       0.000 sec  (  0.0 % of DIIS)
  DIIS error                ....       0.014 sec  ( 16.6 % of DIIS)
  DIIS work                 ....       0.060 sec  ( 71.1 % of DIIS)
  Form Q                    ....       0.000 sec  (  0.0 % of DIIS)
  Form QpQm                 ....       0.000 sec  (  0.0 % of DIIS)
  Exp/Cayley                ....       0.000 sec  (  0.0 % of DIIS)
  Orb update                ....       0.000 sec  (  0.0 % of DIIS)
  Wake-sleep                ....       0.001 sec  (  0.9 % of DIIS)
SOSCF solution              ....       0.010 sec  (  0.1%)
  MO trafo                  ....       0.008 sec  ( 74.5 % of SOSCF)
  Orb grad                  ....       0.000 sec  (  0.4 % of SOSCF)
  Rot update                ....       0.000 sec  (  0.2 % of SOSCF)
  Step                      ....       0.003 sec  ( 24.6 % of SOSCF)
Finished LeanSCF after  13.6 sec

Maximum memory used throughout the entire LEANSCF-calculation: 26.1 MB


-------------------------------------------------------------------------------
                          DFT DISPERSION CORRECTION                            
                                                                               
                                DFTD4 V3.4.0                                   
-------------------------------------------------------------------------------
The R2SCAN3C composite method is recognized
Using three-body term ABC
Active option DFTDOPT                   ...         5   

-------------------------   ----------------
Dispersion correction           -0.006335588
-------------------------   ----------------

------------------   -----------------
gCP correction             0.007502990
------------------   -----------------

-------------------------   --------------------
FINAL SINGLE POINT ENERGY      -386.004741715272
-------------------------   --------------------


------------------------------------------------------------------------------
                              ORCA PROPERTY CALCULATIONS
------------------------------------------------------------------------------

GBWName                                 ... sp.gbw
Number of atoms                         ...     19
Number of basis functions               ...    226
Max core memory                         ...   1024 MB

Electric properties:
Dipole moment                           ... YES
Quadrupole moment                       ...  NO
Static polarizability (Dipole/Dipole)   ...  NO
Static polarizability (Dipole/Quad.)    ...  NO
Static polarizability (Quad./Quad.)     ...  NO
Static polarizability (Velocity)        ...  NO

Atomic electric properties:
Dipole moment                           ...  NO
Quadrupole moment                       ...  NO
Static polarizability                   ...  NO

Choice of electric origin               ... Center of mass
Position of electric origin             ...    -0.000023     0.000000    -0.000000

General magnetic properties:
Magnetizability                         ...  NO

EPR properties:
g-Tensor (aka g-matrix)                 ...  NO
Zero-Field splitting spin-orbit         ...  NO
Zero-field splitting spin-spin          ...  NO
Hyperfine couplings                     ...  NO (   0 nuclei)
Quadrupole couplings                    ...  NO (   0 nuclei)
Contact density                         ...  NO (   0 nuclei)

NMR properties:
Chemical shifts                         ...  NO (   0 nuclei)
Spin-rotation constants                 ...  NO (   0 nuclei)
Spin-spin couplings                     ...  NO (   0 nuclei,    0 pairs)

Choice of magnetic origin               ... GIAO
Position of magnetic origin             ...     0.000000     0.000000     0.000000

Properties with geometric perturbations:
SCF Hessian                             ...  NO
IR spectrum                             ...  NO
VCD spectrum                            ...  NO
X-ray spectroscopy properties:
SCF XES/XAS/RIXS spectra                ...  NO


-------------
DIPOLE MOMENT
-------------

Method             : SCF
Type of density    : Electron Density
Multiplicity       :   1
Irrep              :   0
Energy             :  -386.0059091176497077 Eh
Relativity type    : 
Basis              : AO
                                X                 Y                 Z
Electronic contribution:      5.483219727      -3.310697197       0.000254814
Nuclear contribution   :     -5.325976945       3.146257036      -0.000251075
                        -----------------------------------------
Total Dipole Moment    :      0.157242782      -0.164440161       0.000003740
                        -----------------------------------------
Magnitude (a.u.)       :      0.227521117
Magnitude (Debye)      :      0.578312721



--------------------
Rotational spectrum 
--------------------
 
Rotational constants in cm-1:             0.075941             0.059512             0.033783 
Rotational constants in MHz :          2276.643752          1784.120738          1012.775171 

Dipole components along the rotational axes: 
x,y,z [a.u.] :     0.157247     0.164436     0.000004 
x,y,z [Debye]:     0.399689     0.417964     0.000010 

 

Dipole moment calculation done in   0.0 sec 

Maximum memory used throughout the entire PROP-calculation: 15.6 MB

--------------------------------
SUGGESTED CITATIONS FOR THIS RUN
--------------------------------

Below you find a list of papers that are relevant to this ORCA run
We neither can nor want to force you to cite these papers, but we appreciate if you do
You receive ORCA, which is the product of decades of hard work by many enthusiastic individuals, for free
The only thing we kindly ask in return is that you cite our papers,
We deeply appreciate it, if you show your appreciation for ORCA by not just citing the generic ORCA reference.

Please note that relegating all ORCA citations to the supporting information does *not* help us.
SI sections are not indexed - citations you put there will not count into any citation statistics
But we need these citations in order to attract the funding resources that allow us to do what we are doing

Therefore, if you are a happy ORCA user, please consider citing a few of the papers listed below in the main body of your paper

In addition to the list printed below, the program has created the file sp.bibtex that contains the list in bibtex format
You can import this file easily into all common literature databanks and citation aid programs


List of essential papers. We consider these as the minimum necessary citations

  1. Neese,F.
     Software update: the ORCA program system, version 5.0
     WIRES Comput. Molec. Sci., 2022 12(1)e1606
     doi.org/10.1002/wcms.1606
  2. Grimme,S.; Hansen,A.; Ehlert,S.; Mewes,J.
     r2SCAN-3c: A 'Swiss army knife' composite electronic-structure method
     J. Chem. Phys., 2021 154 064103
     doi.org/10.1063/5.0040021

List of papers to cite with high priority. The work reported in these papers was absolutely
necessary for this run to complete.
Our perspective: the developers of density functionals and basis sets usually get cited in chemistry papers
Good! But without the algorithms to do something with them, the functionals or basis sets would not do anything.
Hence, in our opinion, the algorithm design and method developments papers are equally worthy of getting cited

  1. Neese,F.
     An improvement of the resolution of the identity approximation for the formation of the Coulomb matrix
     J. Comp. Chem., 2003 24(14)1740-1747
     doi.org/10.1002/jcc.10318
  2. Neese,F.
     The SHARK Integral Generation and Digestion System
     J. Comp. Chem., 2022  1-16
     doi.org/10.1002/jcc.26942
  3. Lehtola,S.; Steigemann,C.; Oliveira,M.; Marques,M.
     Recent developments in Libxc - A comprehensive library of functionals for density functional theory
     Software X, 2018 7 
     doi.org/10.1016/j.softx.2017.11.002
  4. Caldeweyher,E.; Bannwarth,C.; Grimme,S.
     Extension of the D3 dispersion coefficient model
     J. Chem. Phys., 2017 147 034112
     doi.org/10.1063/1.4993215
  5. Caldeweyher,E.; Ehlert,S.; Hansen,A.; Neugebauer,H.; Spicher,S.; Bannwarth,C.; Grimme,S.
     A generally applicable atomic-charge dependent London dispersion correction
     J. Chem. Phys., 2019 150 154122
     doi.org/10.1063/1.5090222
  6. Caldeweyher,E.; Mewes,J.; Ehlert,S.; Grimme,S.
     Extension and evaluation of the D4 London-dispersion model for periodic systems
     Phys. Chem. Chem. Phys., 2020 22(16)8499-8512
     doi.org/10.1039/D0CP00502A
  7. Wittmann,L.; Gordiy,I.; Friede,M.; Helmich-Paris,B.; Grimme,S.; Hansen,A.; Bursch,M.
     Extension of the D3 and D4 London Dispersion Corrections to the full Actinides Series
     Phys. Chem. Chem. Phys., 2024 26(32)21379-21394
     doi.org/https://doi.org/10.1039/D4CP01514B 

List of suggested additional citations. These are papers that are important in the 'surrounding' of 
of this run, or papers that preceded the highly important papers. If you like your results we are grateful for a citation.

  1. Neese,F.
     The ORCA program system
     WIRES Comput. Molec. Sci., 2012 2(1)73-78
     doi.org/10.1002/wcms.81
  2. Neese,F.
     Software update: the ORCA program system, version 4.0
     WIRES Comput. Molec. Sci., 2018 8(1)1-6
     doi.org/10.1002/wcms.1327
  3. Neese,F.; Wennmohs,F.; Becker,U.; Riplinger,C.
     The ORCA quantum chemistry program package
     J. Chem. Phys., 2020 152 Art. No. L224108
     doi.org/10.1063/5.0004608

List of optional additional citations

  1. Neese,F.
     Approximate second-order SCF convergence for spin unrestricted wavefunctions
     Chem. Phys. Lett., 2000 325(1-3)93-98
     doi.org/10.1016/s0009-2614(00)00662-x

Timings for individual modules:

Sum of individual times          ...       14.396 sec (=   0.240 min)
Startup calculation              ...        0.661 sec (=   0.011 min)   4.6 %
SCF iterations                   ...       13.692 sec (=   0.228 min)  95.1 %
Property calculations            ...        0.042 sec (=   0.001 min)   0.3 %
                             ****ORCA TERMINATED NORMALLY****
TOTAL RUN TIME: 0 days 0 hours 0 minutes 14 seconds 473 msec
