
                                 *****************
                                 * O   R   C   A *
                                 *****************

                                            #,                                       
                                            ###                                      
                                            ####                                     
                                            #####                                    
                                            ######                                   
                                           ########,                                 
                                     ,,################,,,,,                         
                               ,,#################################,,                 
                          ,,##########################################,,             
                       ,#########################################, ''#####,          
                    ,#############################################,,   '####,        
                  ,##################################################,,,,####,       
                ,###########''''           ''''###############################       
              ,#####''   ,,,,##########,,,,          '''####'''          '####       
            ,##' ,,,,###########################,,,                        '##       
           ' ,,###''''                  '''############,,,                           
         ,,##''                                '''############,,,,        ,,,,,,###''
      ,#''                                            '''#######################'''  
     '                                                          ''''####''''         
             ,#######,   #######,   ,#######,      ##                                
            ,#'     '#,  ##    ##  ,#'     '#,    #''#        ,####,   ,####,        
            ##       ##  ##   ,#'  ##            #'  '#       #'       #'  '#        
            ##       ##  #######   ##           ,######,      #####,   #    #        
            '#,     ,#'  ##    ##  '#,     ,#' ,#      #,     #,   #   #,  ,#        
             '#######'   ##     ##  '#######'  #'      '#     '####' # '####'        



                #########################################################
                #                        -***-                          #
                #          Department of theory and spectroscopy        #
                #                                                       #
                #                      Frank Neese                      #
                #                                                       #
                #     Directorship, Architecture, Infrastructure        #
                #                    SHARK, DRIVERS                     #
                #        Core code/Algorithms in most modules           #
                #                                                       #
                #        Max Planck Institute fuer Kohlenforschung      #
                #                Kaiser Wilhelm Platz 1                 #
                #                 D-45470 Muelheim/Ruhr                 #
                #                      Germany                          #
                #                                                       #
                #                  All rights reserved                  #
                #                        -***-                          #
                #########################################################


                         Program Version 6.0.1  -  RELEASE   -


 With contributions from (in alphabetic order):
[Max-Planck-Institut fuer Kohlenforschung]                               
  Daniel Aravena         : Magnetic Suceptibility                        
  Michael Atanasov       : Ab Initio Ligand Field Theory (pilot matlab implementation)
  Alexander A. Auer      : GIAO ZORA, VPT2 properties, NMR spectrum      
  Ute Becker             : All parallelization in ORCA, NUMFREQ, NUMCALC 
  Giovanni Bistoni       : ED, misc. LED, open-shell LED, HFLD           
  Martin Brehm           : Molecular dynamics                            
  Dmytro Bykov           : pre 5.0 version of the SCF Hessian            
  Marcos Casanova-Páez   : Triplet and SCS-CIS(D). UHF-(DLPNO)-IP/EA/STEOM-CCSD. UHF-CVS-IP/STEOM-CCSD   
  Vijay G. Chilkuri      : MRCI spin determinant printing, contributions to CSF-ICE 
  Pauline Colinet        : FMM embedding                                 
  Dipayan Datta          : RHF DLPNO-CCSD density                        
  Achintya Kumar Dutta   : EOM-CC, STEOM-CC                              
  Nicolas Foglia         : Exact transition moments, OPA infrastructure, MCD improvements    
  Dmitry Ganyushin       : Spin-Orbit,Spin-Spin,Magnetic field MRCI      
  Miquel Garcia-Rates    : C-PCM and meta-GGA Hessian, CCSD/C-PCM, Gaussian charge scheme 
  Tiago L. C. Gouveia    : GS-ROHF, GS-ROCIS                             
  Yang Guo               : DLPNO-NEVPT2, F12-NEVPT2, CIM, IAO-localization        
  Andreas Hansen         : Spin unrestricted coupled pair/coupled cluster methods 
  Ingolf Harden          : AUTO-CI MPn and infrastructure                
  Benjamin Helmich-Paris : MC-RPA, TRAH-(SCF,CASSCF), AVAS, COSX integrals, SCF dyn. polar. 
  Lee Huntington         : MR-EOM, pCC                                   
  Robert Izsak           : Overlap fitted RIJCOSX, COSX-SCS-MP3, EOM     
  Riya Kayal             : Wick's Theorem for AUTO-CI, AUTO-CI UHF-CCSDT 
  Emily Kempfer          : AUTO-CI, RHF CISDT and CCSDT                  
  Christian Kollmar      : KDIIS, OOCD, Brueckner-CCSD(T), CCSD density, CASPT2, CASPT2-K, improved NEVPT2 
  Axel Koslowski         : Symmetry handling                             
  Simone Kossmann        : meta-GGA functionals, TD-DFT gradient, OOMP2, (MP2 Hessian; deprecated post 5.0) 
  Lucas Lang             : DCDCAS                                        
  Marvin Lechner         : AUTO-CI (C++ implementation), FIC-MRCC        
  Spencer Leger          : CASSCF response                               
  Dagmar Lenk            : GEPOL surface, SMD, ORCA-2-JSON               
  Dimitrios Liakos       : Extrapolation schemes; Compound Job, initial MDCI parallelization 
  Dimitrios Manganas     : Further ROCIS development; embedding schemes. LFT, Crystal Embedding 
  Dimitrios Pantazis     : SARC Basis sets                               
  Anastasios Papadopoulos: AUTO-CI, single reference methods and gradients 
  Taras Petrenko         : pre 6.0 DFT Hessian and TD-DFT gradient, (ASA, deprecated), ECA, 1-Electron XAS/XES, NRVS 
  Peter Pinski           : DLPNO-MP2, DLPNO-MP2 Gradient                 
  Christoph Reimann      : Effective Core Potentials                     
  Marius Retegan         : Local ZFS, SOC                                
  Christoph Riplinger    : Optimizer, TS searches, QM/MM, DLPNO-CCSD(T), (RO)-DLPNO pert. Triples 
  Michael Roemelt        : Original ROCIS implementation                 
  Masaaki Saitow         : Open-shell DLPNO-CCSD energy and density      
  Barbara Sandhoefer     : DKH picture change effects                    
  Kantharuban Sivalingam : CASSCF convergence/infrastructure, NEVPT2 and variants, FIC-MRCI 
  Bernardo de Souza      : ESD, SOC TD-DFT                               
  Georgi L. Stoychev     : AutoAux, RI-MP2 NMR, DLPNO-MP2 response, X2C  
  Van Anh Tran           : RI-MP2 g-tensors                              
  Willem Van den Heuvel  : Paramagnetic NMR                              
  Zikuan Wang            : NOTCH, Electric field optimization            
  Frank Wennmohs         : Technical directorship and infrastructure     
  Hang Xu                : AUTO-CI-Response properties                   
                                                                         
[FACCTs GmbH]                                                            
  Markus Bursch, Miquel Garcia-Rates, Christoph Riplinger, Bernardo de Souza, Georgi L. Stoychev 
                                                                 
  APM, Basis sets (HGBS, AHGBS, def-TZVP (Ac-Lr), def2-XVPD (La-Lu)), CI-OPT, improved COSX, DLPNO-Multilevel,           
  DOCKER, DRACO, updates on ESD, GOAT, IRC, LR-CPCM, MBIS, meta-GGA TD-DFT gradient, ML-optimized integration grids, 
  MM, NACMEs, nearIR, NEB, NEB-TS, NL-DFT gradient (VV10), 2- and 3-layer-ONIOM, interface openCOSMO-RS, QMMM,   
  Crystal-QMMM, SF, symmetry and pop. for TD-DFT, r2SCAN hybrids, SOLVATOR                                   
                                                                         
[Other institutions]                                                     
  V. Asgeirsson          : NEB                                           
  Christoph Bannwarth    : sTDA-DFT, sTD-DFT, PBEh-3c, B97-3c, D3        
  Sebastian Ehlert       : rSCAN, r2SCAN, r2SCAN-3c, D4, dhf basis sets  
  Marvin Friede          : D4 for Fr, Ra, Ac-Lr                          
  Lars Goerigk           : TD-DFT with DH, B97 family of functionals     
  Stefan Grimme          : VdW corrections, initial TS optimization, DFT functionals, gCP, sTDA/sTD-DF 
  Waldemar Hujo          : DFT-NL                                        
  H. Jonsson             : NEB                                           
  Holger Kruse           : gCP                                           
  Marcel Mueller         : wB97X-3c, vDZP basis set                      
  Hagen Neugebauer       : wr2SCAN                                       
  Tobias Risthaus        : range-separated hybrid DFT                    
  Lukas Wittmann         : regularized MP2, r2SCAN double-hybrids, wr2SCAN        
                                                                         
We gratefully acknowledge several colleagues who have allowed us to      
interface, adapt or use parts of their codes:                            
  Ed Valeev, F. Pavosevic, A. Kumar             : LibInt (2-el integral package), F12 methods 
  Garnet Chan, S. Sharma, J. Yang, R. Olivares  : DMRG                   
  Ulf Ekstrom                                   : XCFun DFT Library      
  Mihaly Kallay                                 : mrcc  (arbitrary order and MRCC methods)
  Frank Weinhold                                : gennbo (NPA and NBO analysis)           
  Simon Mueller                                 : openCOSMO-RS                            
  Christopher J. Cramer and Donald G. Truhlar   : smd solvation model                     
  S Lehtola, MJT Oliveira, MAL Marques          : LibXC Library                           
  Liviu Ungur et al                             : ANISO software                          


 Your calculation uses the libint2 library for the computation of 2-el integrals
 For citations please refer to: http://libint.valeyev.net

 Your ORCA version has been built with support for libXC version: 6.2.2
 For citations please refer to: https://libxc.gitlab.io

 This ORCA versions uses:
   CBLAS   interface :  Fast vector & matrix operations
   LAPACKE interface :  Fast linear algebra routines
   SCALAPACK package :  Parallel linear algebra routines
   Shared memory     :  Shared parallel matrices
   BLAS/LAPACK       :  OpenBLAS 0.3.27  USE64BITINT DYNAMIC_ARCH NO_AFFINITY Zen SINGLE_THREADED
        Core in use  :  Zen
   Copyright (c) 2011-2014, The OpenBLAS Project


Your calculation utilizes the geometrical counterpoise correction gCP
Please cite in your paper:
H.Kruse, S. Grimme J.Chem.Phys., 136, (2012), 154101 
   

Your calculation utilizes the atom-pairwise dispersion correction
based on EEQ partial charges (D4)


================================================================================

----- Orbital basis set information -----
Your calculation utilizes the basis: def2-mTZVPP
   Stefan Grimme, Andreas Hansen, Sebastian Ehlert, and Jan-Michael Mewes 
   J. Chem. Phys. 154, 064103 (2021). DOI: 10.1063/5.0040021

----- AuxJ basis set information -----
Your calculation utilizes the auxiliary basis: def2/J
   F. Weigend, Phys. Chem. Chem. Phys. 8, 1057 (2006).

================================================================================
                                        WARNINGS
                       Please study these warnings very carefully!
================================================================================

WARNING: Old DensityContainer found on disk!
         Will remove this file - 
         If you want to keep old densities, please start your calculation with a different basename. 



WARNING: SCAN, rSCAN, or r2SCAN functional requested.
  ===> : libXC variant has now been activated.



================================================================================
                                       INPUT FILE
================================================================================
NAME = sp.inp
|  1> ! r2scan-3c def2/J RI DEFGRID2 scfconv6 printgap
|  2> %output
|  3>     printlevel normal
|  4> end
|  5> * xyz 0 1
|  6> C -2.2552821182 0.2891412165 -0.629335252
|  7> C -1.3000943935 0.5142216722 0.543712107
|  8> C 0.0070918848 -0.192575323 0.2706531711
|  9> O 0.1764594085 -1.381968861 0.310851587
| 10> O 0.9704051186 0.6799064887 -0.0527367049
| 11> C 2.2414294082 0.1267114265 -0.3654412028
| 12> H -2.4032004292 -0.7759604009 -0.7896740876
| 13> H -3.2177265309 0.7497440941 -0.421773269
| 14> H -1.8503121796 0.7257154566 -1.5394177899
| 15> H -1.7333374218 0.0939763023 1.4522540835
| 16> H -1.108681568 1.5774326664 0.6841479078
| 17> H 2.6188539633 -0.4543963116 0.4783109313
| 18> H 2.8971377337 0.9676300978 -0.5754817458
| 19> H 2.1655507049 -0.5282769132 -1.2357463265
| 20> *
| 21> 
| 22>                          ****END OF INPUT****
================================================================================

                       ****************************
                       * Single Point Calculation *
                       ****************************

---------------------------------
CARTESIAN COORDINATES (ANGSTROEM)
---------------------------------
  C     -2.255282    0.289141   -0.629335
  C     -1.300094    0.514222    0.543712
  C      0.007092   -0.192575    0.270653
  O      0.176459   -1.381969    0.310852
  O      0.970405    0.679906   -0.052737
  C      2.241429    0.126711   -0.365441
  H     -2.403200   -0.775960   -0.789674
  H     -3.217727    0.749744   -0.421773
  H     -1.850312    0.725715   -1.539418
  H     -1.733337    0.093976    1.452254
  H     -1.108682    1.577433    0.684148
  H      2.618854   -0.454396    0.478311
  H      2.897138    0.967630   -0.575482
  H      2.165551   -0.528277   -1.235746

----------------------------
CARTESIAN COORDINATES (A.U.)
----------------------------
  NO LB      ZA    FRAG     MASS         X           Y           Z
   0 C     6.0000    0    12.011   -4.261866    0.546398   -1.189271
   1 C     6.0000    0    12.011   -2.456822    0.971738    1.027467
   2 C     6.0000    0    12.011    0.013402   -0.363915    0.511460
   3 O     8.0000    0    15.999    0.333460   -2.611543    0.587424
   4 O     8.0000    0    15.999    1.833800    1.284837   -0.099658
   5 C     6.0000    0    12.011    4.235688    0.239450   -0.690584
   6 H     1.0000    0     1.008   -4.541391   -1.466353   -1.492268
   7 H     1.0000    0     1.008   -6.080622    1.416811   -0.797036
   8 H     1.0000    0     1.008   -3.496583    1.371403   -2.909078
   9 H     1.0000    0     1.008   -3.275533    0.177589    2.744362
  10 H     1.0000    0     1.008   -2.095105    2.980916    1.292852
  11 H     1.0000    0     1.008    4.948917   -0.858685    0.903877
  12 H     1.0000    0     1.008    5.474797    1.828556   -1.087503
  13 H     1.0000    0     1.008    4.092298   -0.998299   -2.335222

--------------------------------
INTERNAL COORDINATES (ANGSTROEM)
--------------------------------
 C      0   0   0     0.000000000000     0.00000000     0.00000000
 C      1   0   0     1.529406717460     0.00000000     0.00000000
 C      2   1   0     1.510913346646   109.44345214     0.00000000
 O      3   2   1     1.202064165908   125.36049957   286.98237598
 O      3   2   1     1.339319943128   111.17220406   105.81599414
 C      5   3   2     1.421024850100   116.28694447   181.53878981
 H      1   2   3     1.087211950044   110.01470274    57.10821087
 H      1   2   3     1.086984928680   110.13112547   177.07202319
 H      1   2   3     1.087588131638   110.49855535   297.08537694
 H      2   1   3     1.090758550531   109.51764413   241.42212411
 H      2   1   3     1.089393731440   110.62456078   120.28685981
 H      6   5   3     1.091811871098   110.26333832   301.38754194
 H      6   5   3     1.086836993102   106.31707838   181.40634070
 H      6   5   3     1.091878340794   110.28977834    61.45296065

---------------------------
INTERNAL COORDINATES (A.U.)
---------------------------
 C      0   0   0     0.000000000000     0.00000000     0.00000000
 C      1   0   0     2.890159843379     0.00000000     0.00000000
 C      2   1   0     2.855212437248   109.44345214     0.00000000
 O      3   2   1     2.271572068968   125.36049957   286.98237598
 O      3   2   1     2.530947898211   111.17220406   105.81599414
 C      5   3   2     2.685347796186   116.28694447   181.53878981
 H      1   2   3     2.054532835110   110.01470274    57.10821087
 H      1   2   3     2.054103826905   110.13112547   177.07202319
 H      1   2   3     2.055243715298   110.49855535   297.08537694
 H      2   1   3     2.061234938736   109.51764413   241.42212411
 H      2   1   3     2.058655804431   110.62456078   120.28685981
 H      6   5   3     2.063225426139   110.26333832   301.38754194
 H      6   5   3     2.053824269177   106.31707838   181.40634070
 H      6   5   3     2.063351035662   110.28977834    61.45296065

---------------------
BASIS SET INFORMATION
---------------------
There are 3 groups of distinct atoms

 Group   1 Type C   : 11s6p1d contracted to 5s3p1d pattern {62111/411/1}
 Group   2 Type O   : 11s6p2d contracted to 5s3p2d pattern {62111/411/11}
 Group   3 Type H   : 4s1p contracted to 2s1p pattern {31/1}

Atom   0C    basis set group =>   1
Atom   1C    basis set group =>   1
Atom   2C    basis set group =>   1
Atom   3O    basis set group =>   2
Atom   4O    basis set group =>   2
Atom   5C    basis set group =>   1
Atom   6H    basis set group =>   3
Atom   7H    basis set group =>   3
Atom   8H    basis set group =>   3
Atom   9H    basis set group =>   3
Atom  10H    basis set group =>   3
Atom  11H    basis set group =>   3
Atom  12H    basis set group =>   3
Atom  13H    basis set group =>   3
---------------------------------
AUXILIARY/J BASIS SET INFORMATION
---------------------------------
There are 3 groups of distinct atoms

 Group   1 Type C   : 12s5p4d2f1g contracted to 6s4p3d1f1g pattern {711111/2111/211/2/1}
 Group   2 Type O   : 12s5p4d2f1g contracted to 6s4p3d1f1g pattern {711111/2111/211/2/1}
 Group   3 Type H   : 5s2p1d contracted to 3s1p1d pattern {311/2/1}

Atom   0C    basis set group =>   1
Atom   1C    basis set group =>   1
Atom   2C    basis set group =>   1
Atom   3O    basis set group =>   2
Atom   4O    basis set group =>   2
Atom   5C    basis set group =>   1
Atom   6H    basis set group =>   3
Atom   7H    basis set group =>   3
Atom   8H    basis set group =>   3
Atom   9H    basis set group =>   3
Atom  10H    basis set group =>   3
Atom  11H    basis set group =>   3
Atom  12H    basis set group =>   3
Atom  13H    basis set group =>   3

Checking for AutoStart:
The File: sp.gbw exists
Trying to determine its content:
     ... Fine, the file contains calculation information
     ... Fine, the calculation information was read
     ... Fine, the file contains a basis set
     ... Fine, the basis set was read
     ... Fine, the file contains a geometry
     ... Fine, the geometry was read
     ... Fine, the file contains a set of orbitals
     ... Fine, the orbitals can be read
     => possible old guess file was deleted
     => GBW file was renamed to GES file
     => GES file is set as startup file
     => Guess is set to MORead
     ... now leaving AutoStart

------------------------------------------------------------------------------
                             ORCA STARTUP CALCULATIONS
                           -- RI-GTO INTEGRALS CHOSEN --
------------------------------------------------------------------------------
------------------------------------------------------------------------------
                   ___                                                        
                  /   \      - P O W E R E D   B Y -                         
                 /     \                                                     
                 |  |  |   _    _      __       _____    __    __             
                 |  |  |  | |  | |    /  \     |  _  \  |  |  /  |          
                  \  \/   | |  | |   /    \    | | | |  |  | /  /          
                 / \  \   | |__| |  /  /\  \   | |_| |  |  |/  /          
                |  |  |   |  __  | /  /__\  \  |    /   |      \           
                |  |  |   | |  | | |   __   |  |    \   |  |\   \          
                \     /   | |  | | |  |  |  |  | |\  \  |  | \   \       
                 \___/    |_|  |_| |__|  |__|  |_| \__\ |__|  \__/        
                                                                              
                      - O R C A' S   B I G   F R I E N D -                    
                                      &                                       
                       - I N T E G R A L  F E E D E R -                       
                                                                              
 v1 FN, 2020, v2 2021, v3 2022-2024                                           
------------------------------------------------------------------------------


----------------------
SHARK INTEGRAL PACKAGE
----------------------

Number of atoms                             ...     14
Number of basis functions                   ...    164
Number of shells                            ...     80
Maximum angular momentum                    ...      2
Integral batch strategy                     ... SHARK/LIBINT Hybrid
RI-J (if used) integral strategy            ... SPLIT-RIJ (Revised 2003 algorithm where possible)
Printlevel                                  ...      1
Contraction scheme used                     ... SEGMENTED contraction
Prescreening option                         ... SCHWARTZ
   Thresh                                   ... 1.000e-10
   Tcut                                     ... 1.000e-11
   Tpresel                                  ... 1.000e-11 
Coulomb Range Separation                    ... NOT USED
Exchange Range Separation                   ... NOT USED
Multipole approximations                    ... NOT USED
Finite Nucleus Model                        ... NOT USED
CABS basis                                  ... NOT available
Auxiliary Coulomb fitting basis             ... AVAILABLE
   # of basis functions in Aux-J            ...    382
   # of shells in Aux-J                     ...    130
   Maximum angular momentum in Aux-J        ...      4
Auxiliary J/K fitting basis                 ... NOT available
Auxiliary Correlation fitting basis         ... NOT available
Auxiliary 'external' fitting basis          ... NOT available

Checking pre-screening integrals            ... done (  0.0 sec) Dimension = 80
Check shell pair data                       ... done (  0.0 sec)
Shell pair information
Shell pair cut-off parameter TPreSel        ...   1.0e-11
Total number of shell pairs                 ...      3240
Shell pairs after pre-screening             ...      2990
Total number of primitive shell pairs       ...     11481
Primitive shell pairs kept                  ...      7835
          la=0 lb=0:    978 shell pairs
          la=1 lb=0:   1101 shell pairs
          la=1 lb=1:    323 shell pairs
          la=2 lb=0:    351 shell pairs
          la=2 lb=1:    201 shell pairs
          la=2 lb=2:     36 shell pairs

Calculating one electron integrals          ... done (  0.0 sec)
Calculating RI/J V-Matrix + Cholesky decomp.... done (  0.0 sec)
Calculating Nuclear repulsion               ... done (  0.0 sec) ENN=    246.918102465613 Eh

Diagonalization of the overlap matrix:
Smallest eigenvalue                        ... 2.656e-04
Time for diagonalization                   ...    0.002 sec
Threshold for overlap eigenvalues          ... 1.000e-07
Number of eigenvalues below threshold      ... 0
Time for construction of square roots      ...    0.001 sec
Total time needed                          ...    0.005 sec

-------------------
DFT GRID GENERATION
-------------------

General Integration Accuracy     IntAcc      ... 4.388
Radial Grid Type                 RadialGrid  ... OptM3 with GC (2021)
Angular Grid (max. ang.)         AngularGrid ... 4 (Lebedev-302)
Angular grid pruning method      GridPruning ... 4 (adaptive)
Weight generation scheme         WeightScheme... mBecke (2022)
Basis function cutoff            BFCut       ... 1.0000e-10
Integration weight cutoff        WCut        ... 1.0000e-14
Partially contracted basis set               ... off
Rotationally invariant grid construction     ... off
Angular grids for H and He will be reduced by one unit
Diffuse basis detected: some atoms will have their outermost
                        angular grid increased by 1.

Total number of grid points                  ...    62809
Total number of batches                      ...      987
Average number of points per batch           ...       63
Average number of grid points per atom       ...     4486
Initializing property integral containers    ... done (  0.0 sec)

SHARK setup successfully completed in   0.6 seconds

Maximum memory used throughout the entire STARTUP-calculation: 28.5 MB
-------------------------------------------------------------------------------
                                 ORCA GUESS
                   Start orbitals & Density for SCF / CASSCF
-------------------------------------------------------------------------------

------------
SCF SETTINGS
------------
Hamiltonian:
 Density Functional     Method          .... DFT(GTOs)
  Functional kind                       .... Exchange
  Functional name                       .... Re-regularized SCAN exchange by Furness et al
  Functional family                     .... MGGA
  Functional refs                              
    [ 0] J. W. Furness, A. D. Kaplan, J. Ning, J. P. Perdew, and J. Sun.,  J. Phys. Chem. Lett. 11, 8208-8215 (2020), doi: 10.1021/acs.jpclett.0c02405
    [ 1] J. W. Furness, A. D. Kaplan, J. Ning, J. P. Perdew, and J. Sun.,  J. Phys. Chem. Lett. 11, 9248-9248 (2020), doi: 10.1021/acs.jpclett.0c03077
  Functional external parameters        .... 6
    Parameter  0 _c1        =  6.670000e-01 : c1 parameter        
    Parameter  1 _c2        =  8.000000e-01 : c2 parameter        
    Parameter  2 _d         =  1.240000e+00 : d parameter         
    Parameter  3 _k1        =  6.500000e-02 : k1 parameter        
    Parameter  4 _eta       =  1.000000e-03 : eta parameter       
    Parameter  5 _dp2       =  3.610000e-01 : dp2 parameter       
  Functional kind                       .... Correlation
  Functional name                       .... Re-regularized SCAN correlation by Furness et al
  Functional family                     .... MGGA
  Functional refs                              
    [ 0] J. W. Furness, A. D. Kaplan, J. Ning, J. P. Perdew, and J. Sun.,  J. Phys. Chem. Lett. 11, 8208-8215 (2020), doi: 10.1021/acs.jpclett.0c02405
    [ 1] J. W. Furness, A. D. Kaplan, J. Ning, J. P. Perdew, and J. Sun.,  J. Phys. Chem. Lett. 11, 9248-9248 (2020), doi: 10.1021/acs.jpclett.0c03077
  Functional external parameters        .... 1
    Parameter  0 _eta       =  1.000000e-03 : Regularization parameter
 Gradients option       PostSCFGGA      .... off
 RI-approximation to the Coulomb term is turned on
   Number of AuxJ basis functions       .... 382


General Settings:
 Integral files         IntName         .... sp
 Hartree-Fock type      HFTyp           .... RHF
 Total Charge           Charge          ....    0
 Multiplicity           Mult            ....    1
 Number of Electrons    NEL             ....   48
 Basis Dimension        Dim             ....  164
 Nuclear Repulsion      ENuc            ....    246.9181024656 Eh

Convergence Acceleration:
 AO-DIIS                CNVDIIS         .... on
   Start iteration      DIISMaxIt       ....    12
   Startup error        DIISStart       ....  0.200000
   # of expansion vecs  DIISMaxEq       ....     5
   Bias factor          DIISBfac        ....   1.050
   Max. coefficient     DIISMaxC        ....  10.000
 MO-DIIS                CNVKDIIS        .... off
 Trust-Rad. Augm. Hess. CNVTRAH         .... auto
   Auto Start mean grad. ratio tolernc. ....  1.125000
   Auto Start start iteration           ....     1
   Auto Start num. interpolation iter.  ....    10
   Max. Number of Micro iterations      ....    24
   Max. Number of Macro iterations      .... Maxiter - #DIIS iter
   Number of Davidson start vectors     ....     2
   Converg. threshold    (grad. norm)   ....   3.330e-04
   Grad. Scal. Fac. for Micro threshold ....   0.100
   Minimum threshold for Micro iter.    ....   1.000e-02
   NR start threshold (gradient norm)   ....   1.000e-04
   Initial trust radius                 ....   0.400
   Minimum AH scaling param. (alpha)    ....   1.000
   Maximum AH scaling param. (alpha)    .... 1000.000
   Quad. conv. algorithm                .... NR
   White noise on init. David. guess    .... on
   Maximum white noise                  ....   0.010
   Pseudo random numbers                .... off
   Inactive MOs                         .... canonical
   Orbital update algorithm             .... Taylor
   Preconditioner                       .... Diag
   Full preconditioner red. dimension   ....   250
   COSX micro iterations for RIJONX calc.... off
 SOSCF                  CNVSOSCF        .... on
   Start iteration      SOSCFMaxIt      ....   150
   Startup grad/error   SOSCFStart      ....  0.003300
   Hessian update       SOSCFHessUp     .... L-BFGS
 Level Shifting         CNVShift        .... on
   Level shift para.    LevelShift      ....    0.2500
   Turn off err/grad.   ShiftErr        ....    0.0010
 Zerner damping         CNVZerner       .... off
 Static damping         CNVDamp         .... on
   Fraction old density DampFac         ....    0.7000
   Max. Damping (<1)    DampMax         ....    0.9800
   Min. Damping (>=0)   DampMin         ....    0.0000
   Turn off err/grad.   DampErr         ....    0.1000

SCF Procedure:
 Maximum # iterations   MaxIter         ....   125
 SCF integral mode      SCFMode         .... Direct
   Integral package                     .... SHARK and LIBINT hybrid scheme
 Reset frequency        DirectResetFreq ....    20
 Integral Threshold     Thresh          ....  1.000e-10 Eh
 Primitive CutOff       TCut            ....  1.000e-11 Eh

Convergence Tolerance:
 Convergence Check Mode ConvCheckMode   .... Total+1el-Energy
 Convergence forced     ConvForced      .... 0
 Energy Change          TolE            ....  1.000e-06 Eh
 1-El. energy change                    ....  1.000e-03 Eh
 Orbital Gradient       TolG            ....  3.330e-04
 Orbital Rotation angle TolX            ....  3.330e-04
 DIIS Error             TolErr          ....  1.000e-06

---------------------
INITIAL GUESS: MOREAD
---------------------
Guess MOs are being read from file: sp.ges
Input Geometry matches current geometry (good)
Atom 0: N(Shells)= 9 and 6 - projection required
Input basis set needs projection
NBasis(read)= 100
NBasis(calc)= 164
Basis set overlap was calculated
Using GuessMode=FMatrix for the initial guess
C*T matrix was formed
Effective Fockian was calculated
Effective Fockian was diagonalized
Initial density was built
                      ------------------
                      INITIAL GUESS DONE (   0.0 sec)
                      ------------------
             **** ENERGY FILE WAS UPDATED (sp.en.tmp) ****
Finished Guess after   0.1 sec
Maximum memory used throughout the entire GUESS-calculation: 11.5 MB

-------------------------------------------------------------------------------------------
                                      ORCA LEAN-SCF
                              memory conserving SCF solver
-------------------------------------------------------------------------------------------

----------------------------------------D-I-I-S--------------------------------------------
Iteration    Energy (Eh)           Delta-E    RMSDP     MaxDP     DIISErr   Damp  Time(sec)
-------------------------------------------------------------------------------------------
               ***  Starting incremental Fock matrix formation  ***
    1    -307.4840687008194209     0.00e+00  3.70e-03  1.23e-01  6.26e-01  0.700   1.8
    2    -307.5299730501760678    -4.59e-02  3.03e-03  9.15e-02  4.40e-01  0.700   1.3
    3    -307.5624182513992082    -3.24e-02  2.23e-03  6.47e-02  3.08e-01  0.700   1.5
    4    -307.5851968012236739    -2.28e-02  1.60e-03  4.56e-02  2.16e-01  0.700   1.2
                               ***Turning on AO-DIIS***
    5    -307.6011733824220755    -1.60e-02  1.16e-03  3.27e-02  1.51e-01  0.700   1.8
    6    -307.6123714502915618    -1.12e-02  8.21e-04  2.31e-02  1.06e-01  0.700   1.2
    7    -307.6202210738559870    -7.85e-03  5.79e-04  1.62e-02  7.41e-02  0.700   1.2
    8    -307.6257203740050272    -5.50e-03  1.36e-03  3.79e-02  5.19e-02  0.000   1.3
                              *** Initializing SOSCF ***
---------------------------------------S-O-S-C-F--------------------------------------
Iteration    Energy (Eh)           Delta-E    RMSDP     MaxDP     MaxGrad    Time(sec)
--------------------------------------------------------------------------------------
    9    -307.6385678695741035    -1.28e-02  7.93e-06  2.60e-04  8.09e-05     1.2
                  *** Gradient check signals convergence ***

               *****************************************************
               *                     SUCCESS                       *
               *           SCF CONVERGED AFTER   9 CYCLES          *
               *****************************************************

             **** ENERGY FILE WAS UPDATED (sp.en.tmp) ****

----------------
TOTAL SCF ENERGY
----------------

Total Energy       :       -307.63856786957410 Eh           -8371.27102 eV

Components:
Nuclear Repulsion  :        246.91810246561329 Eh            6718.98315 eV
Electronic Energy  :       -554.55667033518739 Eh          -15090.25417 eV
One Electron Energy:       -907.27116134630137 Eh          -24688.10342 eV
Two Electron Energy:        352.71449101111398 Eh            9597.84925 eV

Virial components:
Potential Energy   :       -614.07884985162923 Eh          -16709.93502 eV
Kinetic Energy     :        306.44028198205513 Eh            8338.66400 eV
Virial Ratio       :          2.00391034063723

DFT components:
N(Alpha)           :       24.000001529248 electrons
N(Beta)            :       24.000001529248 electrons
N(Total)           :       48.000003058495 electrons
E(X)               :      -40.237561199324 Eh       
E(C)               :       -1.538282530128 Eh       
E(XC)              :      -41.775843729452 Eh       

---------------
SCF CONVERGENCE
---------------

  Last Energy change         ...    1.2847e-02  Tolerance :   1.0000e-06
  Last MAX-Density change    ...    2.5957e-04  Tolerance :   1.0000e-05
  Last RMS-Density change    ...    7.9332e-06  Tolerance :   1.0000e-06
  Last DIIS Error            ...    8.0929e-05  Tolerance :   1.0000e-06
  Last Orbital Gradient      ...    8.0929e-05  Tolerance :   3.3300e-04
  Last Orbital Rotation      ...    8.0929e-05  Tolerance :   3.3300e-04


----------------
ORBITAL ENERGIES
----------------

  NO   OCC          E(Eh)            E(eV) 
   0   2.0000     -18.999580      -517.0049 
   1   2.0000     -18.932546      -515.1808 
   2   2.0000     -10.152822      -276.2723 
   3   2.0000     -10.085232      -274.4331 
   4   2.0000     -10.044828      -273.3337 
   5   2.0000     -10.031442      -272.9694 
   6   2.0000      -1.074550       -29.2400 
   7   2.0000      -0.983120       -26.7520 
   8   2.0000      -0.760459       -20.6931 
   9   2.0000      -0.694526       -18.8990 
  10   2.0000      -0.611589       -16.6422 
  11   2.0000      -0.533356       -14.5134 
  12   2.0000      -0.471542       -12.8313 
  13   2.0000      -0.452942       -12.3252 
  14   2.0000      -0.448508       -12.2045 
  15   2.0000      -0.412556       -11.2262 
  16   2.0000      -0.401148       -10.9158 
  17   2.0000      -0.377428       -10.2703 
  18   2.0000      -0.348795        -9.4912 
  19   2.0000      -0.334091        -9.0911 
  20   2.0000      -0.325884        -8.8678 
  21   2.0000      -0.319590        -8.6965 
  22   2.0000      -0.275777        -7.5043 
  23   2.0000      -0.239402        -6.5144 
  24   0.0000      -0.016542        -0.4501 
  25   0.0000       0.065834         1.7914 
  26   0.0000       0.099230         2.7002 
  27   0.0000       0.120248         3.2721 
  28   0.0000       0.128552         3.4981 
  29   0.0000       0.140738         3.8297 
  30   0.0000       0.160376         4.3641 
  31   0.0000       0.169572         4.6143 
  32   0.0000       0.179358         4.8806 
  33   0.0000       0.181714         4.9447 
  34   0.0000       0.185495         5.0476 
*Only the first 10 virtual orbitals were printed.

                    ********************************
                    * MULLIKEN POPULATION ANALYSIS *
                    ********************************

-----------------------
MULLIKEN ATOMIC CHARGES
-----------------------
   0 C :   -0.462904
   1 C :   -0.291779
   2 C :    0.403093
   3 O :   -0.417135
   4 O :   -0.185307
   5 C :   -0.300105
   6 H :    0.167164
   7 H :    0.152422
   8 H :    0.147657
   9 H :    0.158948
  10 H :    0.158583
  11 H :    0.160794
  12 H :    0.149535
  13 H :    0.159036
Sum of atomic charges:    0.0000000

--------------------------------
MULLIKEN REDUCED ORBITAL CHARGES
--------------------------------
  0 C s       :     3.320651  s :     3.320651
      pz      :     0.984375  p :     3.115383
      px      :     1.027548
      py      :     1.103460
      dz2     :     0.006813  d :     0.026870
      dxz     :     0.006178
      dyz     :     0.003830
      dx2y2   :     0.006191
      dxy     :     0.003858

  1 C s       :     3.219788  s :     3.219788
      pz      :     1.016867  p :     3.037265
      px      :     0.960511
      py      :     1.059887
      dz2     :     0.008243  d :     0.034726
      dxz     :     0.006971
      dyz     :     0.004695
      dx2y2   :     0.007608
      dxy     :     0.007209

  2 C s       :     3.139716  s :     3.139716
      pz      :     0.757705  p :     2.332074
      px      :     0.814433
      py      :     0.759936
      dz2     :     0.007358  d :     0.125117
      dxz     :     0.009179
      dyz     :     0.027796
      dx2y2   :     0.028470
      dxy     :     0.052313

  3 O s       :     3.838971  s :     3.838971
      pz      :     1.471789  p :     4.557547
      px      :     1.771863
      py      :     1.313895
      dz2     :     0.003051  d :     0.020618
      dxz     :     0.001036
      dyz     :     0.009226
      dx2y2   :     0.008037
      dxy     :    -0.000732

  4 O s       :     3.709405  s :     3.709405
      pz      :     1.702147  p :     4.446452
      px      :     1.139628
      py      :     1.604676
      dz2     :     0.003041  d :     0.029450
      dxz     :     0.000898
      dyz     :     0.007480
      dx2y2   :     0.004624
      dxy     :     0.013407

  5 C s       :     3.312190  s :     3.312190
      pz      :     1.098660  p :     2.943566
      px      :     0.783711
      py      :     1.061194
      dz2     :     0.006273  d :     0.044349
      dxz     :     0.008663
      dyz     :     0.008534
      dx2y2   :     0.008417
      dxy     :     0.012463

  6 H s       :     0.814683  s :     0.814683
      pz      :     0.003698  p :     0.018153
      px      :     0.003625
      py      :     0.010830

  7 H s       :     0.829279  s :     0.829279
      pz      :     0.003795  p :     0.018300
      px      :     0.009508
      py      :     0.004997

  8 H s       :     0.834155  s :     0.834155
      pz      :     0.008878  p :     0.018188
      px      :     0.004489
      py      :     0.004821

  9 H s       :     0.823129  s :     0.823129
      pz      :     0.008916  p :     0.017923
      px      :     0.004590
      py      :     0.004418

 10 H s       :     0.823596  s :     0.823596
      pz      :     0.003474  p :     0.017821
      px      :     0.003474
      py      :     0.010873

 11 H s       :     0.821481  s :     0.821481
      pz      :     0.008131  p :     0.017725
      px      :     0.003524
      py      :     0.006071

 12 H s       :     0.832834  s :     0.832834
      pz      :     0.003969  p :     0.017631
      px      :     0.005774
      py      :     0.007888

 13 H s       :     0.823272  s :     0.823272
      pz      :     0.008625  p :     0.017692
      px      :     0.002357
      py      :     0.006709


------------------------
MULLIKEN OVERLAP CHARGES
------------------------
B(  0-C ,  1-C ) :   0.4914 B(  0-C ,  2-C ) :  -0.1179 B(  0-C ,  6-H ) :   0.8485 
B(  0-C ,  7-H ) :   0.8167 B(  0-C ,  8-H ) :   0.8304 B(  0-C ,  9-H ) :  -0.0565 
B(  1-C ,  2-C ) :   0.4738 B(  1-C ,  3-O ) :  -0.1081 B(  1-C ,  4-O ) :  -0.0602 
B(  1-C ,  6-H ) :  -0.0647 B(  1-C ,  7-H ) :  -0.0972 B(  1-C ,  8-H ) :  -0.0734 
B(  1-C ,  9-H ) :   0.8346 B(  1-C , 10-H ) :   0.8680 B(  2-C ,  3-O ) :   0.9425 
B(  2-C ,  4-O ) :   0.3886 B(  2-C ,  5-C ) :  -0.1921 B(  2-C ,  9-H ) :  -0.0629 
B(  2-C , 10-H ) :  -0.1400 B(  3-O ,  4-O ) :  -0.2399 B(  3-O ,  5-C ) :   0.0615 
B(  4-O ,  5-C ) :   0.3495 B(  4-O , 11-H ) :  -0.0627 B(  4-O , 12-H ) :  -0.0871 
B(  4-O , 13-H ) :  -0.0641 B(  5-C , 11-H ) :   0.8216 B(  5-C , 12-H ) :   0.7918 
B(  5-C , 13-H ) :   0.8179 B( 11-H , 13-H ) :  -0.0574 


                     *******************************
                     * LOEWDIN POPULATION ANALYSIS *
                     *******************************

----------------------
LOEWDIN ATOMIC CHARGES
----------------------
   0 C :   -0.392902
   1 C :   -0.238225
   2 C :    0.351068
   3 O :   -0.413503
   4 O :   -0.606594
   5 C :   -0.047421
   6 H :    0.162224
   7 H :    0.152933
   8 H :    0.155276
   9 H :    0.175551
  10 H :    0.173887
  11 H :    0.176853
  12 H :    0.175303
  13 H :    0.175551

-------------------------------
LOEWDIN REDUCED ORBITAL CHARGES
-------------------------------
  0 C s       :     2.969394  s :     2.969394
      pz      :     1.096239  p :     3.360632
      px      :     1.102892
      py      :     1.161501
      dz2     :     0.015614  d :     0.062876
      dxz     :     0.014744
      dyz     :     0.008570
      dx2y2   :     0.014995
      dxy     :     0.008954

  1 C s       :     2.927976  s :     2.927976
      pz      :     1.102254  p :     3.236634
      px      :     1.026800
      py      :     1.107581
      dz2     :     0.017017  d :     0.073614
      dxz     :     0.015819
      dyz     :     0.009195
      dx2y2   :     0.017300
      dxy     :     0.014283

  2 C s       :     2.738932  s :     2.738932
      pz      :     0.724591  p :     2.637751
      px      :     0.929298
      py      :     0.983862
      dz2     :     0.019310  d :     0.272249
      dxz     :     0.016445
      dyz     :     0.053551
      dx2y2   :     0.066018
      dxy     :     0.116926

  3 O s       :     3.541071  s :     3.541071
      pz      :     1.451170  p :     4.656774
      px      :     1.717924
      py      :     1.487680
      dz2     :     0.026897  d :     0.215658
      dxz     :     0.010233
      dyz     :     0.045028
      dx2y2   :     0.062184
      dxy     :     0.071315

  4 O s       :     3.473880  s :     3.473880
      pz      :     1.688624  p :     4.665524
      px      :     1.346695
      py      :     1.630205
      dz2     :     0.054230  d :     0.467189
      dxz     :     0.097484
      dyz     :     0.051670
      dx2y2   :     0.131393
      dxy     :     0.132412

  5 C s       :     2.904493  s :     2.904493
      pz      :     1.098513  p :     3.036382
      px      :     0.868373
      py      :     1.069496
      dz2     :     0.014428  d :     0.106547
      dxz     :     0.019188
      dyz     :     0.022542
      dx2y2   :     0.018640
      dxy     :     0.031749

  6 H s       :     0.793827  s :     0.793827
      pz      :     0.008175  p :     0.043949
      px      :     0.008002
      py      :     0.027772

  7 H s       :     0.803525  s :     0.803525
      pz      :     0.008486  p :     0.043542
      px      :     0.023375
      py      :     0.011681

  8 H s       :     0.801290  s :     0.801290
      pz      :     0.021705  p :     0.043435
      px      :     0.010479
      py      :     0.011251

  9 H s       :     0.780912  s :     0.780912
      pz      :     0.021796  p :     0.043537
      px      :     0.011044
      py      :     0.010697

 10 H s       :     0.782269  s :     0.782269
      pz      :     0.008167  p :     0.043844
      px      :     0.008156
      py      :     0.027522

 11 H s       :     0.781966  s :     0.781966
      pz      :     0.020120  p :     0.041181
      px      :     0.007550
      py      :     0.013512

 12 H s       :     0.784804  s :     0.784804
      pz      :     0.008447  p :     0.039894
      px      :     0.011538
      py      :     0.019908

 13 H s       :     0.783416  s :     0.783416
      pz      :     0.020322  p :     0.041034
      px      :     0.005651
      py      :     0.015061


---------------------------------
LOEWDIN BOND ORDERS (THRESH 0.050000)
---------------------------------
B(  0-C ,  1-C ) :   1.1186 B(  0-C ,  2-C ) :   0.0791 B(  0-C ,  6-H ) :   0.9228 
B(  0-C ,  7-H ) :   0.9274 B(  0-C ,  8-H ) :   0.9275 B(  1-C ,  2-C ) :   0.9236 
B(  1-C ,  3-O ) :   0.1818 B(  1-C ,  4-O ) :   0.1826 B(  1-C ,  9-H ) :   0.8742 
B(  1-C , 10-H ) :   0.8722 B(  2-C ,  3-O ) :   2.2040 B(  2-C ,  4-O ) :   1.4325 
B(  2-C ,  5-C ) :   0.0900 B(  3-O ,  4-O ) :   0.4609 B(  3-O ,  5-C ) :   0.0715 
B(  4-O ,  5-C ) :   1.3700 B(  4-O , 11-H ) :   0.1006 B(  4-O , 12-H ) :   0.1001 
B(  4-O , 13-H ) :   0.1007 B(  5-C , 11-H ) :   0.8550 B(  5-C , 12-H ) :   0.8654 
B(  5-C , 13-H ) :   0.8565 

------------------------------------------
LOEWDIN REDUCED ORBITAL POPULATIONS PER MO
-------------------------------------------
THRESHOLD FOR PRINTING IS 0.1%%
                      0         1         2         3         4         5   
                 -18.99958 -18.93255 -10.15282 -10.08523 -10.04483 -10.03144
                   2.00000   2.00000   2.00000   2.00000   2.00000   2.00000
                  --------  --------  --------  --------  --------  --------
 0 C  s               0.0       0.0       0.0       0.0       0.0      99.7
 1 C  s               0.0       0.0       0.0       0.0      99.7       0.0
 2 C  s               0.0       0.0      98.9       0.0       0.0       0.0
 3 O  s               0.0      99.9       0.0       0.0       0.0       0.0
 3 O  py              0.0       0.0       0.2       0.0       0.0       0.0
 3 O  dx2y2           0.0       0.0       0.2       0.0       0.0       0.0
 4 O  s              99.9       0.0       0.0       0.0       0.0       0.0
 4 O  dxy             0.0       0.0       0.2       0.1       0.0       0.0
 5 C  s               0.0       0.0       0.0      99.4       0.0       0.0

                      6         7         8         9        10        11   
                  -1.07455  -0.98312  -0.76046  -0.69453  -0.61159  -0.53336
                   2.00000   2.00000   2.00000   2.00000   2.00000   2.00000
                  --------  --------  --------  --------  --------  --------
 0 C  s               0.1       0.0      17.5      10.4      18.8       0.7
 0 C  pz              0.1       0.0       1.7       0.1       3.1       2.1
 0 C  px              0.2       0.0       1.4       0.0       2.4       0.1
 1 C  s               1.0       0.2      27.7       2.0       9.0       2.7
 1 C  pz              0.1       0.0       1.2       0.5       5.2       2.3
 1 C  px              1.6       0.1       0.1       3.8       4.8       1.7
 1 C  py              0.3       0.4       0.1       0.0       0.0       0.2
 1 C  dxz             0.0       0.0       0.0       0.1       0.1       0.0
 2 C  s              16.5       3.7       3.8       2.2       1.8       3.7
 2 C  pz              0.3       0.4       0.1       0.1       1.4       0.9
 2 C  px              4.4       1.2       7.1       1.2       5.0       1.8
 2 C  py              0.1      21.8       5.4       3.1       1.0       2.0
 2 C  dz2             0.5       0.1       0.0       0.0       0.0       0.0
 2 C  dx2y2           0.2       1.1       0.1       0.0       0.1       0.0
 2 C  dxy             0.3       0.6       0.0       0.2       0.2       0.0
 3 O  s              13.5      40.5       1.7       0.4       0.6       2.1
 3 O  pz              0.0       0.0       0.0       0.0       0.1       0.3
 3 O  px              0.0       0.2       0.2       0.0       0.4       0.7
 3 O  py              3.3       3.5       0.5       0.3       0.4       2.5
 3 O  dz2             0.4       0.0       0.1       0.0       0.1       0.1
 3 O  dx2y2           0.8       0.1       0.2       0.5       0.0       0.2
 3 O  dxy             0.1       0.2       0.6       0.0       0.3       0.1
 4 O  s              40.5      18.1       0.1       0.8       1.6       5.1
 4 O  pz              0.0       0.1       0.4       1.7       0.0       1.1
 4 O  px              0.1       0.6       6.1      20.5       0.0      16.0
 4 O  py              2.7       0.4       0.0       0.2       0.1       9.3
 4 O  dz2             0.4       0.1       0.0       0.3       0.3       0.2
 4 O  dxz             0.1       0.0       0.0       0.1       0.5       0.0
 4 O  dyz             0.0       0.1       0.0       0.1       0.0       0.0
 4 O  dx2y2           0.0       0.5       0.3       0.6       1.3       0.1
 4 O  dxy             0.2       0.7       0.3       1.2       0.1       0.2
 5 C  s               4.7       2.1       3.4      24.0       5.4       4.9
 5 C  pz              0.3       0.1       0.0       0.0       0.1       0.5
 5 C  px              4.9       1.4       0.1       0.4       1.8       8.3
 5 C  py              0.3       0.7       0.1       0.1       0.2      10.0
 5 C  dz2             0.1       0.1       0.0       0.0       0.0       0.2
 5 C  dx2y2           0.2       0.1       0.0       0.0       0.0       0.1
 5 C  dxy             0.1       0.1       0.0       0.0       0.0       0.4
 6 H  s               0.0       0.0       2.5       2.0       5.8       0.4
 6 H  py              0.0       0.0       0.2       0.2       0.5       0.0
 7 H  s               0.0       0.0       2.5       2.2       6.5       0.2
 7 H  px              0.0       0.0       0.2       0.1       0.4       0.0
 7 H  py              0.0       0.0       0.0       0.0       0.1       0.0
 8 H  s               0.0       0.0       2.5       1.9       6.1       0.8
 8 H  pz              0.0       0.0       0.2       0.1       0.3       0.0
 8 H  px              0.0       0.0       0.0       0.0       0.1       0.0
 9 H  s               0.1       0.0       4.0       0.5       3.5       2.9
 9 H  pz              0.0       0.0       0.3       0.0       0.1       0.1
 9 H  px              0.0       0.0       0.1       0.0       0.1       0.0
10 H  s               0.1       0.0       4.4       0.2       3.0       1.3
10 H  py              0.0       0.0       0.4       0.0       0.3       0.1
11 H  s               0.3       0.1       0.5       5.0       1.9       5.4
11 H  pz              0.0       0.0       0.0       0.3       0.1       0.3
11 H  py              0.0       0.0       0.0       0.1       0.0       0.0
12 H  s               0.3       0.2       0.7       6.2       2.1       1.1
12 H  px              0.0       0.0       0.0       0.2       0.0       0.0
12 H  py              0.0       0.0       0.0       0.3       0.1       0.1
13 H  s               0.3       0.1       0.5       5.0       1.9       5.7
13 H  pz              0.0       0.0       0.0       0.3       0.1       0.2
13 H  py              0.0       0.0       0.0       0.2       0.0       0.0

                     12        13        14        15        16        17   
                  -0.47154  -0.45294  -0.44851  -0.41256  -0.40115  -0.37743
                   2.00000   2.00000   2.00000   2.00000   2.00000   2.00000
                  --------  --------  --------  --------  --------  --------
 0 C  s               0.0       0.2       0.1       0.0       0.0       0.1
 0 C  pz              2.9       0.2       2.1       4.1       0.1      15.1
 0 C  px              2.0       1.6       0.0       8.4      11.0       0.8
 0 C  py              3.4       2.7       2.0      12.2       6.0       0.2
 0 C  dxz             0.0       0.0       0.0       0.0       0.1       0.2
 1 C  s               1.7       0.5       0.2       0.1       0.3       0.1
 1 C  pz              5.3       1.6       0.6       7.2       3.2       4.3
 1 C  px              7.3       0.3       2.5       2.3       0.3       8.7
 1 C  py              9.0       6.7       5.8       9.9       2.9       0.0
 1 C  dx2y2           0.0       0.0       0.0       0.1       0.0       0.0
 1 C  dxy             0.2       0.0       0.0       0.1       0.0       0.1
 2 C  s               1.6       1.0       0.8       0.3       0.9       0.2
 2 C  pz              1.3      11.8       1.4       0.2       0.9      11.0
 2 C  px             13.0       0.0       0.2       0.1       1.7       0.9
 2 C  py              0.1       0.2       2.9       2.2       3.0       0.5
 2 C  dx2y2           0.0       0.1       0.4       0.0       0.2       0.0
 2 C  dxy             0.0       0.0       0.0       0.2       0.0       0.0
 3 O  s               0.8       2.8       7.8       2.2       3.4       0.2
 3 O  pz              0.3       5.3       1.4       0.2       0.7      11.8
 3 O  px              8.8       0.4       0.1       0.0       0.0       0.0
 3 O  py              1.2       6.3      15.3       8.7      18.6       1.1
 3 O  dz2             0.0       0.1       0.1       0.0       0.1       0.0
 3 O  dxz             0.0       0.0       0.1       0.0       0.0       0.2
 3 O  dyz             0.1       0.8       0.2       0.0       0.1       0.5
 3 O  dx2y2           0.0       0.1       0.1       0.1       0.3       0.0
 3 O  dxy             1.3       0.0       0.0       0.0       0.0       0.0
 4 O  s               0.5       0.0       1.1       0.7       0.0       0.0
 4 O  pz              4.6      19.8       5.9       0.2       0.4       0.0
 4 O  px              0.1       3.5       3.4       6.0       0.9       1.5
 4 O  py              7.2       0.0      15.8       1.2       1.0       0.0
 4 O  dz2             0.0       0.0       0.0       0.2       0.0       0.4
 4 O  dxz             0.1       0.1       0.0       0.2       0.8       1.3
 4 O  dyz             0.0       1.0       0.1       0.0       0.0       0.0
 4 O  dx2y2           0.9       0.0       0.8       0.1       0.0       0.1
 4 O  dxy             1.0       0.1       0.0       0.0       0.8       0.5
 5 C  s               0.0       0.0       0.5       0.2       0.0       0.0
 5 C  pz              2.9      16.8       1.2       4.9       8.7       6.8
 5 C  px              0.2       0.8      10.9       1.4       2.1       7.2
 5 C  py              6.2       0.7       2.8       0.1       8.7       5.4
 5 C  dyz             0.0       0.0       0.0       0.0       0.0       0.2
 5 C  dx2y2           0.0       0.0       0.1       0.0       0.0       0.0
 5 C  dxy             0.0       0.0       0.0       0.0       0.2       0.1
 6 H  s               1.0       1.6       0.2       4.9       1.3       0.1
 6 H  pz              0.0       0.0       0.0       0.1       0.0       0.1
 6 H  px              0.0       0.0       0.0       0.0       0.1       0.0
 6 H  py              0.0       0.1       0.0       0.1       0.0       0.0
 7 H  s               1.4       0.2       0.2       1.0       7.3       0.1
 7 H  pz              0.0       0.0       0.0       0.0       0.0       0.1
 7 H  px              0.1       0.0       0.0       0.0       0.1       0.0
 7 H  py              0.0       0.0       0.0       0.1       0.0       0.0
 8 H  s               0.4       0.0       1.3       6.0       0.0       5.2
 8 H  pz              0.0       0.0       0.0       0.2       0.0       0.0
 9 H  s               3.0       0.4       2.2       5.9       0.2       0.1
 9 H  pz              0.1       0.0       0.1       0.1       0.0       0.0
 9 H  px              0.0       0.0       0.0       0.0       0.0       0.1
 9 H  py              0.2       0.0       0.0       0.0       0.0       0.0
10 H  s               5.0       2.9       1.8       3.8       0.7       0.2
10 H  px              0.1       0.0       0.0       0.0       0.0       0.1
10 H  py              0.2       0.1       0.0       0.1       0.0       0.0
11 H  s               1.8       3.0       1.0       0.4       4.8       1.5
11 H  px              0.0       0.0       0.0       0.0       0.1       0.0
11 H  py              0.0       0.1       0.0       0.0       0.0       0.1
12 H  s               2.2       0.0       4.8       0.6       6.8       4.7
12 H  pz              0.0       0.1       0.0       0.0       0.0       0.1
12 H  py              0.0       0.0       0.1       0.0       0.1       0.0
13 H  s               0.0       5.1       0.8       1.9       0.1       6.9
13 H  pz              0.0       0.1       0.0       0.0       0.0       0.1
13 H  py              0.0       0.1       0.0       0.0       0.1       0.1

                     18        19        20        21        22        23   
                  -0.34880  -0.33409  -0.32588  -0.31959  -0.27578  -0.23940
                   2.00000   2.00000   2.00000   2.00000   2.00000   2.00000
                  --------  --------  --------  --------  --------  --------
 0 C  s               0.0       0.5       0.1       0.0       0.0       0.0
 0 C  pz              5.4       7.5       9.2       1.1       0.0       0.0
 0 C  px             12.4       8.1       0.0       6.0       0.0       0.5
 0 C  py             10.9       8.7      11.1       0.3       0.3       0.0
 0 C  dz2             0.1       0.1       0.2       0.2       0.0       0.0
 0 C  dxz             0.0       0.1       0.1       0.0       0.0       0.0
 0 C  dyz             0.0       0.0       0.2       0.0       0.0       0.0
 0 C  dx2y2           0.3       0.2       0.1       0.0       0.0       0.1
 0 C  dxy             0.2       0.0       0.0       0.0       0.0       0.0
 1 C  s               0.2       0.3       0.0       0.1       0.0       0.6
 1 C  pz              1.6      10.4       9.9       1.4       0.1       0.1
 1 C  px              1.0       4.8       0.2       7.6       0.0       4.2
 1 C  py              0.9       7.6       7.6       0.4       0.1       3.3
 1 C  dz2             0.1       0.1       0.2       0.2       0.0       0.0
 1 C  dxz             0.0       0.2       0.3       0.0       0.0       0.0
 1 C  dyz             0.0       0.0       0.2       0.0       0.0       0.0
 1 C  dx2y2           0.1       0.3       0.0       0.0       0.0       0.1
 1 C  dxy             0.2       0.0       0.0       0.0       0.0       0.0
 2 C  s               0.3       0.0       0.1       0.8       0.0       0.3
 2 C  pz              0.2       4.0       1.8       0.0       0.3       0.1
 2 C  px              6.9       0.4       0.2       0.6       0.0       1.4
 2 C  py              0.0       0.7       1.1       4.4       0.0       0.7
 2 C  dz2             0.0       0.0       0.0       0.0       0.1       0.0
 2 C  dxz             0.0       0.1       0.2       0.0       0.1       0.0
 2 C  dyz             0.0       0.3       0.0       0.0       1.6       0.4
 2 C  dx2y2           0.0       0.2       0.1       0.6       0.0       0.1
 2 C  dxy             0.1       0.0       0.1       0.1       0.2       3.7
 3 O  s               0.0       0.1       0.3       0.9       0.0       0.0
 3 O  pz              0.3      14.2       3.6       0.0      28.5       5.9
 3 O  px              7.9       1.2       0.2       0.1       2.9      62.5
 3 O  py              0.2       0.8       3.4       7.1       0.2       0.7
 3 O  dyz             0.0       0.2       0.1       0.0       0.1       0.1
 3 O  dx2y2           0.0       0.0       0.1       0.3       0.0       0.0
 3 O  dxy             0.2       0.0       0.0       0.0       0.0       0.6
 4 O  s               0.6       0.0       0.2       4.1       0.0       0.3
 4 O  pz              0.6       2.3       2.1       0.0      44.9       0.1
 4 O  px              0.1       0.1       0.3       3.5       3.1       1.3
 4 O  py              3.1       0.7       4.8      26.7       0.1       7.8
 4 O  dz2             0.0       0.2       0.0       0.1       0.0       0.2
 4 O  dxz             0.2       0.2       0.3       0.5       0.2       0.0
 4 O  dyz             0.0       0.2       0.0       0.0       0.8       0.0
 4 O  dx2y2           0.0       0.0       0.2       1.5       0.0       0.2
 4 O  dxy             0.2       0.1       0.3       0.3       0.1       0.1
 5 C  s               0.0       0.0       0.0       0.3       0.0       0.2
 5 C  pz              2.2       3.8       1.7       0.0       4.6       0.1
 5 C  px              0.6       0.0       0.4       1.6       0.3       0.9
 5 C  py              7.5       0.3       1.9       8.5       0.0       0.1
 5 C  dxz             0.1       0.1       0.0       0.1       0.5       0.0
 5 C  dyz             0.0       0.1       0.1       0.0       0.6       0.0
 5 C  dx2y2           0.0       0.0       0.0       0.2       0.1       0.1
 5 C  dxy             0.3       0.0       0.0       0.2       0.0       0.0
 6 H  s               5.4       7.5       6.1       0.3       0.2       0.2
 6 H  pz              0.0       0.0       0.1       0.0       0.0       0.0
 6 H  px              0.1       0.0       0.0       0.0       0.0       0.0
 7 H  s              14.3       0.2       0.3       3.2       0.0       0.7
 7 H  px              0.2       0.0       0.0       0.0       0.0       0.0
 8 H  s               2.4       0.0       9.8       3.4       0.1       0.0
 8 H  pz              0.0       0.1       0.1       0.0       0.0       0.0
 8 H  py              0.2       0.1       0.0       0.0       0.0       0.0
 9 H  s               1.4       0.2      10.7       4.1       0.0       0.0
 9 H  py              0.0       0.1       0.0       0.0       0.0       0.0
10 H  s               1.1       8.1       4.7       0.5       0.0       1.5
10 H  pz              0.0       0.1       0.1       0.0       0.0       0.0
10 H  px              0.0       0.0       0.0       0.0       0.0       0.1
10 H  py              0.0       0.1       0.0       0.0       0.0       0.0
11 H  s               3.6       2.3       0.2       2.8       4.5       0.0
12 H  s               5.3       0.4       1.2       2.5       0.0       0.1
13 H  s               0.2       0.9       2.7       2.0       4.8       0.0

                     24        25        26        27        28        29   
                  -0.01654   0.06583   0.09923   0.12025   0.12855   0.14074
                   0.00000   0.00000   0.00000   0.00000   0.00000   0.00000
                  --------  --------  --------  --------  --------  --------
 0 C  s               2.2       3.8       2.4      27.2       6.0       0.2
 0 C  pz              1.4       1.7       0.1       0.7      12.2       2.1
 0 C  px              0.9       2.8       0.8       5.9       9.8       0.6
 0 C  py              0.3       0.0       0.1       1.0       0.2       3.5
 0 C  dz2             0.0       0.0       0.1       0.0       0.7       0.1
 0 C  dxz             0.0       0.4       0.0       0.1       0.9       0.0
 0 C  dyz             0.0       0.0       0.0       0.0       0.0       0.8
 0 C  dx2y2           0.1       0.0       0.0       0.1       0.0       0.0
 0 C  dxy             0.0       0.0       0.1       0.0       0.3       0.0
 1 C  s               0.1       8.7       1.5       4.5      12.1       2.7
 1 C  pz              0.1       1.1       0.4       1.8      13.7       1.9
 1 C  px              0.8       0.5       0.3       5.7       2.9       7.6
 1 C  py              0.0       0.4       0.3       1.2       1.3       9.7
 1 C  dz2             0.0       0.0       0.0       0.2       0.6       0.0
 1 C  dxz             1.8       0.0       0.0       0.2       0.2       0.1
 1 C  dyz             0.0       0.0       0.0       0.1       0.1       0.1
 1 C  dx2y2           0.2       0.1       0.2       0.2       0.0       1.9
 1 C  dxy             0.0       0.0       0.0       0.0       0.0       1.1
 2 C  s               0.0       8.8       3.8       0.3       0.7       3.6
 2 C  pz             35.9       0.0       0.1       2.6       2.4       2.1
 2 C  px              2.6       1.9       0.2       2.6       0.9       0.4
 2 C  py              0.2       0.5       2.3       0.5       0.1       2.2
 2 C  dz2             0.0       1.2       0.2       0.0       0.3       0.6
 2 C  dxz             0.4       0.4       0.0       0.0       0.0       0.3
 2 C  dyz             0.7       0.0       0.0       0.0       0.0       0.0
 2 C  dx2y2           0.1       0.1       0.9       0.1       0.0       0.2
 3 O  s               0.0       1.4       1.2       0.1       0.0       0.0
 3 O  pz             22.0       0.0       0.0       0.6       0.0       0.3
 3 O  px              1.7       0.5       0.1       1.4       0.5       0.0
 3 O  py              0.1       0.2       0.4       0.0       0.0       0.2
 3 O  dz2             0.0       1.4       0.5       0.2       0.5       0.8
 3 O  dxz             0.2       0.3       0.3       0.0       0.1       1.6
 3 O  dyz             5.7       0.0       0.1       0.5       0.1       0.0
 3 O  dx2y2           0.1       0.0       0.0       0.1       0.3       2.4
 3 O  dxy             0.4       0.3       0.3       0.0       0.0       0.0
 4 O  s               0.0       8.9       1.9       0.6       0.2       0.0
 4 O  pz              9.1       0.0       0.4       0.1       0.3       0.1
 4 O  px              0.7       1.4       5.2       0.2       0.9       1.2
 4 O  py              0.0       1.4       1.2       0.0       0.1       1.9
 4 O  dz2             1.4       1.9       3.2       0.4       0.0       0.8
 4 O  dxz             3.6       0.6       1.2       0.1       0.0       0.1
 4 O  dyz             1.3       0.0       0.1       0.4       0.7       0.3
 4 O  dx2y2           0.2       0.1       2.2       0.1       0.1       2.8
 4 O  dxy             0.1       0.1       2.1       0.9       0.0       4.2
 5 C  s               0.0       3.5      23.1       6.5       5.7       0.5
 5 C  pz              0.1       1.1       1.3       0.4       0.9       0.1
 5 C  px              0.0      22.5      19.8       1.8       3.0       2.2
 5 C  py              0.0       6.5       3.0       1.4       2.4      10.4
 5 C  dz2             0.0       0.7       0.2       0.1       0.2       0.1
 5 C  dxz             0.2       0.5       0.1       0.1       0.1       0.0
 5 C  dyz             0.2       0.0       0.0       0.0       0.1       0.1
 5 C  dx2y2           0.0       1.0       0.5       0.1       0.2       0.0
 5 C  dxy             0.0       0.7       0.5       0.1       0.2       0.8
 6 H  s               0.1       0.4       0.4       4.7       0.4       0.1
 6 H  pz              0.0       0.0       0.0       0.0       0.1       0.5
 6 H  px              0.0       0.1       0.1       0.0       0.5       0.0
 6 H  py              0.0       0.2       0.2       2.3       0.3       0.1
 7 H  s               0.7       0.8       1.3       2.5       1.6       0.4
 7 H  pz              0.0       0.3       0.0       0.3       0.3       0.1
 7 H  px              0.2       0.0       0.1       1.4       0.1       0.0
 7 H  py              0.0       0.1       0.2       0.7       0.1       0.0
 8 H  s               0.1       0.9       0.1       3.3       1.2       0.1
 8 H  pz              0.1       0.1       0.0       1.0       1.3       0.1
 8 H  px              0.0       0.4       0.1       0.4       0.1       0.0
 8 H  py              0.0       0.0       0.0       0.7       0.2       0.3
 9 H  s               2.0       1.0       0.3       0.8       1.3       0.5
 9 H  pz              0.0       0.4       0.0       0.1       2.2       0.0
 9 H  px              0.1       0.2       0.0       0.4       0.0       0.1
 9 H  py              0.0       0.0       0.0       0.3       0.0       1.6
10 H  s               0.3       0.5       0.9       1.7       0.3      10.4
10 H  pz              0.0       0.0       0.0       0.2       0.4       0.1
10 H  px              0.0       0.0       0.0       0.1       0.1       0.9
10 H  py              0.0       0.3       0.2       1.0       0.5       2.8
11 H  s               0.6       1.4       3.2       1.3       1.8       0.3
11 H  pz              0.0       0.9       0.5       0.7       0.6       0.0
11 H  px              0.0       0.4       0.8       0.0       0.0       0.2
11 H  py              0.0       0.0       0.5       0.0       0.1       0.0
12 H  s               0.0       0.3       2.0       0.9       1.7       5.9
12 H  pz              0.0       0.0       0.1       0.0       0.1       0.1
12 H  px              0.0       0.3       1.2       0.1       0.0       0.8
12 H  py              0.0       0.8       0.2       0.7       1.0       1.0
13 H  s               0.6       1.3       3.0       2.7       0.9       0.3
13 H  pz              0.0       0.2       1.0       0.5       0.4       0.2
13 H  px              0.0       1.1       0.2       0.2       0.3       0.1
13 H  py              0.0       0.0       0.6       0.2       0.0       0.0

                     30        31        32        33        34        35   
                   0.16038   0.16957   0.17936   0.18171   0.18549   0.18732
                   0.00000   0.00000   0.00000   0.00000   0.00000   0.00000
                  --------  --------  --------  --------  --------  --------
 0 C  s               0.3       0.3       0.3       0.0       1.3       0.3
 0 C  pz              2.4       8.9       2.0       2.5       8.0       9.2
 0 C  px              4.6       0.4       9.5      11.7       1.9       1.8
 0 C  py              9.7       3.7       5.8       1.2       1.1       2.3
 0 C  dz2             0.7       0.2       0.6       0.2       0.0       0.2
 0 C  dxz             0.3       1.4       0.1       0.0       0.1       0.1
 0 C  dyz             0.2       0.8       0.0       0.6       0.0       0.1
 0 C  dx2y2           0.1       0.3       1.4       0.7       0.4       0.7
 0 C  dxy             0.6       0.3       0.0       0.5       0.0       0.5
 1 C  s               0.3       0.5       0.5       0.5       1.1       1.2
 1 C  pz              7.1       0.2       5.4       4.5       0.2       0.1
 1 C  px              3.1       3.5       0.4       3.6       9.4      11.6
 1 C  py             17.2       4.4       0.9       3.4       1.7       3.3
 1 C  dz2             1.2       0.1       0.0       0.5       0.2       0.5
 1 C  dxz             0.3       0.0       0.1       0.0       0.5       0.2
 1 C  dyz             1.7       0.1       0.2       0.1       0.0       0.0
 1 C  dx2y2           0.1       0.4       0.0       0.2       0.1       0.3
 1 C  dxy             0.1       1.0       0.2       0.2       0.4       0.4
 2 C  s               0.2       0.6       0.0       0.2       2.4       4.0
 2 C  pz              4.9       4.9       3.7       4.9       0.2       0.7
 2 C  px              1.2       1.3       1.1       0.5       1.7       1.5
 2 C  py              0.6      11.8       5.9       0.3       0.5       1.4
 2 C  dz2             0.0       0.1       0.0       0.1       0.1       0.0
 2 C  dx2y2           0.3       0.5       0.0       0.0       0.0       0.2
 2 C  dxy             0.3       0.5       0.0       0.0       0.0       0.0
 3 O  s               0.1       2.0       0.8       0.5       0.1       0.6
 3 O  pz              0.6       0.0       0.8       0.7       0.5       0.2
 3 O  px              0.2       0.3       0.3       0.2       0.2       0.1
 3 O  py              1.0       0.3       0.7       0.6       0.1       0.3
 3 O  dz2             0.1       0.0       0.1       0.1       2.1       0.7
 3 O  dxz             0.2       0.3       0.6       0.0       0.9       1.5
 3 O  dyz             0.0       0.0       0.1       0.1       0.0       0.1
 3 O  dx2y2           0.3       0.5       0.4       0.1       0.2       0.2
 3 O  dxy             1.1       0.6       0.0       0.2       0.2       0.5
 4 O  s               0.1       0.3       0.2       0.1       0.0       0.0
 4 O  pz              0.1       0.3       0.4       0.1       2.3       1.1
 4 O  px              0.1       1.7       0.1       0.3       0.1       0.3
 4 O  py              0.2       0.8       0.3       0.2       0.0       0.1
 4 O  dz2             0.5       0.3       1.3       0.3       0.0       1.3
 4 O  dxz             0.0       0.3       0.3       0.1       2.7       0.5
 4 O  dyz             0.1       0.2       0.3       0.0       3.6       0.8
 4 O  dx2y2           0.3       0.5       0.0       0.3       0.0       0.9
 4 O  dxy             0.0       0.6       0.0       0.3       0.0       0.9
 5 C  s               0.3       0.3       0.1       0.2       0.5       1.4
 5 C  pz              1.7      12.8      25.0       3.3      12.4      12.6
 5 C  px              1.5       1.8       1.9       2.7       3.5       4.4
 5 C  py              0.0       0.5       0.9      14.5       0.0       0.9
 5 C  dz2             0.0       0.0       0.1       0.2       0.1       0.0
 5 C  dxz             0.0       0.0       0.2       0.1       0.0       0.2
 5 C  dyz             0.0       0.0       0.1       0.0       3.2       1.9
 5 C  dx2y2           0.0       0.1       0.1       0.0       0.0       0.1
 5 C  dxy             0.0       0.2       0.3       0.7       0.1       0.1
 6 H  s               4.1       3.6       7.3       0.5       0.7       1.0
 6 H  pz              0.0       1.0       0.0       0.5       0.0       0.1
 6 H  px              0.3       0.1       0.0       0.3       0.0       0.3
 6 H  py              1.3       0.4       1.4       0.1       0.0       0.0
 7 H  s               0.6       0.0       1.4      10.1       1.3       5.2
 7 H  pz              0.2       0.6       0.0       0.1       0.1       0.1
 7 H  px              0.0       0.1       1.2       2.2       0.4       0.5
 7 H  py              0.0       0.8       0.2       0.5       0.0       0.0
 8 H  s               2.3      12.3       1.1       3.2       0.4       1.4
 8 H  pz              1.1       1.1       0.5       0.5       0.1       0.0
 8 H  px              0.2       1.3       0.0       0.0       0.0       0.1
 8 H  py              0.0       0.2       0.3       1.3       0.0       0.2
 9 H  s              13.2       1.9       0.2       0.0       0.4       0.1
 9 H  pz              2.6       0.3       0.0       0.2       0.1       0.0
 9 H  px              0.4       0.4       0.2       0.0       0.5       0.7
 9 H  py              0.9       0.1       0.0       0.5       0.0       0.0
10 H  s               3.5       1.4       0.1       3.1       0.1       0.2
10 H  pz              1.3       0.0       0.0       0.1       0.0       0.0
10 H  px              0.1       0.8       0.1       0.1       0.3       0.2
10 H  py              1.4       0.5       0.1       0.6       0.1       0.2
11 H  s               0.3       0.1       4.7       1.8      14.0       2.3
11 H  pz              0.1       0.1       1.2       0.5       1.0       0.1
11 H  px              0.0       0.0       0.7       0.4       0.1       0.0
11 H  py              0.1       0.2       0.3       0.1       2.4       0.5
12 H  s               0.1       1.0       2.0       7.7       0.4       0.1
12 H  pz              0.0       0.0       0.0       0.0       2.3       1.4
12 H  px              0.0       0.0       0.2       1.4       0.0       0.0
12 H  py              0.0       0.1       0.2       1.9       0.2       0.1
13 H  s               0.0       0.4       1.6       0.1       8.9      11.2
13 H  pz              0.0       0.4       0.3       0.2       0.2       0.7
13 H  py              0.0       0.0       1.2       0.1       1.6       1.3

                     36        37        38        39        40        41   
                   0.19625   0.20934   0.21049   0.23360   0.25070   0.26387
                   0.00000   0.00000   0.00000   0.00000   0.00000   0.00000
                  --------  --------  --------  --------  --------  --------
 0 C  s               0.9       1.4       0.3       0.0       1.8       0.5
 0 C  pz              4.7       6.7       9.5       6.0       8.9       8.6
 0 C  px              7.2       5.4       1.5       2.7       4.0      18.1
 0 C  py              7.1       4.2       7.9      50.8       1.8       3.9
 0 C  dz2             0.5       1.1       0.2       0.0       0.1       0.1
 0 C  dxz             0.5       0.9       0.5       0.0       0.0       0.0
 0 C  dyz             0.0       0.0       0.4       0.0       0.1       0.2
 0 C  dx2y2           0.3       0.3       0.9       0.0       0.4       0.2
 0 C  dxy             0.3       0.3       0.1       0.1       0.1       0.4
 1 C  s               0.0       4.2       0.4       0.0       0.0       0.2
 1 C  pz              1.6      19.4       0.9       0.4      11.4       2.0
 1 C  px              0.3       2.7       0.8       0.4       4.5       1.9
 1 C  py              1.8       0.9       4.5       5.2       3.2       0.7
 1 C  dz2             0.3       0.2       0.3       0.0       0.6       0.0
 1 C  dxz             0.0       0.1       0.0       0.1       1.3       0.2
 1 C  dyz             0.1       0.0       0.2       0.0       0.2       0.2
 1 C  dx2y2           0.6       0.0       0.3       0.1       0.4       0.1
 1 C  dxy             0.2       0.1       0.2       0.1       0.1       0.1
 2 C  s               1.1       1.0       0.3       0.2       5.4       2.1
 2 C  pz              0.5       1.1       1.7       0.6       1.5      21.3
 2 C  px              2.2       1.2       0.0       0.4       0.3       1.0
 2 C  py              0.1       0.3       5.6       0.5       2.0       0.0
 2 C  dz2             0.2       0.1       0.0       0.0       0.9       1.1
 2 C  dxz             0.0       0.1       0.0       0.0       0.3       0.0
 2 C  dyz             0.0       0.0       0.0       0.0       0.0       0.1
 2 C  dx2y2           0.0       0.0       0.0       0.2       0.8       0.1
 2 C  dxy             0.0       0.0       0.1       0.0       0.0       0.0
 3 O  s               0.3       0.4       1.7       0.0       1.6       0.6
 3 O  pz              0.1       0.3       0.0       0.2       1.4       1.7
[...]
 5 C  dyz            19.1       0.6       0.1       0.1       0.0       0.2
 5 C  dx2y2           0.2       0.0       0.1       0.0       0.5       4.1
 5 C  dxy             0.0       0.9       0.0       0.1       0.8       4.0
 6 H  s               0.3       5.3       3.3       1.7       0.0       0.0
 6 H  pz              0.0       0.8       0.0       0.2       0.0       0.0
 6 H  px              0.1       0.0       0.4       0.4       0.0       0.0
 6 H  py              0.4      12.8       8.6       3.8       0.0       0.0
 7 H  s               1.2       0.4       4.6       0.1       0.7       0.0
 7 H  pz              0.6       0.0       0.0       0.0       0.0       0.0
 7 H  px              2.7       0.3       9.1       0.1       1.3       0.0
 7 H  py              0.4       1.7       1.2       0.2       0.3       0.0
 8 H  s               0.2       6.7       2.3       0.9       0.3       0.0
 8 H  pz              0.5      11.2       3.7       2.1       0.6       0.0
 8 H  px              0.4       2.6       0.6       0.1       0.0       0.0
 8 H  py              0.0       1.8       2.5       0.3       0.1       0.0
 9 H  s               0.1       1.3       1.4       6.5       0.6       0.0
 9 H  pz              0.1       1.8       2.8      11.3       1.2       0.0
 9 H  px              0.1       0.8       1.3       1.7       0.1       0.0
 9 H  py              0.5       0.2       0.7       1.3       0.1       0.0
10 H  s               1.2       0.7       0.5       6.9       0.3       0.0
10 H  pz              0.0       0.1       0.0       0.7       0.1       0.0
10 H  px              0.1       0.0       0.0       0.6       0.1       0.0
10 H  py              3.7       1.1       2.1      14.0       0.8       0.0
11 H  s               3.7       0.9       0.0       0.1       0.0       0.3
11 H  pz              4.6       1.4       0.0       0.2       0.1       0.6
11 H  px              0.9       0.4       0.0       0.0       0.1       0.0
11 H  py              4.1       0.4       0.1       0.0       0.0       0.1
12 H  s               0.7       0.6       0.0       0.1       0.0       0.2
12 H  pz              0.6       0.0       0.0       0.0       0.0       0.0
12 H  px              0.4       0.4       0.1       0.0       0.1       0.0
12 H  py              1.0       0.7       0.0       0.1       0.2       0.8
13 H  s               7.0       0.0       0.0       0.0       0.0       0.3
13 H  pz             10.2       0.0       0.0       0.0       0.0       0.4
13 H  px              0.1       0.0       0.0       0.0       0.1       0.3
13 H  py              6.6       0.1       0.0       0.0       0.0       0.1

                    156       157       158       159       160       161   
                   4.29085   4.44044  21.89927  21.96576  22.03190  22.27000
                   0.00000   0.00000   0.00000   0.00000   0.00000   0.00000
                  --------  --------  --------  --------  --------  --------
 0 C  s               0.0       0.0      87.7       7.1       0.5       4.3
 1 C  s               0.0       0.0       6.2      39.1      53.8       0.5
 1 C  px              0.1       0.0       0.0       0.0       0.0       0.0
 1 C  py              0.1       0.0       0.0       0.0       0.0       0.0
 1 C  dx2y2           0.2       0.0       0.0       0.0       0.0       0.0
 1 C  dxy             0.2       0.0       0.0       0.0       0.0       0.0
 2 C  s               2.3       5.8       2.6       3.2       0.0      93.1
 2 C  pz              0.4       0.0       0.0       0.0       0.0       0.0
 2 C  px              3.7       0.2       0.0       0.0       0.0       0.0
 2 C  py              2.7       7.7       0.0       0.0       0.0       0.1
 2 C  dz2             1.0       1.6       0.0       0.0       0.0       0.0
 2 C  dxz             0.7       0.0       0.0       0.0       0.0       0.0
 2 C  dyz             1.0       0.0       0.0       0.0       0.0       0.0
 2 C  dx2y2           0.0       4.2       0.0       0.0       0.0       0.0
 2 C  dxy            10.3       0.3       0.0       0.0       0.0       0.0
 3 O  s               0.7      18.6       0.0       0.0       0.0       0.2
 3 O  px              0.3       0.5       0.0       0.0       0.0       0.0
 3 O  py              0.2      21.7       0.0       0.0       0.0       0.2
 3 O  dz2             0.3       8.3       0.0       0.0       0.0       0.0
 3 O  dxz             0.1       0.0       0.0       0.0       0.0       0.0
 3 O  dyz             0.1       0.1       0.0       0.0       0.0       0.0
 3 O  dx2y2           0.3      24.2       0.0       0.0       0.0       0.0
 3 O  dxy             1.7       1.9       0.0       0.0       0.0       0.0
 4 O  s               4.6       1.0       0.0       0.0       0.1       0.1
 4 O  pz              2.1       0.0       0.0       0.0       0.0       0.0
 4 O  px             25.5       0.4       0.0       0.0       0.0       0.1
 4 O  py              3.2       0.2       0.0       0.0       0.0       0.0
 4 O  dz2             1.2       0.5       0.0       0.0       0.0       0.0
 4 O  dxz             0.6       0.3       0.0       0.0       0.0       0.0
 4 O  dyz             2.5       0.0       0.0       0.0       0.0       0.0
 4 O  dx2y2           0.3       0.6       0.0       0.0       0.0       0.0
 4 O  dxy            25.8       0.3       0.0       0.0       0.0       0.0
 5 C  s               0.8       0.2       3.0      50.2      45.2       1.1
 5 C  pz              0.1       0.0       0.0       0.0       0.0       0.0
 5 C  px              2.0       0.2       0.0       0.0       0.0       0.0
 5 C  py              0.3       0.0       0.0       0.0       0.0       0.0
 5 C  dz2             0.4       0.0       0.0       0.0       0.0       0.0
 5 C  dxz             0.3       0.0       0.0       0.0       0.0       0.0
 5 C  dyz             0.1       0.0       0.0       0.0       0.0       0.0
 5 C  dx2y2           1.2       0.1       0.0       0.0       0.0       0.0
 5 C  dxy             1.3       0.4       0.0       0.0       0.0       0.0
11 H  pz              0.1       0.0       0.0       0.0       0.0       0.0
12 H  s               0.1       0.1       0.0       0.0       0.0       0.0
12 H  py              0.2       0.1       0.0       0.0       0.0       0.0

                    162       163   
                  43.67157  43.70038
                   0.00000   0.00000
                  --------  --------
 3 O  s              98.8       1.1
 4 O  s               1.1      98.8


                      *****************************
                      * MAYER POPULATION ANALYSIS *
                      *****************************

  NA   - Mulliken gross atomic population
  ZA   - Total nuclear charge
  QA   - Mulliken gross atomic charge
  VA   - Mayer's total valence
  BVA  - Mayer's bonded valence
  FA   - Mayer's free valence

  ATOM       NA         ZA         QA         VA         BVA        FA
  0 C      6.4629     6.0000    -0.4629     3.8173     3.8173     0.0000
  1 C      6.2918     6.0000    -0.2918     3.7782     3.7782     0.0000
  2 C      5.5969     6.0000     0.4031     3.7274     3.7274    -0.0000
  3 O      8.4171     8.0000    -0.4171     1.9473     1.9473     0.0000
  4 O      8.1853     8.0000    -0.1853     1.9482     1.9482     0.0000
  5 C      6.3001     6.0000    -0.3001     3.8047     3.8047     0.0000
  6 H      0.8328     1.0000     0.1672     0.9594     0.9594    -0.0000
  7 H      0.8476     1.0000     0.1524     0.9608     0.9608     0.0000
  8 H      0.8523     1.0000     0.1477     0.9638     0.9638    -0.0000
  9 H      0.8411     1.0000     0.1589     0.9595     0.9595     0.0000
 10 H      0.8414     1.0000     0.1586     0.9613     0.9613     0.0000
 11 H      0.8392     1.0000     0.1608     0.9565     0.9565    -0.0000
 12 H      0.8505     1.0000     0.1495     0.9559     0.9559     0.0000
 13 H      0.8410     1.0000     0.1590     0.9565     0.9565    -0.0000

  Mayer bond orders larger than 0.100000
B(  0-C ,  1-C ) :   0.8993 B(  0-C ,  6-H ) :   0.9746 B(  0-C ,  7-H ) :   0.9711 
B(  0-C ,  8-H ) :   0.9750 B(  1-C ,  2-C ) :   0.9466 B(  1-C ,  9-H ) :   0.9608 
B(  1-C , 10-H ) :   0.9821 B(  2-C ,  3-O ) :   1.8240 B(  2-C ,  4-O ) :   1.0444 
B(  4-O ,  5-C ) :   0.8603 B(  5-C , 11-H ) :   0.9628 B(  5-C , 12-H ) :   0.9690 
B(  5-C , 13-H ) :   0.9623 

-------
TIMINGS
-------

Total SCF time: 0 days 0 hours 0 min 12 sec 

Total time                  ....      12.696 sec
Sum of individual times     ....      12.656 sec  ( 99.7%)

SCF preparation             ....       0.055 sec  (  0.4%)
Fock matrix formation       ....      12.025 sec  ( 94.7%)
  Startup                   ....       0.002 sec  (  0.0% of F)
  Split-RI-J                ....       2.047 sec  ( 17.0% of F)
  XC integration            ....       9.942 sec  ( 82.7% of F)
    XC Preparation          ....       0.000 sec  (  0.0% of XC)
    Basis function eval.    ....       1.838 sec  ( 18.5% of XC)
    Density eval.           ....       3.253 sec  ( 32.7% of XC)
    XC-Functional eval.     ....       1.536 sec  ( 15.4% of XC)
    XC-Potential eval.      ....       3.036 sec  ( 30.5% of XC)
Diagonalization             ....       0.000 sec  (  0.0%)
Density matrix formation    ....       0.391 sec  (  3.1%)
Total Energy calculation    ....       0.002 sec  (  0.0%)
Population analysis         ....       0.101 sec  (  0.8%)
Orbital Transformation      ....       0.011 sec  (  0.1%)
Orbital Orthonormalization  ....       0.000 sec  (  0.0%)
DIIS solution               ....       0.064 sec  (  0.5%)
  MO trafo                  ....       0.000 sec  (  0.0 % of DIIS)
  Orb grad                  ....       0.000 sec  (  0.0 % of DIIS)
  Energy W gradient         ....       0.000 sec  (  0.0 % of DIIS)
  DIIS error                ....       0.006 sec  (  9.9 % of DIIS)
  DIIS work                 ....       0.052 sec  ( 81.3 % of DIIS)
  Form Q                    ....       0.000 sec  (  0.0 % of DIIS)
  Form QpQm                 ....       0.000 sec  (  0.0 % of DIIS)
  Exp/Cayley                ....       0.000 sec  (  0.0 % of DIIS)
  Orb update                ....       0.000 sec  (  0.0 % of DIIS)
  Wake-sleep                ....       0.001 sec  (  1.1 % of DIIS)
SOSCF solution              ....       0.008 sec  (  0.1%)
  MO trafo                  ....       0.008 sec  ( 98.6 % of SOSCF)
  Orb grad                  ....       0.000 sec  (  0.0 % of SOSCF)
  Rot update                ....       0.000 sec  (  0.0 % of SOSCF)
  Step                      ....       0.000 sec  (  0.0 % of SOSCF)
Finished LeanSCF after  12.7 sec

Maximum memory used throughout the entire LEANSCF-calculation: 17.2 MB


-------------------------------------------------------------------------------
                          DFT DISPERSION CORRECTION                            
                                                                               
                                DFTD4 V3.4.0                                   
-------------------------------------------------------------------------------
The R2SCAN3C composite method is recognized
Using three-body term ABC
Active option DFTDOPT                   ...         5   

-------------------------   ----------------
Dispersion correction           -0.002985384
-------------------------   ----------------

------------------   -----------------
gCP correction             0.009346208
------------------   -----------------

-------------------------   --------------------
FINAL SINGLE POINT ENERGY      -307.632207046361
-------------------------   --------------------


------------------------------------------------------------------------------
                              ORCA PROPERTY CALCULATIONS
------------------------------------------------------------------------------

GBWName                                 ... sp.gbw
Number of atoms                         ...     14
Number of basis functions               ...    164
Max core memory                         ...   1024 MB

Electric properties:
Dipole moment                           ... YES
Quadrupole moment                       ...  NO
Static polarizability (Dipole/Dipole)   ...  NO
Static polarizability (Dipole/Quad.)    ...  NO
Static polarizability (Quad./Quad.)     ...  NO
Static polarizability (Velocity)        ...  NO

Atomic electric properties:
Dipole moment                           ...  NO
Quadrupole moment                       ...  NO
Static polarizability                   ...  NO

Choice of electric origin               ... Center of mass
Position of electric origin             ...    -0.000015     0.000011    -0.000006

General magnetic properties:
Magnetizability                         ...  NO

EPR properties:
g-Tensor (aka g-matrix)                 ...  NO
Zero-Field splitting spin-orbit         ...  NO
Zero-field splitting spin-spin          ...  NO
Hyperfine couplings                     ...  NO (   0 nuclei)
Quadrupole couplings                    ...  NO (   0 nuclei)
Contact density                         ...  NO (   0 nuclei)

NMR properties:
Chemical shifts                         ...  NO (   0 nuclei)
Spin-rotation constants                 ...  NO (   0 nuclei)
Spin-spin couplings                     ...  NO (   0 nuclei,    0 pairs)

Choice of magnetic origin               ... GIAO
Position of magnetic origin             ...     0.000000     0.000000     0.000000

Properties with geometric perturbations:
SCF Hessian                             ...  NO
IR spectrum                             ...  NO
VCD spectrum                            ...  NO
X-ray spectroscopy properties:
SCF XES/XAS/RIXS spectra                ...  NO


-------------
DIPOLE MOMENT
-------------

Method             : SCF
Type of density    : Electron Density
Multiplicity       :   1
Irrep              :   0
Energy             :  -307.6385678695741035 Eh
Relativity type    : 
Basis              : AO
                                X                 Y                 Z
Electronic contribution:      2.538217520      -1.493464979       1.676817602
Nuclear contribution   :     -2.451990569       2.199789801      -1.823143446
                        -----------------------------------------
Total Dipole Moment    :      0.086226951       0.706324822      -0.146325843
                        -----------------------------------------
Magnitude (a.u.)       :      0.726457909
Magnitude (Debye)      :      1.846509260



--------------------
Rotational spectrum 
--------------------
 
Rotational constants in cm-1:             0.247358             0.076481             0.067002 
Rotational constants in MHz :          7415.597872          2292.838258          2008.662250 

Dipole components along the rotational axes: 
x,y,z [a.u.] :     0.044967     0.724510     0.028371 
x,y,z [Debye]:     0.114296     1.841557     0.072113 

 

Dipole moment calculation done in   0.0 sec 

Maximum memory used throughout the entire PROP-calculation: 9.9 MB

--------------------------------
SUGGESTED CITATIONS FOR THIS RUN
--------------------------------

Below you find a list of papers that are relevant to this ORCA run
We neither can nor want to force you to cite these papers, but we appreciate if you do
You receive ORCA, which is the product of decades of hard work by many enthusiastic individuals, for free
The only thing we kindly ask in return is that you cite our papers,
We deeply appreciate it, if you show your appreciation for ORCA by not just citing the generic ORCA reference.

Please note that relegating all ORCA citations to the supporting information does *not* help us.
SI sections are not indexed - citations you put there will not count into any citation statistics
But we need these citations in order to attract the funding resources that allow us to do what we are doing

Therefore, if you are a happy ORCA user, please consider citing a few of the papers listed below in the main body of your paper

In addition to the list printed below, the program has created the file sp.bibtex that contains the list in bibtex format
You can import this file easily into all common literature databanks and citation aid programs


List of essential papers. We consider these as the minimum necessary citations

  1. Neese,F.
     Software update: the ORCA program system, version 5.0
     WIRES Comput. Molec. Sci., 2022 12(1)e1606
     doi.org/10.1002/wcms.1606
  2. Grimme,S.; Hansen,A.; Ehlert,S.; Mewes,J.
     r2SCAN-3c: A 'Swiss army knife' composite electronic-structure method
     J. Chem. Phys., 2021 154 064103
     doi.org/10.1063/5.0040021

List of papers to cite with high priority. The work reported in these papers was absolutely
necessary for this run to complete.
Our perspective: the developers of density functionals and basis sets usually get cited in chemistry papers
Good! But without the algorithms to do something with them, the functionals or basis sets would not do anything.
Hence, in our opinion, the algorithm design and method developments papers are equally worthy of getting cited

  1. Neese,F.
     An improvement of the resolution of the identity approximation for the formation of the Coulomb matrix
     J. Comp. Chem., 2003 24(14)1740-1747
     doi.org/10.1002/jcc.10318
  2. Neese,F.
     The SHARK Integral Generation and Digestion System
     J. Comp. Chem., 2022  1-16
     doi.org/10.1002/jcc.26942
  3. Lehtola,S.; Steigemann,C.; Oliveira,M.; Marques,M.
     Recent developments in Libxc - A comprehensive library of functionals for density functional theory
     Software X, 2018 7 
     doi.org/10.1016/j.softx.2017.11.002
  4. Caldeweyher,E.; Bannwarth,C.; Grimme,S.
     Extension of the D3 dispersion coefficient model
     J. Chem. Phys., 2017 147 034112
     doi.org/10.1063/1.4993215
  5. Caldeweyher,E.; Ehlert,S.; Hansen,A.; Neugebauer,H.; Spicher,S.; Bannwarth,C.; Grimme,S.
     A generally applicable atomic-charge dependent London dispersion correction
     J. Chem. Phys., 2019 150 154122
     doi.org/10.1063/1.5090222
  6. Caldeweyher,E.; Mewes,J.; Ehlert,S.; Grimme,S.
     Extension and evaluation of the D4 London-dispersion model for periodic systems
     Phys. Chem. Chem. Phys., 2020 22(16)8499-8512
     doi.org/10.1039/D0CP00502A
  7. Wittmann,L.; Gordiy,I.; Friede,M.; Helmich-Paris,B.; Grimme,S.; Hansen,A.; Bursch,M.
     Extension of the D3 and D4 London Dispersion Corrections to the full Actinides Series
     Phys. Chem. Chem. Phys., 2024 26(32)21379-21394
     doi.org/https://doi.org/10.1039/D4CP01514B 

List of suggested additional citations. These are papers that are important in the 'surrounding' of 
of this run, or papers that preceded the highly important papers. If you like your results we are grateful for a citation.

  1. Neese,F.
     The ORCA program system
     WIRES Comput. Molec. Sci., 2012 2(1)73-78
     doi.org/10.1002/wcms.81
  2. Neese,F.
     Software update: the ORCA program system, version 4.0
     WIRES Comput. Molec. Sci., 2018 8(1)1-6
     doi.org/10.1002/wcms.1327
  3. Neese,F.; Wennmohs,F.; Becker,U.; Riplinger,C.
     The ORCA quantum chemistry program package
     J. Chem. Phys., 2020 152 Art. No. L224108
     doi.org/10.1063/5.0004608

List of optional additional citations

  1. Neese,F.
     Approximate second-order SCF convergence for spin unrestricted wavefunctions
     Chem. Phys. Lett., 2000 325(1-3)93-98
     doi.org/10.1016/s0009-2614(00)00662-x

Timings for individual modules:

Sum of individual times          ...       13.504 sec (=   0.225 min)
Startup calculation              ...        0.572 sec (=   0.010 min)   4.2 %
SCF iterations                   ...       12.826 sec (=   0.214 min)  95.0 %
Property calculations            ...        0.106 sec (=   0.002 min)   0.8 %
                             ****ORCA TERMINATED NORMALLY****
TOTAL RUN TIME: 0 days 0 hours 0 minutes 13 seconds 746 msec
