
                                 *****************
                                 * O   R   C   A *
                                 *****************

                                            #,                                       
                                            ###                                      
                                            ####                                     
                                            #####                                    
                                            ######                                   
                                           ########,                                 
                                     ,,################,,,,,                         
                               ,,#################################,,                 
                          ,,##########################################,,             
                       ,#########################################, ''#####,          
                    ,#############################################,,   '####,        
                  ,##################################################,,,,####,       
                ,###########''''           ''''###############################       
              ,#####''   ,,,,##########,,,,          '''####'''          '####       
            ,##' ,,,,###########################,,,                        '##       
           ' ,,###''''                  '''############,,,                           
         ,,##''                                '''############,,,,        ,,,,,,###''
      ,#''                                            '''#######################'''  
     '                                                          ''''####''''         
             ,#######,   #######,   ,#######,      ##                                
            ,#'     '#,  ##    ##  ,#'     '#,    #''#        ,####,   ,####,        
            ##       ##  ##   ,#'  ##            #'  '#       #'       #'  '#        
            ##       ##  #######   ##           ,######,      #####,   #    #        
            '#,     ,#'  ##    ##  '#,     ,#' ,#      #,     #,   #   #,  ,#        
             '#######'   ##     ##  '#######'  #'      '#     '####' # '####'        



                #########################################################
                #                        -***-                          #
                #          Department of theory and spectroscopy        #
                #                                                       #
                #                      Frank Neese                      #
                #                                                       #
                #     Directorship, Architecture, Infrastructure        #
                #                    SHARK, DRIVERS                     #
                #        Core code/Algorithms in most modules           #
                #                                                       #
                #        Max Planck Institute fuer Kohlenforschung      #
                #                Kaiser Wilhelm Platz 1                 #
                #                 D-45470 Muelheim/Ruhr                 #
                #                      Germany                          #
                #                                                       #
                #                  All rights reserved                  #
                #                        -***-                          #
                #########################################################


                         Program Version 6.0.1  -  RELEASE   -


 With contributions from (in alphabetic order):
[Max-Planck-Institut fuer Kohlenforschung]                               
  Daniel Aravena         : Magnetic Suceptibility                        
  Michael Atanasov       : Ab Initio Ligand Field Theory (pilot matlab implementation)
  Alexander A. Auer      : GIAO ZORA, VPT2 properties, NMR spectrum      
  Ute Becker             : All parallelization in ORCA, NUMFREQ, NUMCALC 
  Giovanni Bistoni       : ED, misc. LED, open-shell LED, HFLD           
  Martin Brehm           : Molecular dynamics                            
  Dmytro Bykov           : pre 5.0 version of the SCF Hessian            
  Marcos Casanova-Páez   : Triplet and SCS-CIS(D). UHF-(DLPNO)-IP/EA/STEOM-CCSD. UHF-CVS-IP/STEOM-CCSD   
  Vijay G. Chilkuri      : MRCI spin determinant printing, contributions to CSF-ICE 
  Pauline Colinet        : FMM embedding                                 
  Dipayan Datta          : RHF DLPNO-CCSD density                        
  Achintya Kumar Dutta   : EOM-CC, STEOM-CC                              
  Nicolas Foglia         : Exact transition moments, OPA infrastructure, MCD improvements    
  Dmitry Ganyushin       : Spin-Orbit,Spin-Spin,Magnetic field MRCI      
  Miquel Garcia-Rates    : C-PCM and meta-GGA Hessian, CCSD/C-PCM, Gaussian charge scheme 
  Tiago L. C. Gouveia    : GS-ROHF, GS-ROCIS                             
  Yang Guo               : DLPNO-NEVPT2, F12-NEVPT2, CIM, IAO-localization        
  Andreas Hansen         : Spin unrestricted coupled pair/coupled cluster methods 
  Ingolf Harden          : AUTO-CI MPn and infrastructure                
  Benjamin Helmich-Paris : MC-RPA, TRAH-(SCF,CASSCF), AVAS, COSX integrals, SCF dyn. polar. 
  Lee Huntington         : MR-EOM, pCC                                   
  Robert Izsak           : Overlap fitted RIJCOSX, COSX-SCS-MP3, EOM     
  Riya Kayal             : Wick's Theorem for AUTO-CI, AUTO-CI UHF-CCSDT 
  Emily Kempfer          : AUTO-CI, RHF CISDT and CCSDT                  
  Christian Kollmar      : KDIIS, OOCD, Brueckner-CCSD(T), CCSD density, CASPT2, CASPT2-K, improved NEVPT2 
  Axel Koslowski         : Symmetry handling                             
  Simone Kossmann        : meta-GGA functionals, TD-DFT gradient, OOMP2, (MP2 Hessian; deprecated post 5.0) 
  Lucas Lang             : DCDCAS                                        
  Marvin Lechner         : AUTO-CI (C++ implementation), FIC-MRCC        
  Spencer Leger          : CASSCF response                               
  Dagmar Lenk            : GEPOL surface, SMD, ORCA-2-JSON               
  Dimitrios Liakos       : Extrapolation schemes; Compound Job, initial MDCI parallelization 
  Dimitrios Manganas     : Further ROCIS development; embedding schemes. LFT, Crystal Embedding 
  Dimitrios Pantazis     : SARC Basis sets                               
  Anastasios Papadopoulos: AUTO-CI, single reference methods and gradients 
  Taras Petrenko         : pre 6.0 DFT Hessian and TD-DFT gradient, (ASA, deprecated), ECA, 1-Electron XAS/XES, NRVS 
  Peter Pinski           : DLPNO-MP2, DLPNO-MP2 Gradient                 
  Christoph Reimann      : Effective Core Potentials                     
  Marius Retegan         : Local ZFS, SOC                                
  Christoph Riplinger    : Optimizer, TS searches, QM/MM, DLPNO-CCSD(T), (RO)-DLPNO pert. Triples 
  Michael Roemelt        : Original ROCIS implementation                 
  Masaaki Saitow         : Open-shell DLPNO-CCSD energy and density      
  Barbara Sandhoefer     : DKH picture change effects                    
  Kantharuban Sivalingam : CASSCF convergence/infrastructure, NEVPT2 and variants, FIC-MRCI 
  Bernardo de Souza      : ESD, SOC TD-DFT                               
  Georgi L. Stoychev     : AutoAux, RI-MP2 NMR, DLPNO-MP2 response, X2C  
  Van Anh Tran           : RI-MP2 g-tensors                              
  Willem Van den Heuvel  : Paramagnetic NMR                              
  Zikuan Wang            : NOTCH, Electric field optimization            
  Frank Wennmohs         : Technical directorship and infrastructure     
  Hang Xu                : AUTO-CI-Response properties                   
                                                                         
[FACCTs GmbH]                                                            
  Markus Bursch, Miquel Garcia-Rates, Christoph Riplinger, Bernardo de Souza, Georgi L. Stoychev 
                                                                 
  APM, Basis sets (HGBS, AHGBS, def-TZVP (Ac-Lr), def2-XVPD (La-Lu)), CI-OPT, improved COSX, DLPNO-Multilevel,           
  DOCKER, DRACO, updates on ESD, GOAT, IRC, LR-CPCM, MBIS, meta-GGA TD-DFT gradient, ML-optimized integration grids, 
  MM, NACMEs, nearIR, NEB, NEB-TS, NL-DFT gradient (VV10), 2- and 3-layer-ONIOM, interface openCOSMO-RS, QMMM,   
  Crystal-QMMM, SF, symmetry and pop. for TD-DFT, r2SCAN hybrids, SOLVATOR                                   
                                                                         
[Other institutions]                                                     
  V. Asgeirsson          : NEB                                           
  Christoph Bannwarth    : sTDA-DFT, sTD-DFT, PBEh-3c, B97-3c, D3        
  Sebastian Ehlert       : rSCAN, r2SCAN, r2SCAN-3c, D4, dhf basis sets  
  Marvin Friede          : D4 for Fr, Ra, Ac-Lr                          
  Lars Goerigk           : TD-DFT with DH, B97 family of functionals     
  Stefan Grimme          : VdW corrections, initial TS optimization, DFT functionals, gCP, sTDA/sTD-DF 
  Waldemar Hujo          : DFT-NL                                        
  H. Jonsson             : NEB                                           
  Holger Kruse           : gCP                                           
  Marcel Mueller         : wB97X-3c, vDZP basis set                      
  Hagen Neugebauer       : wr2SCAN                                       
  Tobias Risthaus        : range-separated hybrid DFT                    
  Lukas Wittmann         : regularized MP2, r2SCAN double-hybrids, wr2SCAN        
                                                                         
We gratefully acknowledge several colleagues who have allowed us to      
interface, adapt or use parts of their codes:                            
  Ed Valeev, F. Pavosevic, A. Kumar             : LibInt (2-el integral package), F12 methods 
  Garnet Chan, S. Sharma, J. Yang, R. Olivares  : DMRG                   
  Ulf Ekstrom                                   : XCFun DFT Library      
  Mihaly Kallay                                 : mrcc  (arbitrary order and MRCC methods)
  Frank Weinhold                                : gennbo (NPA and NBO analysis)           
  Simon Mueller                                 : openCOSMO-RS                            
  Christopher J. Cramer and Donald G. Truhlar   : smd solvation model                     
  S Lehtola, MJT Oliveira, MAL Marques          : LibXC Library                           
  Liviu Ungur et al                             : ANISO software                          


 Your calculation uses the libint2 library for the computation of 2-el integrals
 For citations please refer to: http://libint.valeyev.net

 Your ORCA version has been built with support for libXC version: 6.2.2
 For citations please refer to: https://libxc.gitlab.io

 This ORCA versions uses:
   CBLAS   interface :  Fast vector & matrix operations
   LAPACKE interface :  Fast linear algebra routines
   SCALAPACK package :  Parallel linear algebra routines
   Shared memory     :  Shared parallel matrices
   BLAS/LAPACK       :  OpenBLAS 0.3.27  USE64BITINT DYNAMIC_ARCH NO_AFFINITY Zen SINGLE_THREADED
        Core in use  :  Zen
   Copyright (c) 2011-2014, The OpenBLAS Project


Your calculation utilizes the geometrical counterpoise correction gCP
Please cite in your paper:
H.Kruse, S. Grimme J.Chem.Phys., 136, (2012), 154101 
   

Your calculation utilizes the atom-pairwise dispersion correction
based on EEQ partial charges (D4)


================================================================================

----- Orbital basis set information -----
Your calculation utilizes the basis: def2-mTZVPP
   Stefan Grimme, Andreas Hansen, Sebastian Ehlert, and Jan-Michael Mewes 
   J. Chem. Phys. 154, 064103 (2021). DOI: 10.1063/5.0040021

----- AuxJ basis set information -----
Your calculation utilizes the auxiliary basis: def2/J
   F. Weigend, Phys. Chem. Chem. Phys. 8, 1057 (2006).

================================================================================
                                        WARNINGS
                       Please study these warnings very carefully!
================================================================================

WARNING: Old DensityContainer found on disk!
         Will remove this file - 
         If you want to keep old densities, please start your calculation with a different basename. 



WARNING: SCAN, rSCAN, or r2SCAN functional requested.
  ===> : libXC variant has now been activated.



================================================================================
                                       INPUT FILE
================================================================================
NAME = sp.inp
|  1> ! r2scan-3c def2/J RI DEFGRID2 scfconv6 printgap
|  2> %output
|  3>     printlevel normal
|  4> end
|  5> * xyz 0 1
|  6> C -2.4803313026 -0.0361284485 -0.1810637786
|  7> C -1.2271997479 0.756901107 0.1641427812
|  8> C 0.018100578 -0.0951451289 0.0680257732
|  9> O 0.0473949391 -1.2958303169 0.0884567775
| 10> O 1.1064284413 0.6828809934 -0.0286468335
| 11> C 2.3765503792 0.0462836492 -0.0946796385
| 12> H -2.4547014143 -0.3529972571 -1.2204771635
| 13> H -2.5404396895 -0.9247258805 0.4414603261
| 14> H -3.3680864305 0.5700013721 -0.0212812027
| 15> H -1.2836327568 1.1235178294 1.1925491712
| 16> H -1.1061865708 1.6228117449 -0.4876614151
| 17> H 2.8720818093 0.3682803241 -1.0104411568
| 18> H 2.2478824057 -1.0376705333 -0.0960242295
| 19> H 2.9626996837 0.3536678432 0.7717282923
| 20> *
| 21> 
| 22>                          ****END OF INPUT****
================================================================================

                       ****************************
                       * Single Point Calculation *
                       ****************************

---------------------------------
CARTESIAN COORDINATES (ANGSTROEM)
---------------------------------
  C     -2.480331   -0.036128   -0.181064
  C     -1.227200    0.756901    0.164143
  C      0.018101   -0.095145    0.068026
  O      0.047395   -1.295830    0.088457
  O      1.106428    0.682881   -0.028647
  C      2.376550    0.046284   -0.094680
  H     -2.454701   -0.352997   -1.220477
  H     -2.540440   -0.924726    0.441460
  H     -3.368086    0.570001   -0.021281
  H     -1.283633    1.123518    1.192549
  H     -1.106187    1.622812   -0.487661
  H      2.872082    0.368280   -1.010441
  H      2.247882   -1.037671   -0.096024
  H      2.962700    0.353668    0.771728

----------------------------
CARTESIAN COORDINATES (A.U.)
----------------------------
  NO LB      ZA    FRAG     MASS         X           Y           Z
   0 C     6.0000    0    12.011   -4.687147   -0.068273   -0.342161
   1 C     6.0000    0    12.011   -2.319071    1.430336    0.310185
   2 C     6.0000    0    12.011    0.034205   -0.179798    0.128550
   3 O     8.0000    0    15.999    0.089563   -2.448764    0.167159
   4 O     8.0000    0    15.999    2.090847    1.290458   -0.054135
   5 C     6.0000    0    12.011    4.491029    0.087463   -0.178919
   6 H     1.0000    0     1.008   -4.638713   -0.667068   -2.306368
   7 H     1.0000    0     1.008   -4.800735   -1.747479    0.834239
   8 H     1.0000    0     1.008   -6.364761    1.077146   -0.040216
   9 H     1.0000    0     1.008   -2.425714    2.123141    2.253591
  10 H     1.0000    0     1.008   -2.090390    3.066670   -0.921547
  11 H     1.0000    0     1.008    5.427448    0.695949   -1.909457
  12 H     1.0000    0     1.008    4.247882   -1.960913   -0.181459
  13 H     1.0000    0     1.008    5.598691    0.668335    1.458355

--------------------------------
INTERNAL COORDINATES (ANGSTROEM)
--------------------------------
 C      0   0   0     0.000000000000     0.00000000     0.00000000
 C      1   0   0     1.522630006998     0.00000000     0.00000000
 C      2   1   0     1.511950451908   111.71172880     0.00000000
 O      3   2   1     1.201216261217   125.61226211   340.52423899
 O      3   2   1     1.341315689129   110.24236076   161.27657605
 C      5   3   2     1.422260963084   117.92491817   178.45795878
 H      1   2   3     1.086942002936   110.44028879   295.42024442
 H      1   2   3     1.086625361045   109.97149024    54.64887390
 H      1   2   3     1.086753421018   110.39434034   175.04246916
 H      2   1   3     1.093257613113   110.20879838   241.27017398
 H      2   1   3     1.090547629485   111.67647133   121.78117834
 H      6   5   3     1.089886423102   108.22810035   122.77829950
 H      6   5   3     1.091564897333   109.83216132     2.38366113
 H      6   5   3     1.090283794450   108.48268518   241.95386013

---------------------------
INTERNAL COORDINATES (A.U.)
---------------------------
 C      0   0   0     0.000000000000     0.00000000     0.00000000
 C      1   0   0     2.877353716517     0.00000000     0.00000000
 C      2   1   0     2.857172282165   111.71172880     0.00000000
 O      3   2   1     2.269969761312   125.61226211   340.52423899
 O      3   2   1     2.534719311585   110.24236076   161.27657605
 C      5   3   2     2.687683711196   117.92491817   178.45795878
 H      1   2   3     2.054022709005   110.44028879   295.42024442
 H      1   2   3     2.053424342548   109.97149024    54.64887390
 H      1   2   3     2.053666340826   110.39434034   175.04246916
 H      2   1   3     2.065957482608   110.20879838   241.27017398
 H      2   1   3     2.060836355723   111.67647133   121.78117834
 H      6   5   3     2.059586856742   108.22810035   122.77829950
 H      6   5   3     2.062758713361   109.83216132     2.38366113
 H      6   5   3     2.060337779763   108.48268518   241.95386013

---------------------
BASIS SET INFORMATION
---------------------
There are 3 groups of distinct atoms

 Group   1 Type C   : 11s6p1d contracted to 5s3p1d pattern {62111/411/1}
 Group   2 Type O   : 11s6p2d contracted to 5s3p2d pattern {62111/411/11}
 Group   3 Type H   : 4s1p contracted to 2s1p pattern {31/1}

Atom   0C    basis set group =>   1
Atom   1C    basis set group =>   1
Atom   2C    basis set group =>   1
Atom   3O    basis set group =>   2
Atom   4O    basis set group =>   2
Atom   5C    basis set group =>   1
Atom   6H    basis set group =>   3
Atom   7H    basis set group =>   3
Atom   8H    basis set group =>   3
Atom   9H    basis set group =>   3
Atom  10H    basis set group =>   3
Atom  11H    basis set group =>   3
Atom  12H    basis set group =>   3
Atom  13H    basis set group =>   3
---------------------------------
AUXILIARY/J BASIS SET INFORMATION
---------------------------------
There are 3 groups of distinct atoms

 Group   1 Type C   : 12s5p4d2f1g contracted to 6s4p3d1f1g pattern {711111/2111/211/2/1}
 Group   2 Type O   : 12s5p4d2f1g contracted to 6s4p3d1f1g pattern {711111/2111/211/2/1}
 Group   3 Type H   : 5s2p1d contracted to 3s1p1d pattern {311/2/1}

Atom   0C    basis set group =>   1
Atom   1C    basis set group =>   1
Atom   2C    basis set group =>   1
Atom   3O    basis set group =>   2
Atom   4O    basis set group =>   2
Atom   5C    basis set group =>   1
Atom   6H    basis set group =>   3
Atom   7H    basis set group =>   3
Atom   8H    basis set group =>   3
Atom   9H    basis set group =>   3
Atom  10H    basis set group =>   3
Atom  11H    basis set group =>   3
Atom  12H    basis set group =>   3
Atom  13H    basis set group =>   3

Checking for AutoStart:
The File: sp.gbw exists
Trying to determine its content:
     ... Fine, the file contains calculation information
     ... Fine, the calculation information was read
     ... Fine, the file contains a basis set
     ... Fine, the basis set was read
     ... Fine, the file contains a geometry
     ... Fine, the geometry was read
     ... Fine, the file contains a set of orbitals
     ... Fine, the orbitals can be read
     => possible old guess file was deleted
     => GBW file was renamed to GES file
     => GES file is set as startup file
     => Guess is set to MORead
     ... now leaving AutoStart

------------------------------------------------------------------------------
                             ORCA STARTUP CALCULATIONS
                           -- RI-GTO INTEGRALS CHOSEN --
------------------------------------------------------------------------------
------------------------------------------------------------------------------
                   ___                                                        
                  /   \      - P O W E R E D   B Y -                         
                 /     \                                                     
                 |  |  |   _    _      __       _____    __    __             
                 |  |  |  | |  | |    /  \     |  _  \  |  |  /  |          
                  \  \/   | |  | |   /    \    | | | |  |  | /  /          
                 / \  \   | |__| |  /  /\  \   | |_| |  |  |/  /          
                |  |  |   |  __  | /  /__\  \  |    /   |      \           
                |  |  |   | |  | | |   __   |  |    \   |  |\   \          
                \     /   | |  | | |  |  |  |  | |\  \  |  | \   \       
                 \___/    |_|  |_| |__|  |__|  |_| \__\ |__|  \__/        
                                                                              
                      - O R C A' S   B I G   F R I E N D -                    
                                      &                                       
                       - I N T E G R A L  F E E D E R -                       
                                                                              
 v1 FN, 2020, v2 2021, v3 2022-2024                                           
------------------------------------------------------------------------------


----------------------
SHARK INTEGRAL PACKAGE
----------------------

Number of atoms                             ...     14
Number of basis functions                   ...    164
Number of shells                            ...     80
Maximum angular momentum                    ...      2
Integral batch strategy                     ... SHARK/LIBINT Hybrid
RI-J (if used) integral strategy            ... SPLIT-RIJ (Revised 2003 algorithm where possible)
Printlevel                                  ...      1
Contraction scheme used                     ... SEGMENTED contraction
Prescreening option                         ... SCHWARTZ
   Thresh                                   ... 1.000e-10
   Tcut                                     ... 1.000e-11
   Tpresel                                  ... 1.000e-11 
Coulomb Range Separation                    ... NOT USED
Exchange Range Separation                   ... NOT USED
Multipole approximations                    ... NOT USED
Finite Nucleus Model                        ... NOT USED
CABS basis                                  ... NOT available
Auxiliary Coulomb fitting basis             ... AVAILABLE
   # of basis functions in Aux-J            ...    382
   # of shells in Aux-J                     ...    130
   Maximum angular momentum in Aux-J        ...      4
Auxiliary J/K fitting basis                 ... NOT available
Auxiliary Correlation fitting basis         ... NOT available
Auxiliary 'external' fitting basis          ... NOT available

Checking pre-screening integrals            ... done (  0.0 sec) Dimension = 80
Check shell pair data                       ... done (  0.0 sec)
Shell pair information
Shell pair cut-off parameter TPreSel        ...   1.0e-11
Total number of shell pairs                 ...      3240
Shell pairs after pre-screening             ...      2972
Total number of primitive shell pairs       ...     11481
Primitive shell pairs kept                  ...      7780
          la=0 lb=0:    972 shell pairs
          la=1 lb=0:   1096 shell pairs
          la=1 lb=1:    324 shell pairs
          la=2 lb=0:    347 shell pairs
          la=2 lb=1:    198 shell pairs
          la=2 lb=2:     35 shell pairs

Calculating one electron integrals          ... done (  0.0 sec)
Calculating RI/J V-Matrix + Cholesky decomp.... done (  0.0 sec)
Calculating Nuclear repulsion               ... done (  0.0 sec) ENN=    245.961444205655 Eh

Diagonalization of the overlap matrix:
Smallest eigenvalue                        ... 2.113e-04
Time for diagonalization                   ...    0.003 sec
Threshold for overlap eigenvalues          ... 1.000e-07
Number of eigenvalues below threshold      ... 0
Time for construction of square roots      ...    0.003 sec
Total time needed                          ...    0.010 sec

-------------------
DFT GRID GENERATION
-------------------

General Integration Accuracy     IntAcc      ... 4.388
Radial Grid Type                 RadialGrid  ... OptM3 with GC (2021)
Angular Grid (max. ang.)         AngularGrid ... 4 (Lebedev-302)
Angular grid pruning method      GridPruning ... 4 (adaptive)
Weight generation scheme         WeightScheme... mBecke (2022)
Basis function cutoff            BFCut       ... 1.0000e-10
Integration weight cutoff        WCut        ... 1.0000e-14
Partially contracted basis set               ... off
Rotationally invariant grid construction     ... off
Angular grids for H and He will be reduced by one unit
Diffuse basis detected: some atoms will have their outermost
                        angular grid increased by 1.

Total number of grid points                  ...    62803
Total number of batches                      ...      991
Average number of points per batch           ...       63
Average number of grid points per atom       ...     4486
Initializing property integral containers    ... done (  0.0 sec)

SHARK setup successfully completed in   0.6 seconds

Maximum memory used throughout the entire STARTUP-calculation: 28.4 MB
-------------------------------------------------------------------------------
                                 ORCA GUESS
                   Start orbitals & Density for SCF / CASSCF
-------------------------------------------------------------------------------

------------
SCF SETTINGS
------------
Hamiltonian:
 Density Functional     Method          .... DFT(GTOs)
  Functional kind                       .... Exchange
  Functional name                       .... Re-regularized SCAN exchange by Furness et al
  Functional family                     .... MGGA
  Functional refs                              
    [ 0] J. W. Furness, A. D. Kaplan, J. Ning, J. P. Perdew, and J. Sun.,  J. Phys. Chem. Lett. 11, 8208-8215 (2020), doi: 10.1021/acs.jpclett.0c02405
    [ 1] J. W. Furness, A. D. Kaplan, J. Ning, J. P. Perdew, and J. Sun.,  J. Phys. Chem. Lett. 11, 9248-9248 (2020), doi: 10.1021/acs.jpclett.0c03077
  Functional external parameters        .... 6
    Parameter  0 _c1        =  6.670000e-01 : c1 parameter        
    Parameter  1 _c2        =  8.000000e-01 : c2 parameter        
    Parameter  2 _d         =  1.240000e+00 : d parameter         
    Parameter  3 _k1        =  6.500000e-02 : k1 parameter        
    Parameter  4 _eta       =  1.000000e-03 : eta parameter       
    Parameter  5 _dp2       =  3.610000e-01 : dp2 parameter       
  Functional kind                       .... Correlation
  Functional name                       .... Re-regularized SCAN correlation by Furness et al
  Functional family                     .... MGGA
  Functional refs                              
    [ 0] J. W. Furness, A. D. Kaplan, J. Ning, J. P. Perdew, and J. Sun.,  J. Phys. Chem. Lett. 11, 8208-8215 (2020), doi: 10.1021/acs.jpclett.0c02405
    [ 1] J. W. Furness, A. D. Kaplan, J. Ning, J. P. Perdew, and J. Sun.,  J. Phys. Chem. Lett. 11, 9248-9248 (2020), doi: 10.1021/acs.jpclett.0c03077
  Functional external parameters        .... 1
    Parameter  0 _eta       =  1.000000e-03 : Regularization parameter
 Gradients option       PostSCFGGA      .... off
 RI-approximation to the Coulomb term is turned on
   Number of AuxJ basis functions       .... 382


General Settings:
 Integral files         IntName         .... sp
 Hartree-Fock type      HFTyp           .... RHF
 Total Charge           Charge          ....    0
 Multiplicity           Mult            ....    1
 Number of Electrons    NEL             ....   48
 Basis Dimension        Dim             ....  164
 Nuclear Repulsion      ENuc            ....    245.9614442057 Eh

Convergence Acceleration:
 AO-DIIS                CNVDIIS         .... on
   Start iteration      DIISMaxIt       ....    12
   Startup error        DIISStart       ....  0.200000
   # of expansion vecs  DIISMaxEq       ....     5
   Bias factor          DIISBfac        ....   1.050
   Max. coefficient     DIISMaxC        ....  10.000
 MO-DIIS                CNVKDIIS        .... off
 Trust-Rad. Augm. Hess. CNVTRAH         .... auto
   Auto Start mean grad. ratio tolernc. ....  1.125000
   Auto Start start iteration           ....     1
   Auto Start num. interpolation iter.  ....    10
   Max. Number of Micro iterations      ....    24
   Max. Number of Macro iterations      .... Maxiter - #DIIS iter
   Number of Davidson start vectors     ....     2
   Converg. threshold    (grad. norm)   ....   3.330e-04
   Grad. Scal. Fac. for Micro threshold ....   0.100
   Minimum threshold for Micro iter.    ....   1.000e-02
   NR start threshold (gradient norm)   ....   1.000e-04
   Initial trust radius                 ....   0.400
   Minimum AH scaling param. (alpha)    ....   1.000
   Maximum AH scaling param. (alpha)    .... 1000.000
   Quad. conv. algorithm                .... NR
   White noise on init. David. guess    .... on
   Maximum white noise                  ....   0.010
   Pseudo random numbers                .... off
   Inactive MOs                         .... canonical
   Orbital update algorithm             .... Taylor
   Preconditioner                       .... Diag
   Full preconditioner red. dimension   ....   250
   COSX micro iterations for RIJONX calc.... off
 SOSCF                  CNVSOSCF        .... on
   Start iteration      SOSCFMaxIt      ....   150
   Startup grad/error   SOSCFStart      ....  0.003300
   Hessian update       SOSCFHessUp     .... L-BFGS
 Level Shifting         CNVShift        .... on
   Level shift para.    LevelShift      ....    0.2500
   Turn off err/grad.   ShiftErr        ....    0.0010
 Zerner damping         CNVZerner       .... off
 Static damping         CNVDamp         .... on
   Fraction old density DampFac         ....    0.7000
   Max. Damping (<1)    DampMax         ....    0.9800
   Min. Damping (>=0)   DampMin         ....    0.0000
   Turn off err/grad.   DampErr         ....    0.1000

SCF Procedure:
 Maximum # iterations   MaxIter         ....   125
 SCF integral mode      SCFMode         .... Direct
   Integral package                     .... SHARK and LIBINT hybrid scheme
 Reset frequency        DirectResetFreq ....    20
 Integral Threshold     Thresh          ....  1.000e-10 Eh
 Primitive CutOff       TCut            ....  1.000e-11 Eh

Convergence Tolerance:
 Convergence Check Mode ConvCheckMode   .... Total+1el-Energy
 Convergence forced     ConvForced      .... 0
 Energy Change          TolE            ....  1.000e-06 Eh
 1-El. energy change                    ....  1.000e-03 Eh
 Orbital Gradient       TolG            ....  3.330e-04
 Orbital Rotation angle TolX            ....  3.330e-04
 DIIS Error             TolErr          ....  1.000e-06

---------------------
INITIAL GUESS: MOREAD
---------------------
Guess MOs are being read from file: sp.ges
Input Geometry matches current geometry (good)
Atom 0: N(Shells)= 9 and 6 - projection required
Input basis set needs projection
NBasis(read)= 100
NBasis(calc)= 164
Basis set overlap was calculated
Using GuessMode=FMatrix for the initial guess
C*T matrix was formed
Effective Fockian was calculated
Effective Fockian was diagonalized
Initial density was built
                      ------------------
                      INITIAL GUESS DONE (   0.0 sec)
                      ------------------
             **** ENERGY FILE WAS UPDATED (sp.en.tmp) ****
Finished Guess after   0.1 sec
Maximum memory used throughout the entire GUESS-calculation: 11.5 MB

-------------------------------------------------------------------------------------------
                                      ORCA LEAN-SCF
                              memory conserving SCF solver
-------------------------------------------------------------------------------------------

----------------------------------------D-I-I-S--------------------------------------------
Iteration    Energy (Eh)           Delta-E    RMSDP     MaxDP     DIISErr   Damp  Time(sec)
-------------------------------------------------------------------------------------------
               ***  Starting incremental Fock matrix formation  ***
    1    -307.4844854087007207     0.00e+00  3.70e-03  1.17e-01  6.26e-01  0.700   1.5
    2    -307.5302435148623772    -4.58e-02  3.03e-03  8.71e-02  4.40e-01  0.700   1.1
    3    -307.5625708155572511    -3.23e-02  2.22e-03  6.18e-02  3.08e-01  0.700   1.2
    4    -307.5852648167498273    -2.27e-02  1.59e-03  4.36e-02  2.16e-01  0.700   1.4
                               ***Turning on AO-DIIS***
    5    -307.6011818924913541    -1.59e-02  1.15e-03  3.14e-02  1.51e-01  0.700   1.2
    6    -307.6123379592589799    -1.12e-02  8.18e-04  2.22e-02  1.06e-01  0.700   1.2
    7    -307.6201583111177342    -7.82e-03  5.76e-04  1.56e-02  7.40e-02  0.700   1.6
    8    -307.6256370525605917    -5.48e-03  1.35e-03  3.63e-02  5.18e-02  0.000   1.3
                              *** Initializing SOSCF ***
---------------------------------------S-O-S-C-F--------------------------------------
Iteration    Energy (Eh)           Delta-E    RMSDP     MaxDP     MaxGrad    Time(sec)
--------------------------------------------------------------------------------------
    9    -307.6384364374656570    -1.28e-02  8.63e-06  3.22e-04  6.99e-05     1.2
                  *** Gradient check signals convergence ***

               *****************************************************
               *                     SUCCESS                       *
               *           SCF CONVERGED AFTER   9 CYCLES          *
               *****************************************************

             **** ENERGY FILE WAS UPDATED (sp.en.tmp) ****

----------------
TOTAL SCF ENERGY
----------------

Total Energy       :       -307.63843643746566 Eh           -8371.26744 eV

Components:
Nuclear Repulsion  :        245.96144420565511 Eh            6692.95116 eV
Electronic Energy  :       -553.59988064312074 Eh          -15064.21860 eV
One Electron Energy:       -905.41036534762645 Eh          -24637.46859 eV
Two Electron Energy:        351.81048470450571 Eh            9573.24998 eV

Virial components:
Potential Energy   :       -614.07433679533301 Eh          -16709.81221 eV
Kinetic Energy     :        306.43590035786735 Eh            8338.54477 eV
Virial Ratio       :          2.00392426630886

DFT components:
N(Alpha)           :       24.000033450268 electrons
N(Beta)            :       24.000033450268 electrons
N(Total)           :       48.000066900535 electrons
E(X)               :      -40.237975056047 Eh       
E(C)               :       -1.539470372705 Eh       
E(XC)              :      -41.777445428751 Eh       

---------------
SCF CONVERGENCE
---------------

  Last Energy change         ...    1.2799e-02  Tolerance :   1.0000e-06
  Last MAX-Density change    ...    3.2183e-04  Tolerance :   1.0000e-05
  Last RMS-Density change    ...    8.6290e-06  Tolerance :   1.0000e-06
  Last DIIS Error            ...    6.9903e-05  Tolerance :   1.0000e-06
  Last Orbital Gradient      ...    6.9903e-05  Tolerance :   3.3300e-04
  Last Orbital Rotation      ...    6.9903e-05  Tolerance :   3.3300e-04


----------------
ORBITAL ENERGIES
----------------

  NO   OCC          E(Eh)            E(eV) 
   0   2.0000     -18.997725      -516.9544 
   1   2.0000     -18.934309      -515.2287 
   2   2.0000     -10.154853      -276.3276 
   3   2.0000     -10.082667      -274.3633 
   4   2.0000     -10.046078      -273.3677 
   5   2.0000     -10.022983      -272.7392 
   6   2.0000      -1.072683       -29.1892 
   7   2.0000      -0.984938       -26.8015 
   8   2.0000      -0.758115       -20.6294 
   9   2.0000      -0.695515       -18.9259 
  10   2.0000      -0.608570       -16.5600 
  11   2.0000      -0.527995       -14.3675 
  12   2.0000      -0.472909       -12.8685 
  13   2.0000      -0.460363       -12.5271 
  14   2.0000      -0.442116       -12.0306 
  15   2.0000      -0.421187       -11.4611 
  16   2.0000      -0.398479       -10.8432 
  17   2.0000      -0.365936        -9.9576 
  18   2.0000      -0.345565        -9.4033 
  19   2.0000      -0.339186        -9.2297 
  20   2.0000      -0.320507        -8.7214 
  21   2.0000      -0.315063        -8.5733 
  22   2.0000      -0.273296        -7.4368 
  23   2.0000      -0.244134        -6.6432 
  24   0.0000      -0.013788        -0.3752 
  25   0.0000       0.071553         1.9470 
  26   0.0000       0.091053         2.4777 
  27   0.0000       0.118412         3.2221 
  28   0.0000       0.135765         3.6944 
  29   0.0000       0.153514         4.1773 
  30   0.0000       0.160745         4.3741 
  31   0.0000       0.161780         4.4023 
  32   0.0000       0.179438         4.8828 
  33   0.0000       0.182586         4.9684 
  34   0.0000       0.191609         5.2139 
*Only the first 10 virtual orbitals were printed.

                    ********************************
                    * MULLIKEN POPULATION ANALYSIS *
                    ********************************

-----------------------
MULLIKEN ATOMIC CHARGES
-----------------------
   0 C :   -0.460369
   1 C :   -0.263109
   2 C :    0.394420
   3 O :   -0.431542
   4 O :   -0.190937
   5 C :   -0.310518
   6 H :    0.148213
   7 H :    0.163822
   8 H :    0.145600
   9 H :    0.162721
  10 H :    0.160659
  11 H :    0.146097
  12 H :    0.188938
  13 H :    0.146004
Sum of atomic charges:   -0.0000000

--------------------------------
MULLIKEN REDUCED ORBITAL CHARGES
--------------------------------
  0 C s       :     3.317164  s :     3.317164
      pz      :     1.090192  p :     3.116775
      px      :     0.981309
      py      :     1.045274
      dz2     :     0.006449  d :     0.026430
      dxz     :     0.002323
      dyz     :     0.005539
      dx2y2   :     0.004871
      dxy     :     0.007249

  1 C s       :     3.164047  s :     3.164047
      pz      :     1.100956  p :     3.063602
      px      :     0.944146
      py      :     1.018499
      dz2     :     0.007382  d :     0.035460
      dxz     :     0.003846
      dyz     :     0.006524
      dx2y2   :     0.007146
      dxy     :     0.010562

  2 C s       :     3.128504  s :     3.128504
      pz      :     0.749182  p :     2.352066
      px      :     0.831930
      py      :     0.770954
      dz2     :     0.006057  d :     0.125010
      dxz     :     0.010170
      dyz     :     0.025870
      dx2y2   :     0.028207
      dxy     :     0.054707

  3 O s       :     3.843279  s :     3.843279
      pz      :     1.453775  p :     4.568354
      px      :     1.803826
      py      :     1.310753
      dz2     :     0.003896  d :     0.019909
      dxz     :     0.000861
      dyz     :     0.008900
      dx2y2   :     0.005903
      dxy     :     0.000350

  4 O s       :     3.704369  s :     3.704369
      pz      :     1.750935  p :     4.466242
      px      :     1.095903
      py      :     1.619404
      dz2     :     0.003609  d :     0.020326
      dxz     :     0.007246
      dyz     :     0.003871
      dx2y2   :     0.002671
      dxy     :     0.002928

  5 C s       :     3.321293  s :     3.321293
      pz      :     1.097407  p :     2.945565
      px      :     0.783756
      py      :     1.064403
      dz2     :     0.006932  d :     0.043660
      dxz     :     0.013047
      dyz     :     0.002572
      dx2y2   :     0.011505
      dxy     :     0.009603

  6 H s       :     0.833482  s :     0.833482
      pz      :     0.010360  p :     0.018305
      px      :     0.003525
      py      :     0.004419

  7 H s       :     0.817802  s :     0.817802
      pz      :     0.005923  p :     0.018376
      px      :     0.003515
      py      :     0.008939

  8 H s       :     0.836083  s :     0.836083
      pz      :     0.003880  p :     0.018318
      px      :     0.008691
      py      :     0.005746

  9 H s       :     0.819082  s :     0.819082
      pz      :     0.010102  p :     0.018197
      px      :     0.003529
      py      :     0.004566

 10 H s       :     0.821329  s :     0.821329
      pz      :     0.006178  p :     0.018011
      px      :     0.003352
      py      :     0.008481

 11 H s       :     0.836227  s :     0.836227
      pz      :     0.009256  p :     0.017677
      px      :     0.004382
      py      :     0.004039

 12 H s       :     0.792301  s :     0.792301
      pz      :     0.003513  p :     0.018761
      px      :     0.003037
      py      :     0.012211

 13 H s       :     0.836323  s :     0.836323
      pz      :     0.008579  p :     0.017673
      px      :     0.005112
      py      :     0.003983


------------------------
MULLIKEN OVERLAP CHARGES
------------------------
B(  0-C ,  1-C ) :   0.4449 B(  0-C ,  2-C ) :  -0.1479 B(  0-C ,  3-O ) :   0.0800 
B(  0-C ,  6-H ) :   0.8344 B(  0-C ,  7-H ) :   0.8260 B(  0-C ,  8-H ) :   0.8208 
B(  0-C ,  9-H ) :  -0.0533 B(  0-C , 10-H ) :  -0.0617 B(  1-C ,  2-C ) :   0.5634 
B(  1-C ,  3-O ) :  -0.2506 B(  1-C ,  4-O ) :  -0.1680 B(  1-C ,  6-H ) :  -0.0693 
B(  1-C ,  8-H ) :  -0.0997 B(  1-C ,  9-H ) :   0.7570 B(  1-C , 10-H ) :   0.8277 
B(  2-C ,  3-O ) :   1.0220 B(  2-C ,  4-O ) :   0.4560 B(  2-C ,  5-C ) :  -0.2399 
B(  2-C , 10-H ) :  -0.0774 B(  2-C , 12-H ) :  -0.0636 B(  3-O ,  4-O ) :  -0.2177 
B(  4-O ,  5-C ) :   0.3527 B(  4-O , 11-H ) :  -0.0799 B(  4-O , 12-H ) :  -0.0596 
B(  4-O , 13-H ) :  -0.0778 B(  5-C , 11-H ) :   0.7929 B(  5-C , 12-H ) :   0.8604 
B(  5-C , 13-H ) :   0.7883 


                     *******************************
                     * LOEWDIN POPULATION ANALYSIS *
                     *******************************

----------------------
LOEWDIN ATOMIC CHARGES
----------------------
   0 C :   -0.401878
   1 C :   -0.239746
   2 C :    0.361651
   3 O :   -0.432196
   4 O :   -0.607279
   5 C :   -0.050378
   6 H :    0.157374
   7 H :    0.165622
   8 H :    0.150736
   9 H :    0.180484
  10 H :    0.177804
  11 H :    0.172084
  12 H :    0.194120
  13 H :    0.171602

-------------------------------
LOEWDIN REDUCED ORBITAL CHARGES
-------------------------------
  0 C s       :     2.968137  s :     2.968137
      pz      :     1.159135  p :     3.371334
      px      :     1.078708
      py      :     1.133491
      dz2     :     0.015952  d :     0.062407
      dxz     :     0.004573
      dyz     :     0.013393
      dx2y2   :     0.010842
      dxy     :     0.017646

  1 C s       :     2.923567  s :     2.923567
      pz      :     1.134620  p :     3.241661
      px      :     1.022208
      py      :     1.084832
      dz2     :     0.016143  d :     0.074519
      dxz     :     0.006524
      dyz     :     0.015215
      dx2y2   :     0.014588
      dxy     :     0.022049

  2 C s       :     2.738028  s :     2.738028
      pz      :     0.707023  p :     2.627863
      px      :     0.923109
      py      :     0.997731
      dz2     :     0.017554  d :     0.272458
      dxz     :     0.017905
      dyz     :     0.046996
      dx2y2   :     0.066065
      dxy     :     0.123939

  3 O s       :     3.540840  s :     3.540840
      pz      :     1.434287  p :     4.662696
      px      :     1.740138
      py      :     1.488271
      dz2     :     0.030153  d :     0.228661
      dxz     :     0.005534
      dyz     :     0.042515
      dx2y2   :     0.077530
      dxy     :     0.072930

  4 O s       :     3.472594  s :     3.472594
      pz      :     1.722276  p :     4.672709
      px      :     1.313873
      py      :     1.636560
      dz2     :     0.050698  d :     0.461976
      dxz     :     0.107075
      dyz     :     0.030936
      dx2y2   :     0.146032
      dxy     :     0.127234

  5 C s       :     2.903760  s :     2.903760
      pz      :     1.106462  p :     3.041352
      px      :     0.864610
      py      :     1.070280
      dz2     :     0.017076  d :     0.105266
      dxz     :     0.032250
      dyz     :     0.004641
      dx2y2   :     0.028670
      dxy     :     0.022628

  6 H s       :     0.799338  s :     0.799338
      pz      :     0.025803  p :     0.043289
      px      :     0.007610
      py      :     0.009876

  7 H s       :     0.790270  s :     0.790270
      pz      :     0.014398  p :     0.044108
      px      :     0.007576
      py      :     0.022134

  8 H s       :     0.805765  s :     0.805765
      pz      :     0.008664  p :     0.043499
      px      :     0.020788
      py      :     0.014047

  9 H s       :     0.775379  s :     0.775379
      pz      :     0.025282  p :     0.044137
      px      :     0.008218
      py      :     0.010637

 10 H s       :     0.778230  s :     0.778230
      pz      :     0.015175  p :     0.043966
      px      :     0.007787
      py      :     0.021004

 11 H s       :     0.787591  s :     0.787591
      pz      :     0.021936  p :     0.040325
      px      :     0.008717
      py      :     0.009672

 12 H s       :     0.760011  s :     0.760011
      pz      :     0.007693  p :     0.045870
      px      :     0.007899
      py      :     0.030277

 13 H s       :     0.788044  s :     0.788044
      pz      :     0.020475  p :     0.040354
      px      :     0.010372
      py      :     0.009507


---------------------------------
LOEWDIN BOND ORDERS (THRESH 0.050000)
---------------------------------
B(  0-C ,  1-C ) :   1.1297 B(  0-C ,  2-C ) :   0.0705 B(  0-C ,  6-H ) :   0.9265 
B(  0-C ,  7-H ) :   0.9187 B(  0-C ,  8-H ) :   0.9277 B(  1-C ,  2-C ) :   0.9213 
B(  1-C ,  3-O ) :   0.1788 B(  1-C ,  4-O ) :   0.1884 B(  1-C ,  9-H ) :   0.8650 
B(  1-C , 10-H ) :   0.8683 B(  2-C ,  3-O ) :   2.2023 B(  2-C ,  4-O ) :   1.4291 
B(  2-C ,  5-C ) :   0.0865 B(  3-O ,  4-O ) :   0.4550 B(  3-O ,  5-C ) :   0.0774 
B(  4-O ,  5-C ) :   1.3630 B(  4-O , 11-H ) :   0.1009 B(  4-O , 12-H ) :   0.0951 
B(  4-O , 13-H ) :   0.1008 B(  5-C , 11-H ) :   0.8665 B(  5-C , 12-H ) :   0.8362 
B(  5-C , 13-H ) :   0.8664 

------------------------------------------
LOEWDIN REDUCED ORBITAL POPULATIONS PER MO
-------------------------------------------
THRESHOLD FOR PRINTING IS 0.1%%
                      0         1         2         3         4         5   
                 -18.99772 -18.93431 -10.15485 -10.08267 -10.04608 -10.02298
                   2.00000   2.00000   2.00000   2.00000   2.00000   2.00000
                  --------  --------  --------  --------  --------  --------
 0 C  s               0.0       0.0       0.0       0.0       0.0      99.7
 1 C  s               0.0       0.0       0.0       0.0      99.7       0.0
 2 C  s               0.0       0.0      98.9       0.0       0.0       0.0
 3 O  s               0.0      99.9       0.0       0.0       0.0       0.0
 3 O  py              0.0       0.0       0.2       0.0       0.0       0.0
 3 O  dx2y2           0.0       0.0       0.3       0.0       0.0       0.0
 4 O  s              99.9       0.0       0.0       0.0       0.0       0.0
 4 O  dxy             0.0       0.0       0.2       0.1       0.0       0.0
 5 C  s               0.0       0.0       0.0      99.4       0.0       0.0

                      6         7         8         9        10        11   
                  -1.07268  -0.98494  -0.75812  -0.69552  -0.60857  -0.52800
                   2.00000   2.00000   2.00000   2.00000   2.00000   2.00000
                  --------  --------  --------  --------  --------  --------
 0 C  s               0.1       0.1      15.9      11.2      19.1       1.4
 0 C  pz              0.0       0.0       0.1       0.0       0.3       0.4
 0 C  px              0.3       0.2       2.2       0.1       3.7       1.4
 0 C  py              0.0       0.0       0.8       0.1       1.0       1.0
 1 C  s               1.0       0.2      28.6       2.2       7.6       2.9
 1 C  pz              0.0       0.0       0.1       0.0       0.6       0.5
 1 C  px              1.6       0.0       0.2       5.1       7.8       0.5
 1 C  py              0.4       0.5       0.5       0.3       1.4       1.8
 1 C  dxy             0.0       0.0       0.0       0.1       0.2       0.0
 2 C  s              16.9       3.4       4.0       2.2       1.8       3.6
 2 C  pz              0.0       0.0       0.0       0.0       0.2       0.2
 2 C  px              4.4       2.8       6.0       1.7       4.6       3.1
 2 C  py              0.2      20.7       6.9       2.6       1.6       1.5
 2 C  dz2             0.6       0.1       0.0       0.0       0.0       0.0
 2 C  dx2y2           0.1       1.5       0.1       0.0       0.0       0.0
 2 C  dxy             0.4       0.3       0.0       0.2       0.3       0.0
 3 O  s              14.6      39.4       1.9       0.3       0.4       2.5
 3 O  px              0.0       0.1       0.3       0.0       0.2       1.2
 3 O  py              3.4       3.5       0.6       0.2       0.4       2.6
 3 O  dz2             0.5       0.0       0.2       0.0       0.0       0.2
 3 O  dx2y2           0.6       0.1       0.3       0.6       0.1       0.1
 3 O  dxy             0.3       0.2       0.5       0.0       0.2       0.2
 4 O  s              39.5      19.3       0.1       0.6       2.3       4.6
 4 O  pz              0.0       0.0       0.0       0.1       0.0       0.1
 4 O  px              0.3       0.7       6.8      21.8       0.0      19.4
 4 O  py              2.5       0.4       0.1       0.1       0.2       8.1
 4 O  dz2             0.5       0.1       0.0       0.3       0.6       0.2
 4 O  dx2y2           0.0       0.3       0.4       0.4       1.6       0.0
 4 O  dxy             0.3       0.9       0.2       1.6       0.2       0.2
 5 C  s               4.4       2.2       3.6      23.2       6.6       4.4
 5 C  px              4.9       1.4       0.1       0.4       2.3       7.4
 5 C  py              0.5       0.8       0.1       0.1       0.4      10.9
 5 C  dz2             0.1       0.1       0.0       0.0       0.0       0.1
 5 C  dx2y2           0.2       0.1       0.0       0.0       0.0       0.1
 5 C  dxy             0.2       0.1       0.0       0.0       0.1       0.6
 6 H  s               0.0       0.0       2.2       2.1       6.0       1.0
 6 H  pz              0.0       0.0       0.2       0.2       0.4       0.1
 7 H  s               0.0       0.0       2.2       2.1       5.7       0.7
 7 H  pz              0.0       0.0       0.1       0.1       0.2       0.0
 7 H  py              0.0       0.0       0.1       0.1       0.3       0.0
 8 H  s               0.0       0.0       2.3       2.2       6.5       0.6
 8 H  px              0.0       0.0       0.1       0.1       0.3       0.0
 8 H  py              0.0       0.0       0.0       0.1       0.2       0.0
 9 H  s               0.0       0.0       4.5       0.4       3.1       2.2
 9 H  pz              0.0       0.0       0.4       0.0       0.2       0.1
10 H  s               0.1       0.0       4.6       0.2       2.7       1.5
10 H  pz              0.0       0.0       0.1       0.0       0.1       0.1
10 H  py              0.0       0.0       0.3       0.0       0.1       0.0
11 H  s               0.3       0.2       0.6       5.5       2.6       2.1
11 H  pz              0.0       0.0       0.0       0.3       0.1       0.1
11 H  py              0.0       0.0       0.0       0.0       0.0       0.1
12 H  s               0.4       0.1       0.6       4.4       2.1       7.0
12 H  py              0.0       0.0       0.1       0.4       0.1       0.3
13 H  s               0.3       0.2       0.6       5.4       2.6       2.2
13 H  pz              0.0       0.0       0.0       0.3       0.1       0.1
13 H  px              0.0       0.0       0.0       0.1       0.0       0.0
13 H  py              0.0       0.0       0.0       0.0       0.0       0.1

                     12        13        14        15        16        17   
                  -0.47291  -0.46036  -0.44212  -0.42119  -0.39848  -0.36594
                   2.00000   2.00000   2.00000   2.00000   2.00000   2.00000
                  --------  --------  --------  --------  --------  --------
 0 C  s               0.0       0.0       0.1       0.0       0.0       0.0
 0 C  pz              0.5       3.4       0.4      13.9       0.0      17.2
 0 C  px              0.6       0.3       1.5       0.9       8.1       1.2
 0 C  py              7.1       0.7       0.2       1.1       7.8       0.1
 0 C  dz2             0.0       0.0       0.0       0.0       0.0       0.1
 1 C  s               2.0       0.1       0.3       0.0       0.2       0.0
 1 C  pz              1.0      13.2       0.2      20.2       0.1       0.2
 1 C  px              5.8       0.0       1.0       0.0       0.8       3.4
 1 C  py             16.8       1.6       1.6       0.8       5.8       0.9
 1 C  dz2             0.2       0.0       0.0       0.0       0.0       0.0
 1 C  dxz             0.0       0.0       0.0       0.0       0.0       0.1
 1 C  dxy             0.2       0.0       0.0       0.0       0.0       0.1
 2 C  s               2.3       0.1       1.3       0.0       0.8       0.0
 2 C  pz              0.2      16.8       0.3       0.4       0.1      14.1
 2 C  px             12.2       0.0       0.1       0.0       1.7       0.2
 2 C  py              0.2       0.0       4.3       0.3       4.7       0.1
 2 C  dxz             0.0       0.0       0.0       0.2       0.0       0.0
 2 C  dyz             0.0       0.0       0.0       0.0       0.0       0.2
 2 C  dx2y2           0.0       0.0       0.3       0.0       0.3       0.0
 2 C  dxy             0.0       0.0       0.2       0.0       0.0       0.1
 3 O  s               1.8       0.5      11.3       0.4       2.9       0.0
 3 O  pz              0.0       6.7       0.3       0.3       0.1      20.7
 3 O  px              9.6       0.0       0.1       0.0       0.2       0.1
 3 O  py              4.2       1.1      26.4       1.4      19.6       0.0
 3 O  dz2             0.0       0.0       0.2       0.0       0.3       0.0
 3 O  dxz             0.0       0.0       0.0       0.1       0.0       0.0
 3 O  dyz             0.0       1.1       0.0       0.0       0.0       0.7
 3 O  dx2y2           0.2       0.0       0.2       0.0       0.5       0.0
 3 O  dxy             1.2       0.0       0.0       0.0       0.1       0.0
 4 O  s               0.5       0.0       1.5       0.1       0.0       0.1
 4 O  pz              0.4      23.3       1.7       6.9       0.0       2.0
 4 O  px              0.7       0.3       7.2       1.0       0.6       0.8
 4 O  py              6.5       0.1      16.9       0.3       2.3       0.0
 4 O  dxz             0.0       0.0       0.0       1.9       0.0       2.7
 4 O  dyz             0.0       0.5       0.0       0.1       0.0       0.1
 4 O  dx2y2           1.3       0.0       0.5       0.0       0.2       0.0
 4 O  dxy             0.5       0.0       0.1       0.0       0.8       0.1
 5 C  s               0.1       0.0       0.6       0.0       0.0       0.0
 5 C  pz              0.2      14.8       1.1      19.5       0.5      11.2
 5 C  px              1.0       0.0      11.4       0.2       7.5       1.3
 5 C  py              6.0       0.0       1.2       0.0      11.6       0.3
 5 C  dz2             0.0       0.0       0.1       0.0       0.2       0.0
 5 C  dxz             0.0       0.0       0.0       0.0       0.0       0.3
 6 H  s               0.7       0.5       0.4       3.4       0.3       8.0
 6 H  pz              0.0       0.0       0.0       0.1       0.0       0.1
 7 H  s               1.0       1.1       0.1       3.4       1.5       1.7
 7 H  py              0.0       0.0       0.0       0.1       0.0       0.1
 8 H  s               1.0       0.1       0.4       0.3       6.6       0.0
 8 H  pz              0.0       0.0       0.0       0.1       0.0       0.1
 8 H  px              0.1       0.0       0.0       0.0       0.1       0.0
 9 H  s               4.8       2.3       0.1       5.5       0.2       0.0
 9 H  pz              0.3       0.0       0.0       0.1       0.0       0.0
10 H  s               4.5       4.0       0.4       4.7       0.6       0.5
10 H  pz              0.2       0.0       0.0       0.0       0.0       0.0
10 H  py              0.0       0.1       0.0       0.2       0.0       0.0
11 H  s               1.0       3.4       0.9       6.6       4.0       2.9
11 H  pz              0.0       0.0       0.1       0.1       0.1       0.0
12 H  s               2.2       0.0       0.2       0.0       6.0       0.3
12 H  pz              0.0       0.1       0.0       0.1       0.0       0.1
12 H  py              0.1       0.0       0.0       0.0       0.2       0.0
13 H  s               0.4       3.0       4.5       4.3       1.8       7.2
13 H  pz              0.0       0.0       0.1       0.0       0.1       0.0
13 H  px              0.0       0.1       0.0       0.1       0.0       0.0

                     18        19        20        21        22        23   
                  -0.34556  -0.33919  -0.32051  -0.31506  -0.27330  -0.24413
                   2.00000   2.00000   2.00000   2.00000   2.00000   2.00000
                  --------  --------  --------  --------  --------  --------
 0 C  s               0.4       0.1       0.0       0.0       0.0       0.2
 0 C  pz              0.1       1.2      17.5       2.5       0.3       0.1
 0 C  px             30.6       0.3       0.2       2.4       0.0       0.2
 0 C  py              0.8      32.8       3.0       0.1       0.0       0.0
 0 C  dz2             0.0       0.3       0.2       0.1       0.0       0.0
 0 C  dyz             0.0       0.0       0.4       0.1       0.0       0.0
 0 C  dx2y2           0.0       0.3       0.1       0.0       0.0       0.1
 0 C  dxy             0.4       0.0       0.0       0.0       0.0       0.0
 1 C  s               0.4       0.2       0.0       0.1       0.0       0.6
 1 C  pz              0.6       1.7      15.2       2.9       0.2       0.1
 1 C  px             16.7       1.7       0.1       2.9       0.0       3.4
 1 C  py              4.3      10.6       2.0       0.3       0.0       4.6
 1 C  dz2             0.0       0.2       0.2       0.1       0.0       0.0
 1 C  dyz             0.0       0.0       0.5       0.1       0.0       0.0
 1 C  dx2y2           0.0       0.3       0.1       0.0       0.0       0.1
 1 C  dxy             0.4       0.0       0.1       0.1       0.0       0.0
 2 C  s               0.4       0.1       0.1       0.6       0.0       0.3
 2 C  pz              1.1       0.4       1.2       0.1       0.2       0.0
 2 C  px              4.8       3.0       0.1       0.1       0.0       1.1
 2 C  py              0.3       0.6       0.8       4.2       0.0       0.7
 2 C  dxz             0.0       0.0       0.1       0.0       0.5       0.0
 2 C  dyz             0.1       0.0       0.3       0.0       1.6       0.0
 2 C  dx2y2           0.1       0.0       0.1       0.6       0.0       0.0
 2 C  dxy             0.1       0.1       0.0       0.2       0.0       4.3
 3 O  s               0.0       0.1       0.2       0.9       0.0       0.0
 3 O  pz              2.7       1.5       8.9       1.0      29.1       0.3
 3 O  px              2.0       2.5       0.0       0.0       0.1      70.4
 3 O  py              0.2       0.9       2.1       7.7       0.0       0.0
 3 O  dx2y2           0.0       0.0       0.2       0.6       0.0       0.0
 3 O  dxy             0.1       0.2       0.0       0.1       0.0       0.7
 4 O  s               0.1       0.5       0.3       3.9       0.0       0.4
 4 O  pz              1.0       0.1       0.6       0.1      49.7       0.0
 4 O  px              2.4       0.1       0.0       1.2       0.3       2.0
 4 O  py              0.7       1.6       3.2      33.0       0.0       5.9
 4 O  dz2             0.2       0.0       0.0       0.1       0.0       0.3
 4 O  dxz             0.2       0.0       0.0       0.0       0.4       0.0
 4 O  dyz             0.0       0.0       0.2       0.0       0.5       0.0
 4 O  dx2y2           0.0       0.0       0.2       2.1       0.0       0.1
 4 O  dxy             0.4       0.0       0.2       0.2       0.0       0.3
 5 C  s               0.0       0.0       0.0       0.3       0.0       0.2
 5 C  pz              1.4       0.1       0.5       0.0       5.8       0.0
 5 C  px              3.8       0.3       0.0       0.5       0.0       0.6
 5 C  py              3.6       3.7       1.3      12.1       0.0       0.7
 5 C  dxz             0.0       0.0       0.0       0.0       1.2       0.0
 5 C  dx2y2           0.1       0.1       0.1       0.7       0.0       0.1
 6 H  s               0.1       4.6       8.2       2.3       0.2       0.1
 6 H  pz              0.0       0.1       0.0       0.0       0.0       0.0
 6 H  px              0.2       0.0       0.0       0.0       0.0       0.0
 6 H  py              0.0       0.2       0.1       0.0       0.0       0.0
 7 H  s               0.7       8.8      10.3       0.3       0.0       0.0
 7 H  pz              0.0       0.3       0.0       0.0       0.0       0.0
 7 H  px              0.2       0.0       0.0       0.0       0.0       0.0
 7 H  py              0.0       0.0       0.2       0.0       0.0       0.0
 8 H  s               9.3       8.7       0.3       1.9       0.0       0.1
 8 H  pz              0.0       0.0       0.2       0.0       0.0       0.0
 8 H  px              0.0       0.3       0.0       0.0       0.0       0.0
 8 H  py              0.2       0.0       0.0       0.0       0.0       0.0
 9 H  s               0.3       4.2       8.3       2.4       0.1       0.4
 9 H  px              0.2       0.0       0.0       0.0       0.0       0.1
10 H  s               0.9       3.0       9.9       0.5       0.0       0.8
10 H  pz              0.0       0.1       0.0       0.0       0.0       0.0
10 H  px              0.1       0.0       0.0       0.0       0.0       0.1
10 H  py              0.0       0.0       0.1       0.0       0.0       0.0
11 H  s               3.7       0.1       0.0       1.0       4.3       0.0
12 H  s               2.6       2.3       0.9       8.6       0.0       0.1
13 H  s               0.1       0.8       0.7       0.4       4.8       0.0

                     24        25        26        27        28        29   
                  -0.01379   0.07155   0.09105   0.11841   0.13577   0.15351
                   0.00000   0.00000   0.00000   0.00000   0.00000   0.00000
                  --------  --------  --------  --------  --------  --------
 0 C  s               0.4       2.0      12.7      13.7       8.1       0.5
 0 C  pz              0.1       0.2       0.0       0.1       2.1       4.3
 0 C  px              0.2       2.3       0.5       2.5      11.6       3.9
 0 C  py              0.1       1.0       0.2       0.5       8.6       3.2
 0 C  dxz             0.0       0.1       0.0       0.0       0.3       0.2
 0 C  dyz             0.0       0.0       0.0       0.0       0.1       0.5
 0 C  dx2y2           0.0       0.1       0.0       0.0       0.1       0.8
 0 C  dxy             0.0       0.2       0.1       0.0       1.3       0.1
 1 C  s               0.1      10.8       5.4       3.3      11.5       0.2
 1 C  pz              0.1       0.1       0.3       0.0       2.0       8.5
 1 C  px              0.1       1.3       0.5       5.0       9.1       0.5
 1 C  py              0.0       0.5       1.9       0.9       8.5       7.9
 1 C  dz2             0.3       0.0       0.4       0.0       0.1       0.0
 1 C  dxz             0.7       0.0       0.0       0.0       0.1       0.1
 1 C  dyz             0.9       0.0       0.1       0.1       0.1       0.7
 1 C  dx2y2           0.0       0.0       0.5       0.0       0.1       0.8
 1 C  dxy             0.0       0.0       0.3       0.3       0.9       0.4
 2 C  s               0.1       9.3       5.3       0.2       0.5       3.4
 2 C  pz             40.6       0.0       0.3       0.2       1.1       6.8
 2 C  px              0.3       1.1       0.6       4.0       0.6       0.3
 2 C  py              0.0       0.4       2.5       0.2       3.0       2.5
 2 C  dz2             0.0       1.5       0.3       0.0       0.0       0.9
 2 C  dxz             0.4       0.0       0.0       0.0       0.0       0.1
 2 C  dyz             0.8       0.0       0.0       0.0       0.0       0.0
 2 C  dx2y2           0.0       0.0       1.3       0.0       0.0       0.1
 3 O  s               0.0       1.6       1.4       0.0       0.2       0.9
 3 O  pz             23.8       0.0       0.2       0.1       0.0       0.6
 3 O  px              0.1       0.5       0.5       1.6       0.4       0.1
 3 O  py              0.0       0.2       0.5       0.1       0.1       0.4
 3 O  dz2             0.0       1.3       0.8       0.0       0.0       0.5
 3 O  dxz             0.3       0.0       0.0       0.0       0.1       0.2
 3 O  dyz             7.1       0.0       0.1       0.0       0.1       0.0
 3 O  dx2y2           0.0       0.2       0.0       0.1       0.0       0.2
 3 O  dxy             0.0       0.2       0.3       0.0       0.1       0.2
 4 O  s               0.0       9.2       2.5       0.4       0.1       0.1
 4 O  pz              9.5       0.0       0.0       0.0       0.2       1.1
 4 O  px              0.1       1.7       3.4       0.3       0.7       1.9
 4 O  py              0.0       1.8       0.9       0.9       1.2       0.8
 4 O  dz2             0.0       1.9       3.1       1.7       0.0       0.0
 4 O  dxz             4.0       0.0       0.2       0.0       0.0       0.5
 4 O  dyz             0.9       0.0       0.1       0.1       0.1       0.0
 4 O  dx2y2           0.0       0.3       1.8       1.1       0.5       1.4
 4 O  dxy             0.1       0.1       2.2       0.4       1.7       2.7
 5 C  s               0.0       3.4      11.3      25.6       1.5       0.2
 5 C  pz              0.1       0.1       0.1       0.0       0.4       5.8
 5 C  px              0.0      25.7      13.9       7.2       2.9       1.2
 5 C  py              0.0       6.4       4.8       0.2       0.6       7.0
 5 C  dz2             0.0       0.9       0.3       0.1       0.1       0.3
 5 C  dxz             0.4       0.0       0.0       0.0       0.0       0.0
 5 C  dx2y2           0.0       1.0       0.5       0.0       0.3       0.2
 5 C  dxy             0.0       1.3       0.5       0.1       0.2       0.2
 6 H  s               0.1       0.5       1.1       2.1       1.2       1.5
 6 H  pz              0.0       0.2       0.6       1.0       0.9       0.4
 6 H  px              0.0       0.2       0.0       0.0       0.4       0.0
 6 H  py              0.0       0.0       0.0       0.0       0.3       0.2
 7 H  s               0.0       0.5       1.0       1.5       0.9       3.8
 7 H  pz              0.0       0.2       0.3       0.5       0.1       0.2
 7 H  px              0.0       0.1       0.0       0.0       0.4       0.0
 7 H  py              0.0       0.0       0.3       0.4       0.7       0.8
 8 H  s               0.1       0.2       1.5       1.1       1.2       1.3
 8 H  px              0.0       0.0       0.6       0.4       0.1       0.8
 8 H  py              0.0       0.2       0.3       0.6       0.0       0.0
 9 H  s               4.1       1.4       1.5       0.5       3.2       1.5
 9 H  pz              0.1       0.7       0.7       0.3       2.2       0.4
 9 H  px              0.1       0.0       0.1       0.2       0.6       0.0
 9 H  py              0.1       0.1       0.0       0.0       0.4       0.4
10 H  s               1.9       1.0       2.7       0.8       1.1       6.5
10 H  pz              0.0       0.3       0.7       0.4       0.4       0.5
10 H  px              0.0       0.0       0.1       0.2       0.6       0.3
10 H  py              0.1       0.3       0.2       0.2       0.8       1.6
11 H  s               0.6       0.8       1.1       5.5       0.4       1.2
11 H  pz              0.0       0.3       0.2       2.0       0.2       0.7
11 H  px              0.0       0.5       0.7       0.3       0.0       0.0
11 H  py              0.0       0.4       0.0       0.2       0.1       0.0
12 H  s               0.0       0.4       1.1       1.3       1.0       1.5
12 H  px              0.0       0.9       0.2       0.1       0.2       0.1
12 H  py              0.0       0.0       0.7       0.8       0.3       0.6
13 H  s               0.7       0.9       1.1       5.7       0.5       1.4
13 H  pz              0.0       0.5       0.1       1.9       0.2       0.2
13 H  px              0.0       0.4       0.8       0.4       0.0       0.0
13 H  py              0.0       0.4       0.0       0.2       0.1       0.0

                     30        31        32        33        34        35   
                   0.16074   0.16178   0.17944   0.18259   0.19161   0.19363
                   0.00000   0.00000   0.00000   0.00000   0.00000   0.00000
                  --------  --------  --------  --------  --------  --------
 0 C  s               1.8       0.0       0.2       1.1       0.9       2.4
 0 C  pz              5.3       1.1       0.7       0.2       9.0       6.5
 0 C  px             15.2       4.3       0.9       0.4       3.4       3.6
 0 C  py              1.6       2.6       1.4       1.2       0.6       4.7
 0 C  dz2             1.0       0.6       0.5       0.0       0.0       2.6
 0 C  dxz             0.0       0.0       0.0       0.0       0.6       0.2
 0 C  dyz             0.2       0.0       0.1       0.2       0.1       0.1
 0 C  dx2y2           0.4       0.1       0.0       0.0       0.1       0.6
 0 C  dxy             0.1       0.3       0.1       0.0       0.3       0.2
 1 C  s               1.5       0.1       0.7       0.0       0.6       1.1
 1 C  pz              8.1       1.5       0.2       0.9       3.4       0.3
 1 C  px              0.4       6.0       1.4       1.9       3.2       6.4
 1 C  py              2.0      28.2       4.1       1.8       2.8       2.5
 1 C  dz2             0.8       1.5       0.3       0.2       0.1       0.4
 1 C  dxz             0.1       0.0       0.0       0.0       0.1       0.1
 1 C  dyz             0.3       0.4       0.2       0.0       0.7       0.0
 1 C  dx2y2           0.2       0.0       0.0       0.1       0.2       0.6
 1 C  dxy             0.1       0.4       0.1       0.2       0.1       0.0
 2 C  s               2.4       2.8       1.1       0.5       0.2       1.2
 2 C  pz             10.9       0.0       1.6       2.4       6.7       0.5
 2 C  px              0.2       1.1       1.2       0.9       0.7       0.6
 2 C  py              1.8       3.3       0.6       0.7       0.1       1.2
 2 C  dz2             0.6       0.2       0.0       0.1       0.1       0.2
 2 C  dx2y2           0.0       0.0       0.0       0.1       0.2       0.6
 2 C  dxy             0.0       0.0       0.0       0.1       0.1       0.1
 3 O  s               0.6       0.4       0.1       0.2       0.1       1.0
 3 O  pz              1.3       0.2       0.7       1.2       0.6       0.2
 3 O  px              0.0       0.3       2.0       0.0       0.3       0.3
 3 O  py              0.1       0.1       0.1       0.1       0.3       0.5
 3 O  dz2             0.4       3.0       0.7       0.0       0.0       0.1
 3 O  dxz             0.3       0.1       0.2       3.1       0.2       1.4
 3 O  dyz             0.0       0.1       0.0       0.0       0.2       0.1
 3 O  dx2y2           0.3       1.0       0.3       0.0       0.2       0.0
 3 O  dxy             0.1       0.6       0.0       0.3       0.8       0.3
 4 O  s               0.1       0.1       0.2       0.0       0.0       0.0
 4 O  pz              0.8       0.2       0.1       1.2       0.1       0.4
 4 O  px              1.8       0.3       0.1       0.0       0.0       0.1
 4 O  py              0.0       0.3       1.4       0.3       0.0       0.0
 4 O  dz2             0.2       3.8       5.0       0.3       0.0       0.1
 4 O  dxz             0.1       0.7       0.1       0.5       0.1       0.1
 4 O  dyz             0.1       0.3       1.4       7.3       0.3       0.1
 4 O  dx2y2           0.6       0.1       0.1       0.1       0.0       0.1
 4 O  dxy             1.2       1.8       2.0       0.0       0.2       1.0
 5 C  s               0.0       1.4       0.0       0.0       0.1       0.3
 5 C  pz              8.3       0.6       2.1      15.0      37.6      12.4
 5 C  px              1.3       2.3       6.9       1.5       0.4       6.5
 5 C  py              5.3       4.2      22.3       4.1       0.6       2.7
 5 C  dz2             0.5       0.3       2.1       0.3       0.0       0.3
 5 C  dxz             0.0       0.0       0.4       2.3       0.1       0.1
 5 C  dyz             0.2       0.0       0.2       1.8       0.0       0.3
 5 C  dx2y2           0.1       0.4       0.9       0.0       0.0       0.2
 5 C  dxy             0.2       0.1       0.2       0.0       0.0       0.0
 6 H  s               3.0       1.0       0.7       0.2       0.1      14.6
 6 H  pz              0.6       0.4       0.2       0.1       0.1       3.2
 6 H  px              0.1       0.1       0.0       0.0       0.6       0.2
 6 H  py              0.0       0.1       0.2       0.1       0.0       0.1
 7 H  s               0.6       0.1       0.2       1.1       1.6       0.3
 7 H  pz              0.0       0.3       0.5       0.4       0.4       1.1
 7 H  px              0.1       0.2       0.1       0.0       0.1       0.0
 7 H  py              0.6       0.2       0.0       0.1       0.6       0.0
 8 H  s               1.7       4.5       2.4       0.0       2.4       0.6
 8 H  pz              0.1       0.0       0.0       0.0       0.1       0.8
 8 H  px              1.5       0.4       0.1       0.0       0.2       0.5
 8 H  py              0.0       1.2       0.3       0.0       0.7       0.3
 9 H  s               3.0       1.6       0.4       0.5       0.8       1.8
 9 H  pz              0.9       0.4       0.2       0.2       0.1       0.2
 9 H  py              0.0       1.1       0.3       0.0       0.3       0.0
10 H  s               0.3       1.3       1.4       0.5       6.0       1.0
10 H  pz              0.0       1.0       0.5       0.0       0.5       0.2
10 H  px              0.0       0.3       0.1       0.1       0.1       0.0
10 H  py              0.7       0.4       0.0       0.4       1.3       0.0
11 H  s               3.2       0.3       0.2      18.4       3.0       3.1
11 H  pz              0.3       0.1       0.3       1.8       1.6       0.4
11 H  px              0.0       0.0       0.7       1.3       0.5       0.1
11 H  py              0.0       0.3       1.7       0.6       0.0       0.0
12 H  s               2.1       5.3      11.6       0.4       0.3       2.2
12 H  pz              0.2       0.0       0.3       2.2       0.0       0.3
12 H  py              0.8       1.0       0.9       0.0       0.1       0.7
13 H  s               0.4       0.2       9.2      13.6       0.8       1.1
13 H  pz              0.6       0.0       1.9       0.7       0.3       1.2
13 H  px              0.0       0.0       0.1       2.7       0.3       0.1
13 H  py              0.0       0.5       0.4       1.5       0.1       0.1

                     36        37        38        39        40        41   
                   0.19516   0.20503   0.21102   0.23120   0.23193   0.25546
                   0.00000   0.00000   0.00000   0.00000   0.00000   0.00000
                  --------  --------  --------  --------  --------  --------
 0 C  s               0.3       1.0       0.3       3.1       0.0       0.1
 0 C  pz              6.0      14.9      14.6       1.3      20.5      20.4
 0 C  px              2.3       5.5       0.9       8.4       4.0       6.5
 0 C  py             12.3       3.4      13.8      11.9      18.0       0.3
 0 C  dz2             0.0       0.3       0.5       0.4       0.0       0.0
 0 C  dxz             0.3       0.0       0.0       0.0       0.0       0.1
 0 C  dyz             2.7       1.2       0.0       0.1       0.1       0.0
 0 C  dx2y2           1.1       0.1       0.2       0.0       0.0       0.0
 0 C  dxy             0.5       1.5       0.2       0.3       0.1       0.1
 1 C  s               1.1       1.8       0.6       0.6       0.1       0.0
 1 C  pz              1.4       9.7       0.1       1.9       4.2      24.7
 1 C  px              4.1       8.3       2.4       6.4       0.4       1.0
 1 C  py              1.0       3.9       7.1       8.6       0.7       1.0
 1 C  dz2             0.0       0.0       0.2       0.4       0.5       0.0
 1 C  dxz             0.1       0.4       0.1       0.1       0.0       0.1
 1 C  dyz             0.1       0.0       0.4       0.0       0.6       0.2
 1 C  dx2y2           0.1       0.0       0.3       0.3       0.3       0.3
 1 C  dxy             1.1       1.1       0.1       1.0       0.0       0.0
 2 C  s               2.1       1.2       3.5       2.2       0.2       1.2
 2 C  pz              1.9       2.3       0.9       0.6       4.2       2.3
 2 C  px              2.5       2.3       0.1       0.5       1.2       1.6
 2 C  py              0.5       2.0       1.6       2.1       7.1       6.2
 2 C  dz2             0.0       0.0       0.6       0.3       0.0       0.6
 2 C  dxz             0.1       0.1       0.1       0.0       0.3       0.0
 2 C  dx2y2           0.0       0.0       0.0       0.4       0.5       0.1
 2 C  dxy             0.0       0.1       0.2       0.0       0.0       0.2
 3 O  s               0.6       0.5       0.2       0.6       1.7       0.4
 3 O  pz              0.4       0.2       0.4       0.0       0.4       0.1
 3 O  px              0.3       0.9       1.2       0.5       1.8       0.6
 3 O  py              0.6       1.6       0.7       0.8       1.7       1.8
 3 O  dz2             0.4       0.0       0.0       0.3       0.3       0.0
 3 O  dxz             4.3       0.0       1.2       0.2       1.2       0.6
 3 O  dyz             0.1       0.3       0.0       0.0       0.3       0.3
 3 O  dx2y2           0.2       2.1       0.6       0.0       0.1       1.6
 3 O  dxy             0.2       0.6       2.4       0.1       0.1       0.5
 4 O  s               0.2       0.0       0.4       0.3       0.5       1.8
 4 O  pz              0.3       0.1       0.4       0.2       0.2       0.2
 4 O  px              0.1       0.0       2.6       0.1       0.1       2.6
 4 O  py              0.4       0.1       0.1       2.1       0.0       0.8
 4 O  dz2             0.1       0.1       0.3       0.3       0.8       1.0
 4 O  dxz             0.2       0.1       0.2       0.2       0.4       0.1
 4 O  dyz             0.3       0.1       0.0       0.6       0.3       0.8
 4 O  dx2y2           0.1       0.0       1.6       0.2       1.2       0.1
 4 O  dxy             0.1       0.3       0.2       3.1       0.9       1.0
[...]
 4 O  px              0.1       0.6       0.0       0.1       0.2       6.4
 4 O  py              0.0       0.0       0.1       0.0       8.4       7.7
 4 O  dz2             0.0       0.1       0.0       0.0       1.4      13.7
 4 O  dxz             0.0       0.0       0.0       0.3       0.0       0.4
 4 O  dyz             0.0       0.0       0.0       0.1       0.0       0.0
 4 O  dx2y2           0.8       0.2       0.0       0.0       8.1      11.2
 4 O  dxy             0.0       0.1       0.0       0.0       0.4       2.4
 5 C  s               0.0       0.0       0.0       0.0       0.1       1.6
 5 C  px              1.1       0.7       0.0       0.0       0.1       6.9
 5 C  py              6.7       4.5       0.0       0.0       0.3       0.8
 5 C  dz2             6.8       5.1       0.0       0.0       0.6       4.5
 5 C  dx2y2           6.4       4.6       0.0       0.0       2.1       2.5
 5 C  dxy             0.1       0.1       0.0       0.0       1.0       6.4
 6 H  s               0.2       0.5       6.6       0.3       0.0       0.0
 6 H  pz              0.3       1.0      17.4       0.6       0.0       0.0
 6 H  px              0.3       0.4       0.0       0.0       0.0       0.0
 6 H  py              0.0       0.0       0.7       0.5       0.1       0.0
 7 H  s               0.0       0.3       0.1       5.1       0.1       0.0
 7 H  pz              0.0       0.3       1.0       4.7       0.2       0.0
 7 H  px              0.2       0.1       0.0       0.4       0.0       0.0
 7 H  py              0.0       0.0       0.1       8.0       0.1       0.0
 8 H  s               3.9       4.2       1.8       1.3       0.2       0.0
 8 H  pz              0.3       0.4       0.0       0.0       0.0       0.0
 8 H  px              5.8       5.7       3.4       2.0       0.5       0.0
 8 H  py              4.6       4.1       0.4       0.6       0.2       0.0
 9 H  s               0.2       0.3       3.2       3.0       0.1       0.0
 9 H  pz              0.8       1.5       9.2       5.3       0.1       0.0
 9 H  px              0.3       0.0       0.2       0.0       0.0       0.0
 9 H  py              0.0       0.1       0.7       1.4       0.0       0.0
10 H  s               0.5       1.7       0.3       6.0       0.2       0.0
10 H  pz              1.2       3.7       0.9       4.3       0.2       0.0
10 H  px              0.0       0.1       0.1       0.2       0.0       0.0
10 H  py              0.3       1.7       0.4      10.4       0.3       0.0
11 H  s               1.6       0.8       0.0       0.0       0.2       0.4
11 H  pz              3.1       1.6       0.0       0.0       0.5       0.7
11 H  px              0.5       0.4       0.0       0.0       0.0       0.0
11 H  py              0.0       0.0       0.0       0.0       0.0       0.3
12 H  s               5.9       3.9       0.0       0.0       0.3       0.1
12 H  px              0.1       0.1       0.0       0.0       1.8       0.2
12 H  py             15.0       9.5       0.0       0.0       0.5       0.1
13 H  s               1.0       1.0       0.1       0.0       0.2       0.4
13 H  pz              2.0       1.7       0.1       0.0       0.4       0.7
13 H  px              0.5       0.6       0.1       0.0       0.1       0.0
13 H  py              0.0       0.0       0.0       0.0       0.0       0.3

                    156       157       158       159       160       161   
                   4.28436   4.44219  21.92485  21.97224  22.00121  22.24016
                   0.00000   0.00000   0.00000   0.00000   0.00000   0.00000
                  --------  --------  --------  --------  --------  --------
 0 C  s               0.0       0.0      70.8      13.7      15.1       0.0
 1 C  s               0.1       0.0      26.8      15.3      56.0       1.6
 1 C  px              0.1       0.0       0.0       0.0       0.0       0.0
 1 C  dz2             0.0       0.1       0.0       0.0       0.0       0.0
 1 C  dxy             0.3       0.0       0.0       0.0       0.0       0.0
 2 C  s               2.2       6.1       0.2       0.1       2.3      96.4
 2 C  px              4.9       0.0       0.0       0.0       0.0       0.0
 2 C  py              2.1       7.8       0.0       0.0       0.0       0.1
 2 C  dz2             1.5       1.7       0.0       0.0       0.0       0.0
 2 C  dx2y2           0.8       4.5       0.0       0.0       0.0       0.0
 2 C  dxy            10.9       0.0       0.0       0.0       0.0       0.0
 3 O  s               0.3      18.7       0.0       0.0       0.0       0.2
 3 O  px              0.4       0.0       0.0       0.0       0.0       0.0
 3 O  py              0.3      22.1       0.0       0.0       0.0       0.2
 3 O  dz2             0.4       8.4       0.0       0.0       0.0       0.0
 3 O  dx2y2           0.1      26.1       0.0       0.0       0.0       0.0
 3 O  dxy             2.3       0.0       0.0       0.0       0.0       0.0
 4 O  s               5.3       0.8       0.0       0.0       0.1       0.1
 4 O  pz              0.2       0.0       0.0       0.0       0.0       0.0
 4 O  px             27.9       0.4       0.0       0.0       0.0       0.1
 4 O  py              2.1       0.2       0.0       0.0       0.0       0.0
 4 O  dz2             2.3       0.6       0.0       0.0       0.0       0.0
 4 O  dxz             0.1       0.0       0.0       0.0       0.0       0.0
 4 O  dyz             0.2       0.0       0.0       0.0       0.0       0.0
 4 O  dx2y2           0.5       0.5       0.0       0.0       0.0       0.0
 4 O  dxy            27.4       0.5       0.0       0.0       0.0       0.0
 5 C  s               0.6       0.2       1.7      70.6      26.2       1.1
 5 C  px              1.4       0.2       0.0       0.0       0.0       0.0
 5 C  py              0.7       0.1       0.0       0.0       0.0       0.0
 5 C  dz2             0.3       0.0       0.0       0.0       0.0       0.0
 5 C  dx2y2           1.5       0.1       0.0       0.0       0.0       0.0
 5 C  dxy             1.4       0.3       0.0       0.0       0.0       0.0
12 H  s               0.2       0.0       0.0       0.0       0.0       0.0
12 H  px              0.1       0.0       0.0       0.0       0.0       0.0
12 H  py              0.3       0.0       0.0       0.0       0.0       0.0

                    162       163   
                  43.63303  43.71303
                   0.00000   0.00000
                  --------  --------
 3 O  s              67.5      32.5
 4 O  s              32.5      67.5


                      *****************************
                      * MAYER POPULATION ANALYSIS *
                      *****************************

  NA   - Mulliken gross atomic population
  ZA   - Total nuclear charge
  QA   - Mulliken gross atomic charge
  VA   - Mayer's total valence
  BVA  - Mayer's bonded valence
  FA   - Mayer's free valence

  ATOM       NA         ZA         QA         VA         BVA        FA
  0 C      6.4604     6.0000    -0.4604     3.8559     3.8559    -0.0000
  1 C      6.2631     6.0000    -0.2631     3.7479     3.7479    -0.0000
  2 C      5.6056     6.0000     0.3944     3.8429     3.8429     0.0000
  3 O      8.4315     8.0000    -0.4315     1.9609     1.9609    -0.0000
  4 O      8.1909     8.0000    -0.1909     1.9317     1.9317     0.0000
  5 C      6.3105     6.0000    -0.3105     3.7446     3.7446    -0.0000
  6 H      0.8518     1.0000     0.1482     0.9641     0.9641     0.0000
  7 H      0.8362     1.0000     0.1638     0.9601     0.9601    -0.0000
  8 H      0.8544     1.0000     0.1456     0.9611     0.9611     0.0000
  9 H      0.8373     1.0000     0.1627     0.9581     0.9581    -0.0000
 10 H      0.8393     1.0000     0.1607     0.9614     0.9614    -0.0000
 11 H      0.8539     1.0000     0.1461     0.9581     0.9581     0.0000
 12 H      0.8111     1.0000     0.1889     0.9585     0.9585     0.0000
 13 H      0.8540     1.0000     0.1460     0.9581     0.9581    -0.0000

  Mayer bond orders larger than 0.100000
B(  0-C ,  1-C ) :   0.9263 B(  0-C ,  6-H ) :   0.9774 B(  0-C ,  7-H ) :   0.9696 
B(  0-C ,  8-H ) :   0.9725 B(  1-C ,  2-C ) :   0.9994 B(  1-C ,  9-H ) :   0.9259 
B(  1-C , 10-H ) :   0.9593 B(  2-C ,  3-O ) :   1.8521 B(  2-C ,  4-O ) :   1.0599 
B(  4-O ,  5-C ) :   0.8438 B(  5-C , 11-H ) :   0.9654 B(  5-C , 12-H ) :   0.9695 
B(  5-C , 13-H ) :   0.9637 

-------
TIMINGS
-------

Total SCF time: 0 days 0 hours 0 min 11 sec 

Total time                  ....      11.917 sec
Sum of individual times     ....      11.871 sec  ( 99.6%)

SCF preparation             ....       0.043 sec  (  0.4%)
Fock matrix formation       ....      11.399 sec  ( 95.7%)
  Startup                   ....       0.002 sec  (  0.0% of F)
  Split-RI-J                ....       1.951 sec  ( 17.1% of F)
  XC integration            ....       9.418 sec  ( 82.6% of F)
    XC Preparation          ....       0.000 sec  (  0.0% of XC)
    Basis function eval.    ....       1.766 sec  ( 18.7% of XC)
    Density eval.           ....       3.053 sec  ( 32.4% of XC)
    XC-Functional eval.     ....       1.379 sec  ( 14.6% of XC)
    XC-Potential eval.      ....       2.948 sec  ( 31.3% of XC)
Diagonalization             ....       0.000 sec  (  0.0%)
Density matrix formation    ....       0.228 sec  (  1.9%)
Total Energy calculation    ....       0.002 sec  (  0.0%)
Population analysis         ....       0.120 sec  (  1.0%)
Orbital Transformation      ....       0.011 sec  (  0.1%)
Orbital Orthonormalization  ....       0.000 sec  (  0.0%)
DIIS solution               ....       0.063 sec  (  0.5%)
  MO trafo                  ....       0.000 sec  (  0.0 % of DIIS)
  Orb grad                  ....       0.000 sec  (  0.0 % of DIIS)
  Energy W gradient         ....       0.000 sec  (  0.0 % of DIIS)
  DIIS error                ....       0.006 sec  (  9.7 % of DIIS)
  DIIS work                 ....       0.051 sec  ( 80.2 % of DIIS)
  Form Q                    ....       0.000 sec  (  0.0 % of DIIS)
  Form QpQm                 ....       0.000 sec  (  0.0 % of DIIS)
  Exp/Cayley                ....       0.000 sec  (  0.0 % of DIIS)
  Orb update                ....       0.000 sec  (  0.0 % of DIIS)
  Wake-sleep                ....       0.001 sec  (  1.4 % of DIIS)
SOSCF solution              ....       0.006 sec  (  0.1%)
  MO trafo                  ....       0.006 sec  ( 95.3 % of SOSCF)
  Orb grad                  ....       0.000 sec  (  0.0 % of SOSCF)
  Rot update                ....       0.000 sec  (  0.0 % of SOSCF)
  Step                      ....       0.000 sec  (  0.0 % of SOSCF)
Finished LeanSCF after  11.9 sec

Maximum memory used throughout the entire LEANSCF-calculation: 17.1 MB


-------------------------------------------------------------------------------
                          DFT DISPERSION CORRECTION                            
                                                                               
                                DFTD4 V3.4.0                                   
-------------------------------------------------------------------------------
The R2SCAN3C composite method is recognized
Using three-body term ABC
Active option DFTDOPT                   ...         5   

-------------------------   ----------------
Dispersion correction           -0.002943617
-------------------------   ----------------

------------------   -----------------
gCP correction             0.009570042
------------------   -----------------

-------------------------   --------------------
FINAL SINGLE POINT ENERGY      -307.631810012707
-------------------------   --------------------


------------------------------------------------------------------------------
                              ORCA PROPERTY CALCULATIONS
------------------------------------------------------------------------------

GBWName                                 ... sp.gbw
Number of atoms                         ...     14
Number of basis functions               ...    164
Max core memory                         ...   1024 MB

Electric properties:
Dipole moment                           ... YES
Quadrupole moment                       ...  NO
Static polarizability (Dipole/Dipole)   ...  NO
Static polarizability (Dipole/Quad.)    ...  NO
Static polarizability (Quad./Quad.)     ...  NO
Static polarizability (Velocity)        ...  NO

Atomic electric properties:
Dipole moment                           ...  NO
Quadrupole moment                       ...  NO
Static polarizability                   ...  NO

Choice of electric origin               ... Center of mass
Position of electric origin             ...    -0.000016     0.000009    -0.000001

General magnetic properties:
Magnetizability                         ...  NO

EPR properties:
g-Tensor (aka g-matrix)                 ...  NO
Zero-Field splitting spin-orbit         ...  NO
Zero-field splitting spin-spin          ...  NO
Hyperfine couplings                     ...  NO (   0 nuclei)
Quadrupole couplings                    ...  NO (   0 nuclei)
Contact density                         ...  NO (   0 nuclei)

NMR properties:
Chemical shifts                         ...  NO (   0 nuclei)
Spin-rotation constants                 ...  NO (   0 nuclei)
Spin-spin couplings                     ...  NO (   0 nuclei,    0 pairs)

Choice of magnetic origin               ... GIAO
Position of magnetic origin             ...     0.000000     0.000000     0.000000

Properties with geometric perturbations:
SCF Hessian                             ...  NO
IR spectrum                             ...  NO
VCD spectrum                            ...  NO
X-ray spectroscopy properties:
SCF XES/XAS/RIXS spectra                ...  NO


-------------
DIPOLE MOMENT
-------------

Method             : SCF
Type of density    : Electron Density
Multiplicity       :   1
Irrep              :   0
Energy             :  -307.6384364374656570 Eh
Relativity type    : 
Basis              : AO
                                X                 Y                 Z
Electronic contribution:      2.690975325      -0.945163710       0.394541017
Nuclear contribution   :     -2.488163773       1.607269698      -0.402663854
                        -----------------------------------------
Total Dipole Moment    :      0.202811552       0.662105988      -0.008122837
                        -----------------------------------------
Magnitude (a.u.)       :      0.692519202
Magnitude (Debye)      :      1.760243923



--------------------
Rotational spectrum 
--------------------
 
Rotational constants in cm-1:             0.312314             0.071845             0.060955 
Rotational constants in MHz :          9362.935250          2153.868981          1827.398420 

Dipole components along the rotational axes: 
x,y,z [a.u.] :     0.203326     0.661972    -0.005845 
x,y,z [Debye]:     0.516812     1.682600    -0.014858 

 

Dipole moment calculation done in   0.0 sec 

Maximum memory used throughout the entire PROP-calculation: 9.8 MB

--------------------------------
SUGGESTED CITATIONS FOR THIS RUN
--------------------------------

Below you find a list of papers that are relevant to this ORCA run
We neither can nor want to force you to cite these papers, but we appreciate if you do
You receive ORCA, which is the product of decades of hard work by many enthusiastic individuals, for free
The only thing we kindly ask in return is that you cite our papers,
We deeply appreciate it, if you show your appreciation for ORCA by not just citing the generic ORCA reference.

Please note that relegating all ORCA citations to the supporting information does *not* help us.
SI sections are not indexed - citations you put there will not count into any citation statistics
But we need these citations in order to attract the funding resources that allow us to do what we are doing

Therefore, if you are a happy ORCA user, please consider citing a few of the papers listed below in the main body of your paper

In addition to the list printed below, the program has created the file sp.bibtex that contains the list in bibtex format
You can import this file easily into all common literature databanks and citation aid programs


List of essential papers. We consider these as the minimum necessary citations

  1. Neese,F.
     Software update: the ORCA program system, version 5.0
     WIRES Comput. Molec. Sci., 2022 12(1)e1606
     doi.org/10.1002/wcms.1606
  2. Grimme,S.; Hansen,A.; Ehlert,S.; Mewes,J.
     r2SCAN-3c: A 'Swiss army knife' composite electronic-structure method
     J. Chem. Phys., 2021 154 064103
     doi.org/10.1063/5.0040021

List of papers to cite with high priority. The work reported in these papers was absolutely
necessary for this run to complete.
Our perspective: the developers of density functionals and basis sets usually get cited in chemistry papers
Good! But without the algorithms to do something with them, the functionals or basis sets would not do anything.
Hence, in our opinion, the algorithm design and method developments papers are equally worthy of getting cited

  1. Neese,F.
     An improvement of the resolution of the identity approximation for the formation of the Coulomb matrix
     J. Comp. Chem., 2003 24(14)1740-1747
     doi.org/10.1002/jcc.10318
  2. Neese,F.
     The SHARK Integral Generation and Digestion System
     J. Comp. Chem., 2022  1-16
     doi.org/10.1002/jcc.26942
  3. Lehtola,S.; Steigemann,C.; Oliveira,M.; Marques,M.
     Recent developments in Libxc - A comprehensive library of functionals for density functional theory
     Software X, 2018 7 
     doi.org/10.1016/j.softx.2017.11.002
  4. Caldeweyher,E.; Bannwarth,C.; Grimme,S.
     Extension of the D3 dispersion coefficient model
     J. Chem. Phys., 2017 147 034112
     doi.org/10.1063/1.4993215
  5. Caldeweyher,E.; Ehlert,S.; Hansen,A.; Neugebauer,H.; Spicher,S.; Bannwarth,C.; Grimme,S.
     A generally applicable atomic-charge dependent London dispersion correction
     J. Chem. Phys., 2019 150 154122
     doi.org/10.1063/1.5090222
  6. Caldeweyher,E.; Mewes,J.; Ehlert,S.; Grimme,S.
     Extension and evaluation of the D4 London-dispersion model for periodic systems
     Phys. Chem. Chem. Phys., 2020 22(16)8499-8512
     doi.org/10.1039/D0CP00502A
  7. Wittmann,L.; Gordiy,I.; Friede,M.; Helmich-Paris,B.; Grimme,S.; Hansen,A.; Bursch,M.
     Extension of the D3 and D4 London Dispersion Corrections to the full Actinides Series
     Phys. Chem. Chem. Phys., 2024 26(32)21379-21394
     doi.org/https://doi.org/10.1039/D4CP01514B 

List of suggested additional citations. These are papers that are important in the 'surrounding' of 
of this run, or papers that preceded the highly important papers. If you like your results we are grateful for a citation.

  1. Neese,F.
     The ORCA program system
     WIRES Comput. Molec. Sci., 2012 2(1)73-78
     doi.org/10.1002/wcms.81
  2. Neese,F.
     Software update: the ORCA program system, version 4.0
     WIRES Comput. Molec. Sci., 2018 8(1)1-6
     doi.org/10.1002/wcms.1327
  3. Neese,F.; Wennmohs,F.; Becker,U.; Riplinger,C.
     The ORCA quantum chemistry program package
     J. Chem. Phys., 2020 152 Art. No. L224108
     doi.org/10.1063/5.0004608

List of optional additional citations

  1. Neese,F.
     Approximate second-order SCF convergence for spin unrestricted wavefunctions
     Chem. Phys. Lett., 2000 325(1-3)93-98
     doi.org/10.1016/s0009-2614(00)00662-x

Timings for individual modules:

Sum of individual times          ...       12.812 sec (=   0.214 min)
Startup calculation              ...        0.625 sec (=   0.010 min)   4.9 %
SCF iterations                   ...       12.050 sec (=   0.201 min)  94.1 %
Property calculations            ...        0.136 sec (=   0.002 min)   1.1 %
                             ****ORCA TERMINATED NORMALLY****
TOTAL RUN TIME: 0 days 0 hours 0 minutes 13 seconds 34 msec
