
                                 *****************
                                 * O   R   C   A *
                                 *****************

                                            #,                                       
                                            ###                                      
                                            ####                                     
                                            #####                                    
                                            ######                                   
                                           ########,                                 
                                     ,,################,,,,,                         
                               ,,#################################,,                 
                          ,,##########################################,,             
                       ,#########################################, ''#####,          
                    ,#############################################,,   '####,        
                  ,##################################################,,,,####,       
                ,###########''''           ''''###############################       
              ,#####''   ,,,,##########,,,,          '''####'''          '####       
            ,##' ,,,,###########################,,,                        '##       
           ' ,,###''''                  '''############,,,                           
         ,,##''                                '''############,,,,        ,,,,,,###''
      ,#''                                            '''#######################'''  
     '                                                          ''''####''''         
             ,#######,   #######,   ,#######,      ##                                
            ,#'     '#,  ##    ##  ,#'     '#,    #''#        ,####,   ,####,        
            ##       ##  ##   ,#'  ##            #'  '#       #'       #'  '#        
            ##       ##  #######   ##           ,######,      #####,   #    #        
            '#,     ,#'  ##    ##  '#,     ,#' ,#      #,     #,   #   #,  ,#        
             '#######'   ##     ##  '#######'  #'      '#     '####' # '####'        



                #########################################################
                #                        -***-                          #
                #          Department of theory and spectroscopy        #
                #                                                       #
                #                      Frank Neese                      #
                #                                                       #
                #     Directorship, Architecture, Infrastructure        #
                #                    SHARK, DRIVERS                     #
                #        Core code/Algorithms in most modules           #
                #                                                       #
                #        Max Planck Institute fuer Kohlenforschung      #
                #                Kaiser Wilhelm Platz 1                 #
                #                 D-45470 Muelheim/Ruhr                 #
                #                      Germany                          #
                #                                                       #
                #                  All rights reserved                  #
                #                        -***-                          #
                #########################################################


                         Program Version 6.0.1  -  RELEASE   -


 With contributions from (in alphabetic order):
[Max-Planck-Institut fuer Kohlenforschung]                               
  Daniel Aravena         : Magnetic Suceptibility                        
  Michael Atanasov       : Ab Initio Ligand Field Theory (pilot matlab implementation)
  Alexander A. Auer      : GIAO ZORA, VPT2 properties, NMR spectrum      
  Ute Becker             : All parallelization in ORCA, NUMFREQ, NUMCALC 
  Giovanni Bistoni       : ED, misc. LED, open-shell LED, HFLD           
  Martin Brehm           : Molecular dynamics                            
  Dmytro Bykov           : pre 5.0 version of the SCF Hessian            
  Marcos Casanova-Páez   : Triplet and SCS-CIS(D). UHF-(DLPNO)-IP/EA/STEOM-CCSD. UHF-CVS-IP/STEOM-CCSD   
  Vijay G. Chilkuri      : MRCI spin determinant printing, contributions to CSF-ICE 
  Pauline Colinet        : FMM embedding                                 
  Dipayan Datta          : RHF DLPNO-CCSD density                        
  Achintya Kumar Dutta   : EOM-CC, STEOM-CC                              
  Nicolas Foglia         : Exact transition moments, OPA infrastructure, MCD improvements    
  Dmitry Ganyushin       : Spin-Orbit,Spin-Spin,Magnetic field MRCI      
  Miquel Garcia-Rates    : C-PCM and meta-GGA Hessian, CCSD/C-PCM, Gaussian charge scheme 
  Tiago L. C. Gouveia    : GS-ROHF, GS-ROCIS                             
  Yang Guo               : DLPNO-NEVPT2, F12-NEVPT2, CIM, IAO-localization        
  Andreas Hansen         : Spin unrestricted coupled pair/coupled cluster methods 
  Ingolf Harden          : AUTO-CI MPn and infrastructure                
  Benjamin Helmich-Paris : MC-RPA, TRAH-(SCF,CASSCF), AVAS, COSX integrals, SCF dyn. polar. 
  Lee Huntington         : MR-EOM, pCC                                   
  Robert Izsak           : Overlap fitted RIJCOSX, COSX-SCS-MP3, EOM     
  Riya Kayal             : Wick's Theorem for AUTO-CI, AUTO-CI UHF-CCSDT 
  Emily Kempfer          : AUTO-CI, RHF CISDT and CCSDT                  
  Christian Kollmar      : KDIIS, OOCD, Brueckner-CCSD(T), CCSD density, CASPT2, CASPT2-K, improved NEVPT2 
  Axel Koslowski         : Symmetry handling                             
  Simone Kossmann        : meta-GGA functionals, TD-DFT gradient, OOMP2, (MP2 Hessian; deprecated post 5.0) 
  Lucas Lang             : DCDCAS                                        
  Marvin Lechner         : AUTO-CI (C++ implementation), FIC-MRCC        
  Spencer Leger          : CASSCF response                               
  Dagmar Lenk            : GEPOL surface, SMD, ORCA-2-JSON               
  Dimitrios Liakos       : Extrapolation schemes; Compound Job, initial MDCI parallelization 
  Dimitrios Manganas     : Further ROCIS development; embedding schemes. LFT, Crystal Embedding 
  Dimitrios Pantazis     : SARC Basis sets                               
  Anastasios Papadopoulos: AUTO-CI, single reference methods and gradients 
  Taras Petrenko         : pre 6.0 DFT Hessian and TD-DFT gradient, (ASA, deprecated), ECA, 1-Electron XAS/XES, NRVS 
  Peter Pinski           : DLPNO-MP2, DLPNO-MP2 Gradient                 
  Christoph Reimann      : Effective Core Potentials                     
  Marius Retegan         : Local ZFS, SOC                                
  Christoph Riplinger    : Optimizer, TS searches, QM/MM, DLPNO-CCSD(T), (RO)-DLPNO pert. Triples 
  Michael Roemelt        : Original ROCIS implementation                 
  Masaaki Saitow         : Open-shell DLPNO-CCSD energy and density      
  Barbara Sandhoefer     : DKH picture change effects                    
  Kantharuban Sivalingam : CASSCF convergence/infrastructure, NEVPT2 and variants, FIC-MRCI 
  Bernardo de Souza      : ESD, SOC TD-DFT                               
  Georgi L. Stoychev     : AutoAux, RI-MP2 NMR, DLPNO-MP2 response, X2C  
  Van Anh Tran           : RI-MP2 g-tensors                              
  Willem Van den Heuvel  : Paramagnetic NMR                              
  Zikuan Wang            : NOTCH, Electric field optimization            
  Frank Wennmohs         : Technical directorship and infrastructure     
  Hang Xu                : AUTO-CI-Response properties                   
                                                                         
[FACCTs GmbH]                                                            
  Markus Bursch, Miquel Garcia-Rates, Christoph Riplinger, Bernardo de Souza, Georgi L. Stoychev 
                                                                 
  APM, Basis sets (HGBS, AHGBS, def-TZVP (Ac-Lr), def2-XVPD (La-Lu)), CI-OPT, improved COSX, DLPNO-Multilevel,           
  DOCKER, DRACO, updates on ESD, GOAT, IRC, LR-CPCM, MBIS, meta-GGA TD-DFT gradient, ML-optimized integration grids, 
  MM, NACMEs, nearIR, NEB, NEB-TS, NL-DFT gradient (VV10), 2- and 3-layer-ONIOM, interface openCOSMO-RS, QMMM,   
  Crystal-QMMM, SF, symmetry and pop. for TD-DFT, r2SCAN hybrids, SOLVATOR                                   
                                                                         
[Other institutions]                                                     
  V. Asgeirsson          : NEB                                           
  Christoph Bannwarth    : sTDA-DFT, sTD-DFT, PBEh-3c, B97-3c, D3        
  Sebastian Ehlert       : rSCAN, r2SCAN, r2SCAN-3c, D4, dhf basis sets  
  Marvin Friede          : D4 for Fr, Ra, Ac-Lr                          
  Lars Goerigk           : TD-DFT with DH, B97 family of functionals     
  Stefan Grimme          : VdW corrections, initial TS optimization, DFT functionals, gCP, sTDA/sTD-DF 
  Waldemar Hujo          : DFT-NL                                        
  H. Jonsson             : NEB                                           
  Holger Kruse           : gCP                                           
  Marcel Mueller         : wB97X-3c, vDZP basis set                      
  Hagen Neugebauer       : wr2SCAN                                       
  Tobias Risthaus        : range-separated hybrid DFT                    
  Lukas Wittmann         : regularized MP2, r2SCAN double-hybrids, wr2SCAN        
                                                                         
We gratefully acknowledge several colleagues who have allowed us to      
interface, adapt or use parts of their codes:                            
  Ed Valeev, F. Pavosevic, A. Kumar             : LibInt (2-el integral package), F12 methods 
  Garnet Chan, S. Sharma, J. Yang, R. Olivares  : DMRG                   
  Ulf Ekstrom                                   : XCFun DFT Library      
  Mihaly Kallay                                 : mrcc  (arbitrary order and MRCC methods)
  Frank Weinhold                                : gennbo (NPA and NBO analysis)           
  Simon Mueller                                 : openCOSMO-RS                            
  Christopher J. Cramer and Donald G. Truhlar   : smd solvation model                     
  S Lehtola, MJT Oliveira, MAL Marques          : LibXC Library                           
  Liviu Ungur et al                             : ANISO software                          


 Your calculation uses the libint2 library for the computation of 2-el integrals
 For citations please refer to: http://libint.valeyev.net

 Your ORCA version has been built with support for libXC version: 6.2.2
 For citations please refer to: https://libxc.gitlab.io

 This ORCA versions uses:
   CBLAS   interface :  Fast vector & matrix operations
   LAPACKE interface :  Fast linear algebra routines
   SCALAPACK package :  Parallel linear algebra routines
   Shared memory     :  Shared parallel matrices
   BLAS/LAPACK       :  OpenBLAS 0.3.27  USE64BITINT DYNAMIC_ARCH NO_AFFINITY Zen SINGLE_THREADED
        Core in use  :  Zen
   Copyright (c) 2011-2014, The OpenBLAS Project


Your calculation utilizes the geometrical counterpoise correction gCP
Please cite in your paper:
H.Kruse, S. Grimme J.Chem.Phys., 136, (2012), 154101 
   

Your calculation utilizes the atom-pairwise dispersion correction
based on EEQ partial charges (D4)


================================================================================

----- Orbital basis set information -----
Your calculation utilizes the basis: def2-mTZVPP
   Stefan Grimme, Andreas Hansen, Sebastian Ehlert, and Jan-Michael Mewes 
   J. Chem. Phys. 154, 064103 (2021). DOI: 10.1063/5.0040021

----- AuxJ basis set information -----
Your calculation utilizes the auxiliary basis: def2/J
   F. Weigend, Phys. Chem. Chem. Phys. 8, 1057 (2006).

================================================================================
                                        WARNINGS
                       Please study these warnings very carefully!
================================================================================

WARNING: Old DensityContainer found on disk!
         Will remove this file - 
         If you want to keep old densities, please start your calculation with a different basename. 



WARNING: SCAN, rSCAN, or r2SCAN functional requested.
  ===> : libXC variant has now been activated.



================================================================================
                                       INPUT FILE
================================================================================
NAME = sp.inp
|  1> ! r2scan-3c def2/J RI DEFGRID2 scfconv6 printgap
|  2> %output
|  3>     printlevel normal
|  4> end
|  5> * xyz 0 1
|  6> C 0.5832495886 1.7104703221 -0.0143721752
|  7> C 1.3940029032 0.4284371256 -0.2419449676
|  8> H 1.6389663079 0.3252653019 -1.304910551
|  9> C 0.5485435405 -0.7770805774 0.1928474688
| 10> H 0.3540090518 -0.7037746103 1.2783973244
| 11> C -0.7947268812 -0.7542728089 -0.5432735958
| 12> H -0.6132982056 -0.8867250576 -1.6195294934
| 13> C -1.4731611665 0.6112581384 -0.303650108
| 14> H -2.3680706612 0.6924724208 -0.9398074168
| 15> O -0.6530606297 1.662335838 -0.698628953
| 16> O -1.8188774599 0.7340231715 1.0477814127
| 17> O -1.6607413369 -1.7481882233 -0.0538914313
| 18> O 1.1982125799 -1.9965557817 -0.0857100735
| 19> O 2.6306872564 0.4343824487 0.4303732811
| 20> H 1.1087574043 2.578157455 -0.415487573
| 21> H 0.4112824335 1.8517605919 1.0618512353
| 22> H -2.2417875356 -0.0985583962 1.297803144
| 23> H -1.1703595008 -2.5798315202 -0.0593762272
| 24> H 2.14614427 -1.8542556464 0.034528305
| 25> H 2.483099737 0.6599512276 1.3574043933
| 26> *
| 27> 
| 28>                          ****END OF INPUT****
================================================================================

                       ****************************
                       * Single Point Calculation *
                       ****************************

---------------------------------
CARTESIAN COORDINATES (ANGSTROEM)
---------------------------------
  C      0.583250    1.710470   -0.014372
  C      1.394003    0.428437   -0.241945
  H      1.638966    0.325265   -1.304911
  C      0.548544   -0.777081    0.192847
  H      0.354009   -0.703775    1.278397
  C     -0.794727   -0.754273   -0.543274
  H     -0.613298   -0.886725   -1.619529
  C     -1.473161    0.611258   -0.303650
  H     -2.368071    0.692472   -0.939807
  O     -0.653061    1.662336   -0.698629
  O     -1.818877    0.734023    1.047781
  O     -1.660741   -1.748188   -0.053891
  O      1.198213   -1.996556   -0.085710
  O      2.630687    0.434382    0.430373
  H      1.108757    2.578157   -0.415488
  H      0.411282    1.851761    1.061851
  H     -2.241788   -0.098558    1.297803
  H     -1.170360   -2.579832   -0.059376
  H      2.146144   -1.854256    0.034528
  H      2.483100    0.659951    1.357404

----------------------------
CARTESIAN COORDINATES (A.U.)
----------------------------
  NO LB      ZA    FRAG     MASS         X           Y           Z
   0 C     6.0000    0    12.011    1.102182    3.232320   -0.027159
   1 C     6.0000    0    12.011    2.634284    0.809629   -0.457210
   2 H     1.0000    0     1.008    3.097197    0.614662   -2.465924
   3 C     6.0000    0    12.011    1.036597   -1.468469    0.364429
   4 H     1.0000    0     1.008    0.668980   -1.329941    2.415821
   5 C     6.0000    0    12.011   -1.501816   -1.425369   -1.026638
   6 H     1.0000    0     1.008   -1.158966   -1.675668   -3.060467
   7 C     6.0000    0    12.011   -2.783871    1.155110   -0.573816
   8 H     1.0000    0     1.008   -4.475005    1.308583   -1.775979
   9 O     8.0000    0    15.999   -1.234106    3.141359   -1.320217
  10 O     8.0000    0    15.999   -3.437180    1.387103    1.980020
  11 O     8.0000    0    15.999   -3.138346   -3.303597   -0.101840
  12 O     8.0000    0    15.999    2.264294   -3.772944   -0.161969
  13 O     8.0000    0    15.999    4.971278    0.820864    0.813288
  14 H     1.0000    0     1.008    2.095248    4.872012   -0.785158
  15 H     1.0000    0     1.008    0.777211    3.499320    2.006608
  16 H     1.0000    0     1.008   -4.236364   -0.186248    2.452493
  17 H     1.0000    0     1.008   -2.211659   -4.875175   -0.112205
  18 H     1.0000    0     1.008    4.055625   -3.504035    0.065249
  19 H     1.0000    0     1.008    4.692378    1.247127    2.565123

--------------------------------
INTERNAL COORDINATES (ANGSTROEM)
--------------------------------
 C      0   0   0     0.000000000000     0.00000000     0.00000000
 C      1   0   0     1.533857695454     0.00000000     0.00000000
 H      2   1   0     1.095694905683   109.92614797     0.00000000
 C      2   1   3     1.535291154464   108.85651336   240.79770786
 H      4   2   1     1.105276400318   108.84383309   296.42535034
 C      4   2   1     1.531917047972   109.57838265    54.88040305
 H      6   4   2     1.099448370609   108.89869021    64.62214236
 C      6   4   2     1.543491905845   108.90436145   305.46894667
 H      8   6   4     1.100979057435   109.44078732   172.09776562
 O      8   6   4     1.390445075885   111.43360042    56.36225532
 O      8   6   4     1.400342159622   109.62727784   293.46227031
 O      6   4   2     1.406180568559   111.23948321   187.17517149
 O      4   2   1     1.409533234454   111.68766890   175.49895725
 O      2   1   3     1.407634669881   112.95360891   117.53830809
 H      1   2   3     1.090840495817   110.83299631   305.53967706
 H      1   2   3     1.098996120139   109.60032423   184.61234153
 H     11   8   6     0.966724296335   106.38517540   313.69528937
 H     12   6   4     0.965471388205   107.10106220   309.11222748
 H     13   4   2     0.966064741757   107.47114350    34.35757727
 H     14   2   1     0.965427383537   108.98416172    51.21559627

---------------------------
INTERNAL COORDINATES (A.U.)
---------------------------
 C      0   0   0     0.000000000000     0.00000000     0.00000000
 C      1   0   0     2.898570972816     0.00000000     0.00000000
 H      2   1   0     2.070563298074   109.92614797     0.00000000
 C      2   1   3     2.901279817768   108.85651336   240.79770786
 H      4   2   1     2.088669698887   108.84383309   296.42535034
 C      4   2   1     2.894903680551   109.57838265    54.88040305
 H      6   4   2     2.077656318837   108.89869021    64.62214236
 C      6   4   2     2.916776991972   108.90436145   305.46894667
 H      8   6   4     2.080548897734   109.44078732   172.09776562
 O      8   6   4     2.627560397683   111.43360042    56.36225532
 O      8   6   4     2.646263175470   109.62727784   293.46227031
 O      6   4   2     2.657296169419   111.23948321   187.17517149
 O      4   2   1     2.663631789778   111.68766890   175.49895725
 O      2   1   3     2.660044022688   112.95360891   117.53830809
 H      1   2   3     2.061389792885   110.83299631   305.53967706
 H      1   2   3     2.076801689306   109.60032423   184.61234153
 H     11   8   6     1.826844167081   106.38517540   313.69528937
 H     12   6   4     1.824476513843   107.10106220   309.11222748
 H     13   4   2     1.825597789559   107.47114350    34.35757727
 H     14   2   1     1.824393357074   108.98416172    51.21559627

---------------------
BASIS SET INFORMATION
---------------------
There are 3 groups of distinct atoms

 Group   1 Type C   : 11s6p1d contracted to 5s3p1d pattern {62111/411/1}
 Group   2 Type H   : 4s1p contracted to 2s1p pattern {31/1}
 Group   3 Type O   : 11s6p2d contracted to 5s3p2d pattern {62111/411/11}

Atom   0C    basis set group =>   1
Atom   1C    basis set group =>   1
Atom   2H    basis set group =>   2
Atom   3C    basis set group =>   1
Atom   4H    basis set group =>   2
Atom   5C    basis set group =>   1
Atom   6H    basis set group =>   2
Atom   7C    basis set group =>   1
Atom   8H    basis set group =>   2
Atom   9O    basis set group =>   3
Atom  10O    basis set group =>   3
Atom  11O    basis set group =>   3
Atom  12O    basis set group =>   3
Atom  13O    basis set group =>   3
Atom  14H    basis set group =>   2
Atom  15H    basis set group =>   2
Atom  16H    basis set group =>   2
Atom  17H    basis set group =>   2
Atom  18H    basis set group =>   2
Atom  19H    basis set group =>   2
---------------------------------
AUXILIARY/J BASIS SET INFORMATION
---------------------------------
There are 3 groups of distinct atoms

 Group   1 Type C   : 12s5p4d2f1g contracted to 6s4p3d1f1g pattern {711111/2111/211/2/1}
 Group   2 Type H   : 5s2p1d contracted to 3s1p1d pattern {311/2/1}
 Group   3 Type O   : 12s5p4d2f1g contracted to 6s4p3d1f1g pattern {711111/2111/211/2/1}

Atom   0C    basis set group =>   1
Atom   1C    basis set group =>   1
Atom   2H    basis set group =>   2
Atom   3C    basis set group =>   1
Atom   4H    basis set group =>   2
Atom   5C    basis set group =>   1
Atom   6H    basis set group =>   2
Atom   7C    basis set group =>   1
Atom   8H    basis set group =>   2
Atom   9O    basis set group =>   3
Atom  10O    basis set group =>   3
Atom  11O    basis set group =>   3
Atom  12O    basis set group =>   3
Atom  13O    basis set group =>   3
Atom  14H    basis set group =>   2
Atom  15H    basis set group =>   2
Atom  16H    basis set group =>   2
Atom  17H    basis set group =>   2
Atom  18H    basis set group =>   2
Atom  19H    basis set group =>   2

Checking for AutoStart:
The File: sp.gbw exists
Trying to determine its content:
     ... Fine, the file contains calculation information
     ... Fine, the calculation information was read
     ... Fine, the file contains a basis set
     ... Fine, the basis set was read
     ... Fine, the file contains a geometry
     ... Fine, the geometry was read
     ... Fine, the file contains a set of orbitals
     ... Fine, the orbitals can be read
     => possible old guess file was deleted
     => GBW file was renamed to GES file
     => GES file is set as startup file
     => Guess is set to MORead
     ... now leaving AutoStart

------------------------------------------------------------------------------
                             ORCA STARTUP CALCULATIONS
                           -- RI-GTO INTEGRALS CHOSEN --
------------------------------------------------------------------------------
------------------------------------------------------------------------------
                   ___                                                        
                  /   \      - P O W E R E D   B Y -                         
                 /     \                                                     
                 |  |  |   _    _      __       _____    __    __             
                 |  |  |  | |  | |    /  \     |  _  \  |  |  /  |          
                  \  \/   | |  | |   /    \    | | | |  |  | /  /          
                 / \  \   | |__| |  /  /\  \   | |_| |  |  |/  /          
                |  |  |   |  __  | /  /__\  \  |    /   |      \           
                |  |  |   | |  | | |   __   |  |    \   |  |\   \          
                \     /   | |  | | |  |  |  |  | |\  \  |  | \   \       
                 \___/    |_|  |_| |__|  |__|  |_| \__\ |__|  \__/        
                                                                              
                      - O R C A' S   B I G   F R I E N D -                    
                                      &                                       
                       - I N T E G R A L  F E E D E R -                       
                                                                              
 v1 FN, 2020, v2 2021, v3 2022-2024                                           
------------------------------------------------------------------------------


----------------------
SHARK INTEGRAL PACKAGE
----------------------

Number of atoms                             ...     20
Number of basis functions                   ...    265
Number of shells                            ...    125
Maximum angular momentum                    ...      2
Integral batch strategy                     ... SHARK/LIBINT Hybrid
RI-J (if used) integral strategy            ... SPLIT-RIJ (Revised 2003 algorithm where possible)
Printlevel                                  ...      1
Contraction scheme used                     ... SEGMENTED contraction
Prescreening option                         ... SCHWARTZ
   Thresh                                   ... 1.000e-10
   Tcut                                     ... 1.000e-11
   Tpresel                                  ... 1.000e-11 
Coulomb Range Separation                    ... NOT USED
Exchange Range Separation                   ... NOT USED
Multipole approximations                    ... NOT USED
Finite Nucleus Model                        ... NOT USED
CABS basis                                  ... NOT available
Auxiliary Coulomb fitting basis             ... AVAILABLE
   # of basis functions in Aux-J            ...    600
   # of shells in Aux-J                     ...    200
   Maximum angular momentum in Aux-J        ...      4
Auxiliary J/K fitting basis                 ... NOT available
Auxiliary Correlation fitting basis         ... NOT available
Auxiliary 'external' fitting basis          ... NOT available

Checking pre-screening integrals            ... done (  0.0 sec) Dimension = 125
Check shell pair data                       ... done (  0.0 sec)
Shell pair information
Shell pair cut-off parameter TPreSel        ...   1.0e-11
Total number of shell pairs                 ...      7875
Shell pairs after pre-screening             ...      7081
Total number of primitive shell pairs       ...     27980
Primitive shell pairs kept                  ...     17703
          la=0 lb=0:   2146 shell pairs
          la=1 lb=0:   2525 shell pairs
          la=1 lb=1:    767 shell pairs
          la=2 lb=0:    962 shell pairs
          la=2 lb=1:    565 shell pairs
          la=2 lb=2:    116 shell pairs

Calculating one electron integrals          ... done (  0.0 sec)
Calculating RI/J V-Matrix + Cholesky decomp.... done (  0.0 sec)
Calculating Nuclear repulsion               ... done (  0.0 sec) ENN=    626.029350999611 Eh

Diagonalization of the overlap matrix:
Smallest eigenvalue                        ... 4.832e-05
Time for diagonalization                   ...    0.008 sec
Threshold for overlap eigenvalues          ... 1.000e-07
Number of eigenvalues below threshold      ... 0
Time for construction of square roots      ...    0.005 sec
Total time needed                          ...    0.015 sec

-------------------
DFT GRID GENERATION
-------------------

General Integration Accuracy     IntAcc      ... 4.388
Radial Grid Type                 RadialGrid  ... OptM3 with GC (2021)
Angular Grid (max. ang.)         AngularGrid ... 4 (Lebedev-302)
Angular grid pruning method      GridPruning ... 4 (adaptive)
Weight generation scheme         WeightScheme... mBecke (2022)
Basis function cutoff            BFCut       ... 1.0000e-10
Integration weight cutoff        WCut        ... 1.0000e-14
Partially contracted basis set               ... off
Rotationally invariant grid construction     ... off
Angular grids for H and He will be reduced by one unit
Diffuse basis detected: some atoms will have their outermost
                        angular grid increased by 1.

Total number of grid points                  ...    93466
Total number of batches                      ...     1470
Average number of points per batch           ...       63
Average number of grid points per atom       ...     4673
Initializing property integral containers    ... done (  0.0 sec)

SHARK setup successfully completed in   1.2 seconds

Maximum memory used throughout the entire STARTUP-calculation: 45.9 MB
-------------------------------------------------------------------------------
                                 ORCA GUESS
                   Start orbitals & Density for SCF / CASSCF
-------------------------------------------------------------------------------

------------
SCF SETTINGS
------------
Hamiltonian:
 Density Functional     Method          .... DFT(GTOs)
  Functional kind                       .... Exchange
  Functional name                       .... Re-regularized SCAN exchange by Furness et al
  Functional family                     .... MGGA
  Functional refs                              
    [ 0] J. W. Furness, A. D. Kaplan, J. Ning, J. P. Perdew, and J. Sun.,  J. Phys. Chem. Lett. 11, 8208-8215 (2020), doi: 10.1021/acs.jpclett.0c02405
    [ 1] J. W. Furness, A. D. Kaplan, J. Ning, J. P. Perdew, and J. Sun.,  J. Phys. Chem. Lett. 11, 9248-9248 (2020), doi: 10.1021/acs.jpclett.0c03077
  Functional external parameters        .... 6
    Parameter  0 _c1        =  6.670000e-01 : c1 parameter        
    Parameter  1 _c2        =  8.000000e-01 : c2 parameter        
    Parameter  2 _d         =  1.240000e+00 : d parameter         
    Parameter  3 _k1        =  6.500000e-02 : k1 parameter        
    Parameter  4 _eta       =  1.000000e-03 : eta parameter       
    Parameter  5 _dp2       =  3.610000e-01 : dp2 parameter       
  Functional kind                       .... Correlation
  Functional name                       .... Re-regularized SCAN correlation by Furness et al
  Functional family                     .... MGGA
  Functional refs                              
    [ 0] J. W. Furness, A. D. Kaplan, J. Ning, J. P. Perdew, and J. Sun.,  J. Phys. Chem. Lett. 11, 8208-8215 (2020), doi: 10.1021/acs.jpclett.0c02405
    [ 1] J. W. Furness, A. D. Kaplan, J. Ning, J. P. Perdew, and J. Sun.,  J. Phys. Chem. Lett. 11, 9248-9248 (2020), doi: 10.1021/acs.jpclett.0c03077
  Functional external parameters        .... 1
    Parameter  0 _eta       =  1.000000e-03 : Regularization parameter
 Gradients option       PostSCFGGA      .... off
 RI-approximation to the Coulomb term is turned on
   Number of AuxJ basis functions       .... 600


General Settings:
 Integral files         IntName         .... sp
 Hartree-Fock type      HFTyp           .... RHF
 Total Charge           Charge          ....    0
 Multiplicity           Mult            ....    1
 Number of Electrons    NEL             ....   80
 Basis Dimension        Dim             ....  265
 Nuclear Repulsion      ENuc            ....    626.0293509996 Eh

Convergence Acceleration:
 AO-DIIS                CNVDIIS         .... on
   Start iteration      DIISMaxIt       ....    12
   Startup error        DIISStart       ....  0.200000
   # of expansion vecs  DIISMaxEq       ....     5
   Bias factor          DIISBfac        ....   1.050
   Max. coefficient     DIISMaxC        ....  10.000
 MO-DIIS                CNVKDIIS        .... off
 Trust-Rad. Augm. Hess. CNVTRAH         .... auto
   Auto Start mean grad. ratio tolernc. ....  1.125000
   Auto Start start iteration           ....     1
   Auto Start num. interpolation iter.  ....    10
   Max. Number of Micro iterations      ....    24
   Max. Number of Macro iterations      .... Maxiter - #DIIS iter
   Number of Davidson start vectors     ....     2
   Converg. threshold    (grad. norm)   ....   3.330e-04
   Grad. Scal. Fac. for Micro threshold ....   0.100
   Minimum threshold for Micro iter.    ....   1.000e-02
   NR start threshold (gradient norm)   ....   1.000e-04
   Initial trust radius                 ....   0.400
   Minimum AH scaling param. (alpha)    ....   1.000
   Maximum AH scaling param. (alpha)    .... 1000.000
   Quad. conv. algorithm                .... NR
   White noise on init. David. guess    .... on
   Maximum white noise                  ....   0.010
   Pseudo random numbers                .... off
   Inactive MOs                         .... canonical
   Orbital update algorithm             .... Taylor
   Preconditioner                       .... Diag
   Full preconditioner red. dimension   ....   250
   COSX micro iterations for RIJONX calc.... off
 SOSCF                  CNVSOSCF        .... on
   Start iteration      SOSCFMaxIt      ....   150
   Startup grad/error   SOSCFStart      ....  0.003300
   Hessian update       SOSCFHessUp     .... L-BFGS
 Level Shifting         CNVShift        .... on
   Level shift para.    LevelShift      ....    0.2500
   Turn off err/grad.   ShiftErr        ....    0.0010
 Zerner damping         CNVZerner       .... off
 Static damping         CNVDamp         .... on
   Fraction old density DampFac         ....    0.7000
   Max. Damping (<1)    DampMax         ....    0.9800
   Min. Damping (>=0)   DampMin         ....    0.0000
   Turn off err/grad.   DampErr         ....    0.1000

SCF Procedure:
 Maximum # iterations   MaxIter         ....   125
 SCF integral mode      SCFMode         .... Direct
   Integral package                     .... SHARK and LIBINT hybrid scheme
 Reset frequency        DirectResetFreq ....    20
 Integral Threshold     Thresh          ....  1.000e-10 Eh
 Primitive CutOff       TCut            ....  1.000e-11 Eh

Convergence Tolerance:
 Convergence Check Mode ConvCheckMode   .... Total+1el-Energy
 Convergence forced     ConvForced      .... 0
 Energy Change          TolE            ....  1.000e-06 Eh
 1-El. energy change                    ....  1.000e-03 Eh
 Orbital Gradient       TolG            ....  3.330e-04
 Orbital Rotation angle TolX            ....  3.330e-04
 DIIS Error             TolErr          ....  1.000e-06

---------------------
INITIAL GUESS: MOREAD
---------------------
Guess MOs are being read from file: sp.ges
Input Geometry matches current geometry (good)
Atom 0: N(Shells)= 9 and 6 - projection required
Input basis set needs projection
NBasis(read)= 160
NBasis(calc)= 265
Basis set overlap was calculated
Using GuessMode=FMatrix for the initial guess
C*T matrix was formed
Effective Fockian was calculated
Effective Fockian was diagonalized
Initial density was built
                      ------------------
                      INITIAL GUESS DONE (   0.0 sec)
                      ------------------
             **** ENERGY FILE WAS UPDATED (sp.en.tmp) ****
Finished Guess after   0.1 sec
Maximum memory used throughout the entire GUESS-calculation: 21.6 MB

-------------------------------------------------------------------------------------------
                                      ORCA LEAN-SCF
                              memory conserving SCF solver
-------------------------------------------------------------------------------------------

----------------------------------------D-I-I-S--------------------------------------------
Iteration    Energy (Eh)           Delta-E    RMSDP     MaxDP     DIISErr   Damp  Time(sec)
-------------------------------------------------------------------------------------------
               ***  Starting incremental Fock matrix formation  ***
    1    -572.2419403287580053     0.00e+00  6.84e-03  3.75e-01  6.27e-01  0.700   4.5
    2    -572.3402142556025183    -9.83e-02  5.18e-03  2.52e-01  4.41e-01  0.700   4.1
    3    -572.4098169313473363    -6.96e-02  3.71e-03  1.70e-01  3.09e-01  0.700   3.9
    4    -572.4587067139340206    -4.89e-02  2.63e-03  1.17e-01  2.16e-01  0.700   3.9
                               ***Turning on AO-DIIS***
    5    -572.4930134653474170    -3.43e-02  1.87e-03  8.09e-02  1.51e-01  0.700   3.8
    6    -572.5170713644350826    -2.41e-02  1.31e-03  5.58e-02  1.06e-01  0.700   3.9
    7    -572.5339423399922225    -1.69e-02  9.23e-04  3.87e-02  7.42e-02  0.700   3.5
    8    -572.5457670200324856    -1.18e-02  2.16e-03  8.96e-02  5.20e-02  0.000   3.5
                              *** Initializing SOSCF ***
---------------------------------------S-O-S-C-F--------------------------------------
Iteration    Energy (Eh)           Delta-E    RMSDP     MaxDP     MaxGrad    Time(sec)
--------------------------------------------------------------------------------------
    9    -572.5734060877242655    -2.76e-02  1.10e-05  2.89e-04  1.56e-04     3.9
               *** Restarting incremental Fock matrix formation ***
   10    -572.5734061793244791    -9.16e-08  1.05e-05  6.46e-04  1.93e-05     4.3
                  *** Gradient check signals convergence ***

               *****************************************************
               *                     SUCCESS                       *
               *           SCF CONVERGED AFTER  10 CYCLES          *
               *****************************************************

             **** ENERGY FILE WAS UPDATED (sp.en.tmp) ****

----------------
TOTAL SCF ENERGY
----------------

Total Energy       :       -572.57340617932448 Eh          -15580.51448 eV

Components:
Nuclear Repulsion  :        626.02935099961144 Eh           17035.12469 eV
Electronic Energy  :      -1198.60275717893592 Eh          -32615.63917 eV
One Electron Energy:      -2026.90677505060762 Eh          -55154.93737 eV
Two Electron Energy:        828.30401787167170 Eh           22539.29820 eV

Virial components:
Potential Energy   :      -1142.95283761954602 Eh          -31101.32787 eV
Kinetic Energy     :        570.37943144022154 Eh           15520.81339 eV
Virial Ratio       :          2.00384651798113

DFT components:
N(Alpha)           :       39.999935859252 electrons
N(Beta)            :       39.999935859252 electrons
N(Total)           :       79.999871718504 electrons
E(X)               :      -71.073637418168 Eh       
E(C)               :       -2.661611244690 Eh       
E(XC)              :      -73.735248662857 Eh       

---------------
SCF CONVERGENCE
---------------

  Last Energy change         ...    9.1600e-08  Tolerance :   1.0000e-06
  Last MAX-Density change    ...    6.4615e-04  Tolerance :   1.0000e-05
  Last RMS-Density change    ...    1.0516e-05  Tolerance :   1.0000e-06
  Last DIIS Error            ...    1.5631e-04  Tolerance :   1.0000e-06
  Last Orbital Gradient      ...    1.9312e-05  Tolerance :   3.3300e-04
  Last Orbital Rotation      ...    2.8121e-05  Tolerance :   3.3300e-04


----------------
ORBITAL ENERGIES
----------------

  NO   OCC          E(Eh)            E(eV) 
   0   2.0000     -18.977201      -516.3959 
   1   2.0000     -18.975223      -516.3421 
   2   2.0000     -18.970014      -516.2003 
   3   2.0000     -18.963648      -516.0271 
   4   2.0000     -18.958735      -515.8934 
   5   2.0000     -10.138632      -275.8862 
   6   2.0000     -10.098620      -274.7974 
   7   2.0000     -10.093788      -274.6659 
   8   2.0000     -10.092751      -274.6377 
   9   2.0000     -10.089735      -274.5556 
  10   2.0000      -1.053119       -28.6568 
  11   2.0000      -1.023019       -27.8378 
  12   2.0000      -1.013433       -27.5769 
  13   2.0000      -0.993030       -27.0217 
  14   2.0000      -0.979308       -26.6483 
  15   2.0000      -0.753134       -20.4938 
  16   2.0000      -0.727470       -19.7955 
  17   2.0000      -0.624663       -16.9980 
  18   2.0000      -0.619977       -16.8704 
  19   2.0000      -0.567683       -15.4474 
  20   2.0000      -0.519027       -14.1234 
  21   2.0000      -0.510419       -13.8892 
  22   2.0000      -0.499721       -13.5981 
  23   2.0000      -0.470604       -12.8058 
  24   2.0000      -0.461034       -12.5454 
  25   2.0000      -0.454667       -12.3721 
  26   2.0000      -0.430217       -11.7068 
  27   2.0000      -0.410412       -11.1679 
  28   2.0000      -0.391487       -10.6529 
  29   2.0000      -0.379183       -10.3181 
  30   2.0000      -0.352292        -9.5863 
  31   2.0000      -0.341591        -9.2952 
  32   2.0000      -0.332819        -9.0565 
  33   2.0000      -0.322882        -8.7861 
  34   2.0000      -0.308018        -8.3816 
  35   2.0000      -0.286050        -7.7838 
  36   2.0000      -0.260383        -7.0854 
  37   2.0000      -0.257945        -7.0190 
  38   2.0000      -0.247552        -6.7362 
  39   2.0000      -0.229943        -6.2571 
  40   0.0000       0.024039         0.6541 
  41   0.0000       0.054625         1.4864 
  42   0.0000       0.064421         1.7530 
  43   0.0000       0.086066         2.3420 
  44   0.0000       0.092759         2.5241 
  45   0.0000       0.117471         3.1965 
  46   0.0000       0.122604         3.3362 
  47   0.0000       0.123419         3.3584 
  48   0.0000       0.135297         3.6816 
  49   0.0000       0.147436         4.0119 
  50   0.0000       0.151786         4.1303 
*Only the first 10 virtual orbitals were printed.

                    ********************************
                    * MULLIKEN POPULATION ANALYSIS *
                    ********************************

-----------------------
MULLIKEN ATOMIC CHARGES
-----------------------
   0 C :   -0.251989
   1 C :   -0.099771
   2 H :    0.167474
   3 C :    0.056781
   4 H :    0.166827
   5 C :   -0.044062
   6 H :    0.168934
   7 C :    0.032418
   8 H :    0.142735
   9 O :   -0.203469
  10 O :   -0.415843
  11 O :   -0.457081
  12 O :   -0.437367
  13 O :   -0.413639
  14 H :    0.158901
  15 H :    0.167851
  16 H :    0.323222
  17 H :    0.320968
  18 H :    0.312827
  19 H :    0.304282
Sum of atomic charges:   -0.0000000

--------------------------------
MULLIKEN REDUCED ORBITAL CHARGES
--------------------------------
  0 C s       :     3.316373  s :     3.316373
      pz      :     1.022137  p :     2.879343
      px      :     0.811064
      py      :     1.046142
      dz2     :     0.014275  d :     0.056272
      dxz     :     0.011767
      dyz     :     0.004746
      dx2y2   :     0.010964
      dxy     :     0.014521

  1 C s       :     3.234158  s :     3.234158
      pz      :     1.038934  p :     2.798550
      px      :     0.788408
      py      :     0.971208
      dz2     :     0.014689  d :     0.067062
      dxz     :     0.013169
      dyz     :     0.006269
      dx2y2   :     0.012843
      dxy     :     0.020092

  2 H s       :     0.815540  s :     0.815540
      pz      :     0.011083  p :     0.016986
      px      :     0.002583
      py      :     0.003319

  3 C s       :     3.117344  s :     3.117344
      pz      :     1.054404  p :     2.758988
      px      :     0.922744
      py      :     0.781839
      dz2     :     0.014376  d :     0.066888
      dxz     :     0.009854
      dyz     :     0.011548
      dx2y2   :     0.015206
      dxy     :     0.015903

  4 H s       :     0.816301  s :     0.816301
      pz      :     0.011054  p :     0.016872
      px      :     0.003395
      py      :     0.002422

  5 C s       :     3.210925  s :     3.210925
      pz      :     1.029131  p :     2.766894
      px      :     0.889038
      py      :     0.848725
      dz2     :     0.015556  d :     0.066243
      dxz     :     0.011875
      dyz     :     0.009055
      dx2y2   :     0.013949
      dxy     :     0.015807

  6 H s       :     0.814143  s :     0.814143
      pz      :     0.011251  p :     0.016923
      px      :     0.003036
      py      :     0.002637

  7 C s       :     3.211176  s :     3.211176
      pz      :     0.820406  p :     2.661800
      px      :     0.982273
      py      :     0.859121
      dz2     :     0.023844  d :     0.094606
      dxz     :     0.023253
      dyz     :     0.015725
      dx2y2   :     0.015618
      dxy     :     0.016166

  8 H s       :     0.840803  s :     0.840803
      pz      :     0.005370  p :     0.016462
      px      :     0.008642
      py      :     0.002450

  9 O s       :     3.737038  s :     3.737038
      pz      :     1.684113  p :     4.441635
      px      :     1.218638
      py      :     1.538885
      dz2     :     0.004096  d :     0.024796
      dxz     :     0.003920
      dyz     :     0.006158
      dx2y2   :     0.004286
      dxy     :     0.006336

 10 O s       :     3.750207  s :     3.750207
      pz      :     1.322099  p :     4.650554
      px      :     1.771439
      py      :     1.557016
      dz2     :     0.004131  d :     0.015083
      dxz     :    -0.001515
      dyz     :     0.002316
      dx2y2   :     0.004680
      dxy     :     0.005472

 11 O s       :     3.768775  s :     3.768775
      pz      :     1.831353  p :     4.669548
      px      :     1.593991
      py      :     1.244204
      dz2     :     0.004350  d :     0.018758
      dxz     :     0.003765
      dyz     :     0.001422
      dx2y2   :     0.004025
      dxy     :     0.005196

 12 O s       :     3.766184  s :     3.766184
      pz      :     1.875322  p :     4.656590
      px      :     1.300162
      py      :     1.481106
      dz2     :     0.003719  d :     0.014593
      dxz     :     0.004251
      dyz     :    -0.000834
      dx2y2   :     0.002631
      dxy     :     0.004826

 13 O s       :     3.747650  s :     3.747650
      pz      :     1.300135  p :     4.648529
      px      :     1.469163
      py      :     1.879230
      dz2     :     0.001984  d :     0.017460
      dxz     :     0.004274
      dyz     :     0.002258
      dx2y2   :     0.003633
      dxy     :     0.005311

 14 H s       :     0.823695  s :     0.823695
      pz      :     0.004100  p :     0.017404
      px      :     0.004521
      py      :     0.008783

 15 H s       :     0.814894  s :     0.814894
      pz      :     0.011061  p :     0.017255
      px      :     0.002736
      py      :     0.003458

 16 H s       :     0.633034  s :     0.633034
      pz      :     0.009155  p :     0.043745
      px      :     0.014192
      py      :     0.020397

 17 H s       :     0.635450  s :     0.635450
      pz      :     0.011997  p :     0.043582
      px      :     0.012792
      py      :     0.018794

 18 H s       :     0.643295  s :     0.643295
      pz      :     0.012642  p :     0.043878
      px      :     0.022329
      py      :     0.008908

 19 H s       :     0.652525  s :     0.652525
      pz      :     0.021276  p :     0.043193
      px      :     0.008746
      py      :     0.013171


------------------------
MULLIKEN OVERLAP CHARGES
------------------------
B(  0-C ,  1-C ) :  -0.1046 B(  0-C ,  3-C ) :  -0.4785 B(  0-C ,  5-C ) :   0.3360 
B(  0-C ,  7-C ) :  -0.6426 B(  0-C ,  9-O ) :   0.4424 B(  0-C , 10-O ) :   0.0524 
B(  0-C , 13-O ) :  -0.0836 B(  0-C , 14-H ) :   0.6992 B(  0-C , 15-H ) :   0.9273 
B(  1-C ,  2-H ) :   0.8276 B(  1-C ,  3-C ) :   0.3437 B(  1-C ,  4-H ) :  -0.0921 
B(  1-C ,  5-C ) :  -0.2238 B(  1-C ,  6-H ) :   0.0544 B(  1-C ,  7-C ) :   0.1387 
B(  1-C ,  9-O ) :  -0.2029 B(  1-C , 12-O ) :  -0.0903 B(  1-C , 13-O ) :   0.4012 
B(  1-C , 15-H ) :  -0.1378 B(  1-C , 19-H ) :  -0.1430 B(  2-H ,  3-C ) :  -0.1270 
B(  2-H , 13-O ) :  -0.0922 B(  3-C ,  4-H ) :   0.8044 B(  3-C ,  5-C ) :  -0.2187 
B(  3-C ,  6-H ) :  -0.1420 B(  3-C ,  7-C ) :   0.1498 B(  3-C , 10-O ) :   0.0517 
B(  3-C , 12-O ) :   0.3682 B(  3-C , 13-O ) :  -0.1458 B(  3-C , 18-H ) :  -0.1211 
B(  4-H , 12-O ) :  -0.1176 B(  5-C ,  6-H ) :   0.8900 B(  5-C ,  7-C ) :  -0.1154 
B(  5-C ,  8-H ) :  -0.1022 B(  5-C ,  9-O ) :  -0.0964 B(  5-C , 10-O ) :  -0.2011 
B(  5-C , 11-O ) :   0.2119 B(  5-C , 12-O ) :  -0.0690 B(  5-C , 17-H ) :  -0.1246 
B(  6-H ,  7-C ) :  -0.0743 B(  6-H , 11-O ) :  -0.0888 B(  7-C ,  8-H ) :   0.8500 
B(  7-C ,  9-O ) :   0.5476 B(  7-C , 10-O ) :   0.3622 B(  7-C , 11-O ) :  -0.0781 
B(  7-C , 15-H ) :  -0.0515 B(  7-C , 16-H ) :  -0.1027 B(  8-H ,  9-O ) :  -0.1116 
B(  8-H , 10-O ) :  -0.1090 B(  9-O , 10-O ) :  -0.1729 B(  9-O , 14-H ) :  -0.0745 
B(  9-O , 15-H ) :  -0.0915 B( 10-O , 16-H ) :   0.6068 B( 11-O , 17-H ) :   0.6147 
B( 12-O , 18-H ) :   0.6001 B( 13-O , 19-H ) :   0.5984 


                     *******************************
                     * LOEWDIN POPULATION ANALYSIS *
                     *******************************

----------------------
LOEWDIN ATOMIC CHARGES
----------------------
   0 C :    0.045598
   1 C :    0.093070
   2 H :    0.195979
   3 C :    0.094520
   4 H :    0.184165
   5 C :    0.117239
   6 H :    0.186166
   7 C :    0.297168
   8 H :    0.197708
   9 O :   -0.652887
  10 O :   -0.521371
  11 O :   -0.573418
  12 O :   -0.582191
  13 O :   -0.578609
  14 H :    0.190797
  15 H :    0.181363
  16 H :    0.287469
  17 H :    0.283825
  18 H :    0.281724
  19 H :    0.271684

-------------------------------
LOEWDIN REDUCED ORBITAL CHARGES
-------------------------------
  0 C s       :     2.858433  s :     2.858433
      pz      :     1.042720  p :     2.968787
      px      :     0.883975
      py      :     1.042092
      dz2     :     0.034307  d :     0.127182
      dxz     :     0.026607
      dyz     :     0.008776
      dx2y2   :     0.023801
      dxy     :     0.033690

  1 C s       :     2.833198  s :     2.833198
      pz      :     1.020829  p :     2.928686
      px      :     0.894613
      py      :     1.013243
      dz2     :     0.034011  d :     0.145046
      dxz     :     0.027995
      dyz     :     0.010439
      dx2y2   :     0.027382
      dxy     :     0.045218

  2 H s       :     0.764276  s :     0.764276
      pz      :     0.025327  p :     0.039744
      px      :     0.006745
      py      :     0.007672

  3 C s       :     2.832692  s :     2.832692
      pz      :     1.059626  p :     2.928581
      px      :     0.964505
      py      :     0.904450
      dz2     :     0.032892  d :     0.144207
      dxz     :     0.020602
      dyz     :     0.023126
      dx2y2   :     0.033347
      dxy     :     0.034240

  4 H s       :     0.775194  s :     0.775194
      pz      :     0.026890  p :     0.040641
      px      :     0.007724
      py      :     0.006027

  5 C s       :     2.831137  s :     2.831137
      pz      :     1.038887  p :     2.908948
      px      :     0.957695
      py      :     0.912367
      dz2     :     0.034975  d :     0.142676
      dxz     :     0.025624
      dyz     :     0.017379
      dx2y2   :     0.029505
      dxy     :     0.035192

  6 H s       :     0.772664  s :     0.772664
      pz      :     0.026855  p :     0.041169
      px      :     0.007226
      py      :     0.007089

  7 C s       :     2.762876  s :     2.762876
      pz      :     0.873618  p :     2.734328
      px      :     0.959345
      py      :     0.901365
      dz2     :     0.054063  d :     0.205628
      dxz     :     0.051621
      dyz     :     0.030481
      dx2y2   :     0.032783
      dxy     :     0.036679

  8 H s       :     0.765132  s :     0.765132
      pz      :     0.012559  p :     0.037160
      px      :     0.018954
      py      :     0.005648

  9 O s       :     3.478464  s :     3.478464
      pz      :     1.693167  p :     4.693226
      px      :     1.396921
      py      :     1.603138
      dz2     :     0.090091  d :     0.481197
      dxz     :     0.094865
      dyz     :     0.047221
      dx2y2   :     0.118104
      dxy     :     0.130916

 10 O s       :     3.497759  s :     3.497759
      pz      :     1.443700  p :     4.752313
      px      :     1.747147
      py      :     1.561466
      dz2     :     0.081840  d :     0.271299
      dxz     :     0.068713
      dyz     :     0.060895
      dx2y2   :     0.025160
      dxy     :     0.034692

 11 O s       :     3.499240  s :     3.499240
      pz      :     1.823102  p :     4.787315
      px      :     1.624056
      py      :     1.340156
      dz2     :     0.047777  d :     0.286863
      dxz     :     0.037504
      dyz     :     0.048181
      dx2y2   :     0.076990
      dxy     :     0.076410

 12 O s       :     3.501560  s :     3.501560
      pz      :     1.861078  p :     4.800237
      px      :     1.378689
      py      :     1.560470
      dz2     :     0.037847  d :     0.280394
      dxz     :     0.026687
      dyz     :     0.050972
      dx2y2   :     0.093218
      dxy     :     0.071671

 13 O s       :     3.508959  s :     3.508959
      pz      :     1.401034  p :     4.781692
      px      :     1.554773
      py      :     1.825885
      dz2     :     0.086960  d :     0.287958
      dxz     :     0.062289
      dyz     :     0.020482
      dx2y2   :     0.055022
      dxy     :     0.063205

 14 H s       :     0.769279  s :     0.769279
      pz      :     0.010104  p :     0.039924
      px      :     0.009163
      py      :     0.020656

 15 H s       :     0.776917  s :     0.776917
      pz      :     0.026634  p :     0.041720
      px      :     0.006953
      py      :     0.008133

 16 H s       :     0.587596  s :     0.587596
      pz      :     0.023972  p :     0.124935
      px      :     0.038724
      py      :     0.062238

 17 H s       :     0.592875  s :     0.592875
      pz      :     0.030913  p :     0.123300
      px      :     0.037468
      py      :     0.054919

 18 H s       :     0.593900  s :     0.593900
      pz      :     0.033033  p :     0.124376
      px      :     0.067317
      py      :     0.024026

 19 H s       :     0.605232  s :     0.605232
      pz      :     0.063988  p :     0.123084
      px      :     0.024282
      py      :     0.034814


---------------------------------
LOEWDIN BOND ORDERS (THRESH 0.050000)
---------------------------------
B(  0-C ,  1-C ) :   0.9200 B(  0-C ,  3-C ) :   0.0674 B(  0-C ,  7-C ) :   0.0720 
B(  0-C ,  9-O ) :   1.3723 B(  0-C , 13-O ) :   0.1593 B(  0-C , 14-H ) :   0.8189 
B(  0-C , 15-H ) :   0.8085 B(  1-C ,  2-H ) :   0.7794 B(  1-C ,  3-C ) :   0.8934 
B(  1-C ,  5-C ) :   0.0704 B(  1-C ,  9-O ) :   0.1515 B(  1-C , 12-O ) :   0.1493 
B(  1-C , 13-O ) :   1.4274 B(  2-H , 13-O ) :   0.0931 B(  3-C ,  4-H ) :   0.7729 
B(  3-C ,  5-C ) :   0.8893 B(  3-C ,  7-C ) :   0.0588 B(  3-C , 11-O ) :   0.1550 
B(  3-C , 12-O ) :   1.4015 B(  3-C , 13-O ) :   0.1619 B(  4-H , 12-O ) :   0.0953 
B(  5-C ,  6-H ) :   0.7799 B(  5-C ,  7-C ) :   0.8314 B(  5-C ,  9-O ) :   0.1446 
B(  5-C , 10-O ) :   0.1447 B(  5-C , 11-O ) :   1.3964 B(  5-C , 12-O ) :   0.1597 
B(  6-H , 11-O ) :   0.0959 B(  7-C ,  8-H ) :   0.7358 B(  7-C ,  9-O ) :   1.3420 
B(  7-C , 10-O ) :   1.3172 B(  7-C , 11-O ) :   0.1481 B(  7-C , 16-H ) :   0.0509 
B(  8-H ,  9-O ) :   0.0910 B(  8-H , 10-O ) :   0.0934 B(  9-O , 10-O ) :   0.2945 
B(  9-O , 14-H ) :   0.0965 B(  9-O , 15-H ) :   0.0966 B( 10-O , 11-O ) :   0.0932 
B( 10-O , 16-H ) :   0.9279 B( 11-O , 12-O ) :   0.0528 B( 11-O , 17-H ) :   0.9465 
B( 12-O , 13-O ) :   0.0652 B( 12-O , 18-H ) :   0.9445 B( 13-O , 19-H ) :   0.9628 


------------------------------------------
LOEWDIN REDUCED ORBITAL POPULATIONS PER MO
-------------------------------------------
THRESHOLD FOR PRINTING IS 0.1%%
                      0         1         2         3         4         5   
                 -18.97720 -18.97522 -18.97001 -18.96365 -18.95873 -10.13863
                   2.00000   2.00000   2.00000   2.00000   2.00000   2.00000
                  --------  --------  --------  --------  --------  --------
 7 C  s               0.0       0.0       0.0       0.0       0.0      99.0
 9 O  s               0.0      99.9       0.0       0.0       0.0       0.0
 9 O  dxy             0.0       0.0       0.0       0.0       0.0       0.2
10 O  s               0.0       0.0       0.0       0.0      99.9       0.0
10 O  pz              0.0       0.0       0.0       0.0       0.0       0.1
10 O  dz2             0.0       0.0       0.0       0.0       0.0       0.2
11 O  s               0.0       0.0      99.9       0.0       0.0       0.0
12 O  s               0.0       0.0       0.0      99.9       0.0       0.0
13 O  s              99.9       0.0       0.0       0.0       0.0       0.0

                      6         7         8         9        10        11   
                 -10.09862 -10.09379 -10.09275 -10.08973  -1.05312  -1.02302
                   2.00000   2.00000   2.00000   2.00000   2.00000   2.00000
                  --------  --------  --------  --------  --------  --------
 0 C  s               0.0       0.0       0.0      99.4       4.7       0.1
 0 C  pz              0.0       0.0       0.0       0.0       0.7       0.1
 0 C  px              0.0       0.0       0.0       0.0       3.3       1.6
 0 C  py              0.1       0.0       0.0       0.0       0.3       0.5
 0 C  dxz             0.0       0.0       0.0       0.0       0.2       0.0
 0 C  dx2y2           0.0       0.0       0.0       0.0       0.2       0.0
 1 C  s              99.3       0.0       0.0       0.0       1.4       6.7
 1 C  pz              0.0       0.0       0.0       0.0       0.1       1.8
 1 C  px              0.0       0.0       0.0       0.0       0.4       3.3
 1 C  py              0.0       0.0       0.0       0.1       0.1       0.6
 1 C  dxz             0.0       0.0       0.0       0.0       0.0       0.3
 1 C  dx2y2           0.0       0.0       0.0       0.0       0.0       0.2
 2 H  s               0.0       0.0       0.0       0.0       0.1       0.4
 3 C  s               0.0       0.4      98.9       0.0       1.2       5.0
 3 C  pz              0.0       0.0       0.0       0.0       0.1       0.2
 3 C  px              0.0       0.1       0.0       0.0       0.2       1.7
 3 C  py              0.0       0.0       0.0       0.0       0.2       0.8
 4 H  s               0.0       0.0       0.0       0.0       0.1       0.3
 5 C  s               0.0      98.9       0.4       0.0       3.3       0.9
 5 C  pz              0.0       0.0       0.0       0.0       0.5       0.2
 5 C  px              0.0       0.0       0.1       0.0       0.3       0.4
 5 C  py              0.0       0.0       0.0       0.0       0.8       1.0
 6 H  s               0.0       0.0       0.0       0.0       0.2       0.1
 7 C  s               0.0       0.0       0.0       0.0      13.1       0.7
 7 C  pz              0.0       0.0       0.0       0.0       0.8       0.1
 7 C  px              0.0       0.0       0.0       0.0       1.3       0.0
 7 C  py              0.0       0.1       0.0       0.0       1.5       0.7
 7 C  dxz             0.0       0.0       0.0       0.0       0.2       0.0
 7 C  dxy             0.0       0.0       0.0       0.0       0.2       0.0
 8 H  s               0.0       0.0       0.0       0.0       0.8       0.0
 9 O  s               0.0       0.0       0.0       0.0      30.5       2.7
 9 O  pz              0.0       0.0       0.0       0.0       1.0       0.1
 9 O  py              0.0       0.0       0.0       0.0       1.3       0.1
 9 O  dxz             0.0       0.0       0.0       0.2       0.0       0.0
 9 O  dyz             0.0       0.0       0.0       0.0       0.2       0.0
 9 O  dx2y2           0.0       0.0       0.0       0.1       0.0       0.0
 9 O  dxy             0.0       0.0       0.0       0.0       0.3       0.1
10 O  s               0.0       0.0       0.0       0.0      15.8       1.8
10 O  pz              0.0       0.0       0.0       0.0       1.6       0.1
10 O  py              0.0       0.0       0.0       0.0       0.2       0.0
10 O  dz2             0.0       0.0       0.0       0.0       0.4       0.0
10 O  dxz             0.0       0.0       0.0       0.0       0.4       0.0
11 O  s               0.0       0.0       0.0       0.0       3.7       3.0
11 O  px              0.0       0.0       0.0       0.0       0.2       0.2
11 O  py              0.0       0.1       0.0       0.0       0.1       0.0
11 O  dxy             0.0       0.2       0.0       0.0       0.0       0.0
12 O  s               0.0       0.0       0.0       0.0       0.9      16.1
12 O  py              0.0       0.0       0.1       0.0       0.1       0.9
12 O  dz2             0.0       0.0       0.1       0.0       0.0       0.2
12 O  dxy             0.0       0.0       0.1       0.0       0.0       0.0
13 O  s               0.0       0.0       0.0       0.0       1.2      33.1
13 O  px              0.1       0.0       0.0       0.0       0.1       1.6
13 O  dxz             0.2       0.0       0.0       0.0       0.0       0.1
13 O  dx2y2           0.1       0.0       0.0       0.0       0.0       0.1
14 H  s               0.0       0.0       0.0       0.0       0.3       0.0
15 H  s               0.0       0.0       0.0       0.0       0.3       0.0
16 H  s               0.0       0.0       0.0       0.0       2.6       0.2
16 H  px              0.0       0.0       0.0       0.0       0.1       0.0
16 H  py              0.0       0.0       0.0       0.0       0.3       0.0
17 H  s               0.0       0.0       0.0       0.0       0.6       0.6
17 H  py              0.0       0.0       0.0       0.0       0.1       0.1
18 H  s               0.0       0.0       0.0       0.0       0.2       2.9
18 H  px              0.0       0.0       0.0       0.0       0.0       0.6
19 H  s               0.0       0.0       0.0       0.0       0.2       5.6
19 H  pz              0.0       0.0       0.0       0.0       0.0       1.2

                     12        13        14        15        16        17   
                  -1.01343  -0.99303  -0.97931  -0.75313  -0.72747  -0.62466
                   2.00000   2.00000   2.00000   2.00000   2.00000   2.00000
                  --------  --------  --------  --------  --------  --------
 0 C  s               1.3       0.1       2.2       4.1      14.3       4.2
 0 C  pz              0.1       0.1       0.7       0.0       0.1       0.1
 0 C  px              0.2       0.5       1.4       1.6       0.3       0.9
 0 C  py              0.1       0.0       0.0       2.2       0.2       3.1
 0 C  dxz             0.0       0.0       0.1       0.0       0.0       0.0
 1 C  s               1.9       0.5       0.0      12.3       2.9       9.5
 1 C  pz              0.5       0.3       0.0       0.0       0.0       1.1
 1 C  px              1.4       2.2       0.3       4.8       0.4       0.7
 1 C  py              0.5       0.6       0.3       0.1       2.9       1.7
 1 C  dxz             0.1       0.1       0.0       0.1       0.0       0.0
 1 C  dx2y2           0.1       0.1       0.0       0.0       0.0       0.0
 2 H  s               0.1       0.0       0.0       2.1       0.6       4.0
 2 H  pz              0.0       0.0       0.0       0.2       0.0       0.4
 3 C  s               0.7       3.6       0.0      13.0       0.8       0.0
 3 C  pz              0.1       0.1       0.0       0.5       0.2       0.0
 3 C  px              1.2       1.8       0.2       0.8       2.2       5.0
 3 C  py              1.7       4.8       0.1       5.0       0.1       1.9
 3 C  dx2y2           0.0       0.1       0.0       0.0       0.0       0.0
 3 C  dxy             0.0       0.3       0.0       0.1       0.0       0.1
 4 H  s               0.1       0.2       0.0       2.1       0.1       0.0
 4 H  pz              0.0       0.0       0.0       0.2       0.0       0.0
 5 C  s               5.6       0.5       0.4       6.9       8.5       5.9
 5 C  pz              0.9       0.1       0.1       0.2       0.1       0.0
 5 C  px              1.5       2.4       0.1       3.4       0.0       0.1
 5 C  py              4.3       0.6       0.7       0.9       2.6       0.1
 5 C  dyz             0.1       0.0       0.0       0.0       0.0       0.0
 5 C  dxy             0.3       0.1       0.1       0.0       0.1       0.0
 6 H  s               0.4       0.0       0.0       1.1       1.7       1.6
 6 H  pz              0.0       0.0       0.0       0.1       0.2       0.1
 7 C  s               0.0       0.0       0.6       0.1       9.6       1.3
 7 C  pz              0.2       0.3       8.8       0.0       2.7       0.2
 7 C  px              0.3       0.2       3.4       0.8       0.4       0.4
 7 C  py              2.6       0.6       0.8       3.3       0.8       4.5
 7 C  dz2             0.0       0.0       0.9       0.0       0.1       0.0
 7 C  dxy             0.1       0.0       0.2       0.2       0.0       0.1
 8 H  s               0.0       0.0       0.1       0.0       2.4       0.8
 8 H  px              0.0       0.0       0.0       0.0       0.2       0.1
 9 O  s               5.1       1.9      15.5       3.3       0.0       0.0
 9 O  pz              0.1       0.0       0.2       0.1       0.5       0.3
 9 O  px              0.1       0.0       0.6       1.4      11.2       8.5
 9 O  py              0.1       0.0       0.2       0.1       3.9       2.2
 9 O  dz2             0.0       0.0       0.1       0.2       0.1       0.0
 9 O  dxz             0.0       0.0       0.4       0.3       0.7       0.4
 9 O  dyz             0.0       0.0       0.1       0.0       0.1       0.0
 9 O  dx2y2           0.0       0.0       0.0       0.0       1.4       0.0
 9 O  dxy             0.0       0.0       0.1       0.2       0.4       0.0
10 O  s               0.4       1.0      40.5       0.2       2.6       0.0
10 O  pz              0.0       0.0       0.4       0.0       2.6       0.9
10 O  px              0.0       0.0       0.1       0.0       0.4       0.0
10 O  py              0.1       0.1       1.2       0.1       0.1       0.8
10 O  dz2             0.0       0.0       0.0       0.0       0.9       0.3
10 O  dxz             0.0       0.0       0.1       0.0       0.1       0.0
10 O  dyz             0.1       0.0       0.0       0.1       0.1       0.1
10 O  dxy             0.0       0.0       0.0       0.1       0.1       0.0
11 O  s              36.5      10.4       5.9       1.9       2.0       1.4
11 O  pz              0.2       0.0       0.0       0.1       0.3       0.4
11 O  px              1.5       0.3       0.2       0.4       0.3       0.7
11 O  py              0.0       0.0       0.1       1.6       3.2       5.9
11 O  dyz             0.0       0.0       0.1       0.1       0.2       0.1
11 O  dxy             0.0       0.0       0.0       0.6       0.6       0.5
12 O  s               3.1      38.3       1.1       3.4       0.2       0.2
12 O  pz              0.0       0.1       0.0       0.0       0.0       0.0
12 O  px              0.0       0.2       0.0       2.0       0.4       0.7
12 O  py              0.1       1.2       0.0       1.9       0.1       0.1
12 O  dz2             0.0       0.0       0.0       0.2       0.0       0.0
12 O  dx2y2           0.1       0.0       0.0       0.5       0.0       0.3
12 O  dxy             0.1       0.0       0.0       0.6       0.2       0.2
13 O  s              13.2      12.0       0.2       3.2       0.9       1.1
13 O  pz              0.0       0.1       0.0       1.8       0.7      10.4
13 O  px              0.5       0.3       0.0       1.9       0.6       3.9
13 O  py              0.0       0.0       0.0       0.0       0.0       0.7
13 O  dz2             0.0       0.0       0.0       0.2       0.1       0.1
13 O  dxz             0.0       0.0       0.0       0.5       0.2       0.8
13 O  dx2y2           0.0       0.0       0.0       0.7       0.1       0.3
13 O  dxy             0.0       0.1       0.0       0.0       0.1       0.1
14 H  s               0.1       0.0       0.2       0.6       3.3       1.9
14 H  py              0.0       0.0       0.0       0.0       0.2       0.1
15 H  s               0.1       0.0       0.1       0.7       2.4       1.4
15 H  pz              0.0       0.0       0.0       0.1       0.2       0.1
16 H  s               0.2       0.2       7.2       0.0       1.0       0.3
16 H  pz              0.0       0.0       0.2       0.0       0.0       0.0
16 H  px              0.0       0.0       0.3       0.0       0.0       0.0
16 H  py              0.0       0.0       1.2       0.0       0.2       0.0
17 H  s               6.2       1.6       1.1       0.7       1.1       1.6
17 H  px              0.3       0.1       0.1       0.1       0.1       0.1
17 H  py              1.1       0.3       0.2       0.1       0.1       0.1
18 H  s               0.4       6.4       0.2       1.3       0.1       0.1
18 H  px              0.1       1.5       0.0       0.3       0.0       0.0
19 H  s               2.3       2.2       0.0       1.2       0.4       3.6
19 H  pz              0.5       0.5       0.0       0.2       0.1       0.3

                     18        19        20        21        22        23   
                  -0.61998  -0.56768  -0.51903  -0.51042  -0.49972  -0.47060
                   2.00000   2.00000   2.00000   2.00000   2.00000   2.00000
                  --------  --------  --------  --------  --------  --------
 0 C  s               5.0       2.8       0.7       0.0       0.6       0.1
 0 C  pz              0.3       6.2       0.1       0.0       0.1      12.8
 0 C  px              2.9       0.8       1.0       0.9       4.6       0.9
 0 C  py              0.0       0.0       3.8       2.3       0.2       0.3
 0 C  dxz             0.1       0.1       0.0       0.0       0.0       0.1
 1 C  s               0.9       0.7       0.0       0.1       0.0       0.2
 1 C  pz              0.5       4.6       2.3       1.1       0.9       6.3
 1 C  px              0.2       3.3       5.0       4.2       0.5       2.3
 1 C  py              5.9       0.9       1.7       0.8       1.0       2.2
 1 C  dx2y2           0.0       0.1       0.0       0.0       0.1       0.1
 1 C  dxy             0.1       0.0       0.0       0.0       0.0       0.0
 2 H  s               0.5       2.2       0.5       0.2       0.2       2.3
 2 H  pz              0.0       0.2       0.0       0.0       0.0       0.1
 3 C  s              10.3       1.1       0.1       0.7       0.4       0.3
 3 C  pz              0.8       3.5       3.5       7.7       1.7       1.4
 3 C  px              0.2       0.0       0.5       0.5       1.0       2.0
 3 C  py              0.2       0.1      11.5       0.7       0.7       0.1
 3 C  dx2y2           0.0       0.0       0.1       0.0       0.1       0.0
 4 H  s               3.6       1.8       1.5       2.9       0.8       0.3
 4 H  pz              0.3       0.1       0.1       0.1       0.0       0.0
 5 C  s               1.1       2.7       0.2       0.6       0.8       0.7
 5 C  pz              1.3       2.0       1.9       7.8       0.1       0.0
 5 C  px              7.4       0.1       1.4       6.7       1.4       0.2
 5 C  py              2.0       0.5       2.2       0.8       0.2       1.4
 5 C  dxz             0.1       0.0       0.0       0.0       0.0       0.0
 6 H  s               0.5       2.2       1.2       4.1       0.2       0.5
 6 H  pz              0.0       0.1       0.1       0.2       0.0       0.0
 7 C  s               5.0       3.3       0.3       0.0       0.8       0.8
 7 C  pz              0.5       1.3       0.2       1.2      15.1       1.0
 7 C  px              0.6       0.4       2.2       1.7       4.8       6.3
 7 C  py              3.0       1.3       1.4       0.2       0.0       3.0
 7 C  dz2             0.0       0.1       0.1       0.0       0.1       0.1
 7 C  dyz             0.0       0.0       0.0       0.0       0.2       0.0
 8 H  s               2.2       1.0       0.7       0.1       6.9       2.2
 8 H  pz              0.1       0.1       0.0       0.0       0.0       0.1
 8 H  px              0.1       0.0       0.0       0.0       0.3       0.0
 9 O  s               3.1       3.3       0.1       0.5       0.4       0.0
 9 O  pz              0.2       2.9       0.0       0.3       6.8       0.7
 9 O  px              0.1       1.7       0.5       0.3       2.8       9.8
 9 O  py              0.7       0.9       1.0       4.3       0.1       3.1
 9 O  dz2             0.3       0.0       0.0       0.1       0.7       0.6
 9 O  dxz             0.1       0.1       0.0       0.0       0.5       0.4
 9 O  dyz             0.0       0.2       0.1       0.0       0.5       0.0
 9 O  dx2y2           0.1       0.2       0.4       0.1       0.4       0.1
 9 O  dxy             0.5       0.3       0.6       0.3       0.4       0.1
10 O  s               1.1       0.5       0.1       0.7       0.3       0.6
10 O  pz              3.2       9.5       2.3       2.5       6.2       9.0
10 O  px              0.2       3.1       0.0       0.3      10.3       0.2
10 O  py              0.0       3.8       2.7       0.1       6.6       0.1
10 O  dz2             0.4       0.3       0.2       0.0       0.2       0.3
10 O  dxz             0.0       0.0       0.1       0.0       0.2       0.2
10 O  dyz             0.3       0.0       0.0       0.1       0.0       0.3
10 O  dx2y2           0.0       0.2       0.0       0.1       0.1       0.0
10 O  dxy             0.0       0.0       0.0       0.0       0.2       0.0
11 O  s               0.0       0.2       0.8       0.2       0.1       0.3
11 O  pz              0.5       0.8       0.5       0.1       0.2       0.4
11 O  px              0.3       0.1       1.8       0.4       1.1       2.1
11 O  py              3.7       4.9       1.2      20.0       0.0       0.8
11 O  dxz             0.0       0.2       0.1       0.3       0.0       0.0
11 O  dyz             0.2       0.0       0.1       0.1       0.0       0.0
11 O  dx2y2           0.6       0.0       0.3       0.0       0.0       0.2
11 O  dxy             0.0       0.1       0.0       0.2       0.2       0.1
12 O  s               1.8       0.0       0.3       0.3       0.0       0.2
12 O  pz              0.3       0.5       0.4       1.8       0.6       0.1
12 O  px              8.7       0.6      22.1       0.4       3.1       0.1
12 O  py              3.9       0.1       1.0       1.3       1.0       2.2
12 O  dxz             0.1       0.1       0.0       0.2       0.1       0.0
12 O  dyz             0.2       0.2       0.1       0.4       0.1       0.0
12 O  dx2y2           0.3       0.0       0.1       0.1       0.1       0.3
12 O  dxy             0.6       0.0       0.1       0.0       0.0       0.0
13 O  s               0.1       0.2       0.4       0.0       0.5       0.1
13 O  pz              1.3       7.0       6.1       7.1       1.8       5.9
13 O  px              0.3       0.1       0.1       1.4       0.4       4.3
13 O  py              0.2       0.5       0.4       1.1       0.6       0.3
13 O  dz2             0.0       0.1       0.1       0.1       0.0       0.3
13 O  dxz             0.1       0.3       0.1       0.0       0.0       0.2
13 O  dxy             0.4       0.1       0.2       0.1       0.1       0.3
14 H  s               1.9       0.6       2.3       0.1       1.4       0.3
14 H  py              0.1       0.0       0.1       0.0       0.1       0.0
15 H  s               1.5       3.9       0.2       0.0       0.1       4.4
15 H  pz              0.1       0.2       0.0       0.0       0.0       0.1
16 H  s               0.6       4.1       1.0       0.3       5.5       0.5
16 H  py              0.1       0.3       0.0       0.1       0.2       0.1
17 H  s               1.0       1.3       0.4       4.9       0.0       0.1
17 H  px              0.0       0.1       0.0       0.1       0.0       0.0
18 H  s               3.1       0.2       5.5       0.1       0.9       0.1
18 H  px              0.3       0.0       0.2       0.0       0.0       0.0
19 H  s               0.3       1.6       1.1       2.3       0.4       1.7
19 H  px              0.0       0.0       0.0       0.0       0.0       0.1

                     24        25        26        27        28        29   
                  -0.46103  -0.45467  -0.43022  -0.41041  -0.39149  -0.37918
                   2.00000   2.00000   2.00000   2.00000   2.00000   2.00000
                  --------  --------  --------  --------  --------  --------
 0 C  s               0.0       0.2       0.2       0.7       0.1       0.2
 0 C  pz              2.9       0.5       5.0       4.8       2.6       1.8
 0 C  px              0.5       1.8       5.3       0.3       2.8       5.7
 0 C  py              0.6       8.0       1.5       8.4       1.2       6.7
 0 C  dxz             0.0       0.0       0.0       0.2       0.1       0.0
 0 C  dyz             0.0       0.1       0.0       0.0       0.0       0.1
 0 C  dxy             0.0       0.1       0.0       0.1       0.1       0.0
 1 C  s               0.1       1.6       0.1       0.6       0.4       0.2
 1 C  pz              1.4       2.8       0.7       8.2       2.4       4.6
 1 C  px              1.2       2.8       0.0       0.4       0.3       0.7
 1 C  py              5.5       3.8       1.2       3.6       0.4       0.4
 1 C  dxz             0.0       0.0       0.0       0.1       0.0       0.2
 1 C  dx2y2           0.1       0.1       0.0       0.0       0.1       0.1
 1 C  dxy             0.0       0.0       0.0       0.0       0.0       0.1
 2 H  s               0.1       2.2       0.4       3.1       0.7       2.2
 3 C  s               0.1       0.4       0.6       0.3       0.1       0.1
 3 C  pz              1.4       1.1       3.2       4.5       7.6       4.6
 3 C  px              7.1       0.1       6.4       0.3       2.5       0.4
 3 C  py              1.4       0.9       1.6       0.3       1.6       0.1
 3 C  dz2             0.0       0.1       0.1       0.0       0.1       0.1
 3 C  dx2y2           0.0       0.2       0.3       0.2       0.0       0.0
 3 C  dxy             0.1       0.0       0.1       0.0       0.2       0.0
 4 H  s               0.4       1.1       3.7       0.8       3.3       2.8
 4 H  pz              0.0       0.0       0.1       0.0       0.0       0.1
 5 C  s               0.2       0.7       0.4       0.0       0.0       0.1
 5 C  pz             10.3       2.6       1.4       5.1       5.6       0.4
 5 C  px              0.4       1.4       2.5       1.0       2.2       0.3
 5 C  py              6.2       3.8       3.3       0.3       0.8       1.6
 5 C  dxy             0.2       0.2       0.1       0.0       0.0       0.0
 6 H  s               4.5       2.1       0.0       2.2       2.0       0.1
 6 H  pz              0.2       0.1       0.0       0.0       0.0       0.0
 7 C  s               0.6       0.6       0.2       0.0       0.0       0.1
 7 C  pz              0.1       0.8       0.1       0.5       0.0       1.6
 7 C  px              3.9       0.5       2.4       0.8       6.8       4.6
 7 C  py              3.6       2.9       2.9       0.9       0.1       0.3
 7 C  dx2y2           0.0       0.0       0.0       0.0       0.0       0.1
 7 C  dxy             0.0       0.1       0.0       0.0       0.0       0.0
 8 H  s               0.4       1.2       0.3       0.0       2.5       4.3
 9 O  s               0.2       0.1       0.9       0.1       0.4       0.8
 9 O  pz              0.3       0.0       5.7       0.7       0.4       4.8
 9 O  px              1.5       1.7       2.4       7.6       0.2       1.9
 9 O  py              3.7       2.5       3.9       0.1       4.7       0.8
 9 O  dz2             0.2       0.0       0.2       0.0       0.0       0.1
 9 O  dxz             0.0       0.2       0.4       0.2       0.2       0.3
 9 O  dyz             0.1       0.2       0.0       0.1       0.0       0.0
 9 O  dx2y2           0.2       0.2       0.6       0.0       0.0       0.3
 9 O  dxy             0.0       1.0       0.1       0.2       0.1       0.2
10 O  s               0.9       0.1       0.3       0.1       1.7       0.0
10 O  pz              0.0       0.0       0.4       1.6       2.5       0.5
10 O  px              0.5       0.2       0.1       0.0       4.7       3.1
10 O  py              6.0       0.8       2.6       0.5       3.7       0.5
10 O  dxz             0.3       0.0       0.2       0.1       0.1       0.2
10 O  dyz             0.2       0.0       0.1       0.1       0.0       0.1
[...]
 5 C  dyz             0.1       0.0       0.1       0.0       0.0       0.0
 5 C  dxy             0.5       0.1       0.5       0.0       0.0       0.0
 7 C  s               0.1       0.0       0.1       1.3       2.1       0.7
 7 C  pz              0.2       0.1       1.3       0.0       0.0       0.0
 7 C  px              0.0       0.0       0.4       0.0       0.0       0.0
 7 C  dz2             0.3       0.1       1.5       0.0       0.0       0.0
 7 C  dyz             0.1       0.0       0.2       0.0       0.0       0.0
 7 C  dxy             0.1       0.0       0.1       0.0       0.0       0.0
 9 O  s               0.1       0.0       0.4       0.0       0.0       0.0
 9 O  px              0.2       0.0       0.4       0.0       0.0       0.0
 9 O  py              0.1       0.1       0.5       0.0       0.0       0.0
 9 O  dz2             0.0       0.0       0.2       0.0       0.0       0.0
 9 O  dxy             0.2       0.0       0.4       0.0       0.0       0.0
10 O  s               0.6       0.4       4.2       0.0       0.0       0.0
10 O  pz              0.9       0.2       3.8       0.0       0.0       0.0
10 O  px              0.6       0.2       2.8       0.0       0.0       0.0
10 O  py              1.3       0.7       7.0       0.0       0.0       0.0
10 O  dz2             1.8       0.7       8.7       0.0       0.0       0.0
10 O  dxz             0.0       0.0       0.1       0.0       0.0       0.0
10 O  dyz             0.6       0.3       3.1       0.0       0.0       0.0
10 O  dx2y2           1.1       0.4       5.5       0.0       0.0       0.0
10 O  dxy             2.0       0.6       8.6       0.0       0.0       0.0
11 O  s               2.1       0.5       2.1       0.0       0.0       0.0
11 O  pz              0.1       0.0       0.0       0.0       0.0       0.0
11 O  px              0.5       0.2       0.7       0.0       0.0       0.0
11 O  py              6.2       1.7       6.4       0.0       0.0       0.0
11 O  dz2             1.8       0.6       1.8       0.0       0.0       0.0
11 O  dxz             0.1       0.0       0.1       0.0       0.0       0.0
11 O  dyz             0.2       0.0       0.1       0.0       0.0       0.0
11 O  dx2y2           1.1       0.4       1.0       0.0       0.0       0.0
11 O  dxy             9.7       2.4       8.6       0.0       0.0       0.0
12 O  s               0.0       6.6       0.1       0.0       0.0       0.1
12 O  px              0.6      17.0       0.0       0.0       0.0       0.0
12 O  py              0.0       0.1       0.0       0.0       0.0       0.0
12 O  dz2             0.1       4.1       0.0       0.0       0.0       0.0
12 O  dxz             0.0       1.8       0.0       0.0       0.0       0.0
12 O  dx2y2           0.6      20.2       0.0       0.0       0.0       0.0
12 O  dxy             0.2       5.4       0.0       0.0       0.0       0.0
13 O  s               3.6       0.7       0.0       0.0       0.1       0.0
13 O  pz              9.4       0.5       0.0       0.0       0.0       0.0
13 O  px              0.2       0.0       0.0       0.0       0.0       0.0
13 O  py              0.5       0.0       0.0       0.0       0.0       0.0
13 O  dz2            13.2       0.7       0.0       0.0       0.0       0.0
13 O  dxz             3.5       0.2       0.0       0.0       0.0       0.0
13 O  dyz             2.4       0.2       0.0       0.0       0.0       0.0
13 O  dx2y2           0.5       0.0       0.0       0.0       0.0       0.0
16 H  s               1.8       0.7       8.6       0.0       0.0       0.0
16 H  pz              0.1       0.0       0.6       0.0       0.0       0.0
16 H  px              0.4       0.1       2.0       0.0       0.0       0.0
16 H  py              1.7       0.6       7.6       0.0       0.0       0.0
17 H  s               4.3       1.2       4.3       0.0       0.0       0.0
17 H  px              1.4       0.4       1.2       0.0       0.0       0.0
17 H  py              3.8       1.0       3.5       0.0       0.0       0.0
18 H  s               0.3      11.3       0.0       0.0       0.0       0.0
18 H  pz              0.0       0.2       0.0       0.0       0.0       0.0
18 H  px              0.3      12.5       0.0       0.0       0.0       0.0
18 H  py              0.0       0.3       0.0       0.0       0.0       0.0
19 H  s               6.7       0.4       0.0       0.0       0.0       0.0
19 H  pz              7.2       0.4       0.0       0.0       0.0       0.0
19 H  px              0.2       0.0       0.0       0.0       0.0       0.0
19 H  py              0.4       0.0       0.0       0.0       0.0       0.0

                    258       259       260       261       262       263   
                  22.25741  22.31865  43.67395  43.73943  43.78996  43.84439
                   0.00000   0.00000   0.00000   0.00000   0.00000   0.00000
                  --------  --------  --------  --------  --------  --------
 0 C  s              10.4       0.0       0.0       0.0       0.0       0.0
 1 C  s               3.6       3.9       0.0       0.0       0.0       0.0
 3 C  s              12.5       0.2       0.0       0.0       0.0       0.1
 5 C  s              70.4       2.6       0.0       0.0       0.0       0.1
 7 C  s               2.6      92.8       0.0       0.0       0.0       0.0
 9 O  s               0.0       0.1       2.8       9.5      13.8      33.2
10 O  s               0.0       0.0      12.1      12.3      26.2       2.1
11 O  s               0.0       0.0      21.6      23.6       0.4      45.6
12 O  s               0.0       0.0      42.3       0.9      40.1      15.4
13 O  s               0.0       0.0      21.1      53.6      19.3       3.6

                    264   
                  43.87641
                   0.00000
                  --------
 7 C  s               0.1
 9 O  s              40.7
10 O  s              47.1
11 O  s               8.6
12 O  s               1.2
13 O  s               2.2


                      *****************************
                      * MAYER POPULATION ANALYSIS *
                      *****************************

  NA   - Mulliken gross atomic population
  ZA   - Total nuclear charge
  QA   - Mulliken gross atomic charge
  VA   - Mayer's total valence
  BVA  - Mayer's bonded valence
  FA   - Mayer's free valence

  ATOM       NA         ZA         QA         VA         BVA        FA
  0 C      6.2520     6.0000    -0.2520     3.7342     3.7342    -0.0000
  1 C      6.0998     6.0000    -0.0998     3.7782     3.7782    -0.0000
  2 H      0.8325     1.0000     0.1675     0.9560     0.9560    -0.0000
  3 C      5.9432     6.0000     0.0568     3.5624     3.5624    -0.0000
  4 H      0.8332     1.0000     0.1668     0.9532     0.9532     0.0000
  5 C      6.0441     6.0000    -0.0441     3.7189     3.7189    -0.0000
  6 H      0.8311     1.0000     0.1689     0.9501     0.9501    -0.0000
  7 C      5.9676     6.0000     0.0324     3.8127     3.8127    -0.0000
  8 H      0.8573     1.0000     0.1427     0.9499     0.9499    -0.0000
  9 O      8.2035     8.0000    -0.2035     1.8568     1.8568    -0.0000
 10 O      8.4158     8.0000    -0.4158     1.8069     1.8069     0.0000
 11 O      8.4571     8.0000    -0.4571     1.8300     1.8300    -0.0000
 12 O      8.4374     8.0000    -0.4374     1.8184     1.8184     0.0000
 13 O      8.4136     8.0000    -0.4136     1.8603     1.8603     0.0000
 14 H      0.8411     1.0000     0.1589     0.9510     0.9510     0.0000
 15 H      0.8321     1.0000     0.1679     0.9528     0.9528    -0.0000
 16 H      0.6768     1.0000     0.3232     0.9130     0.9130    -0.0000
 17 H      0.6790     1.0000     0.3210     0.9047     0.9047     0.0000
 18 H      0.6872     1.0000     0.3128     0.9112     0.9112     0.0000
 19 H      0.6957     1.0000     0.3043     0.9075     0.9075     0.0000

  Mayer bond orders larger than 0.100000
B(  0-C ,  1-C ) :   0.9264 B(  0-C ,  9-O ) :   0.9209 B(  0-C , 14-H ) :   0.9427 
B(  0-C , 15-H ) :   0.9792 B(  1-C ,  2-H ) :   0.9556 B(  1-C ,  3-C ) :   0.9115 
B(  1-C , 13-O ) :   0.9771 B(  3-C ,  4-H ) :   0.9499 B(  3-C ,  5-C ) :   0.9015 
B(  3-C , 12-O ) :   0.9052 B(  5-C ,  6-H ) :   0.9727 B(  5-C ,  7-C ) :   0.9063 
B(  5-C , 11-O ) :   0.8846 B(  7-C ,  8-H ) :   0.9531 B(  7-C ,  9-O ) :   1.0344 
B(  7-C , 10-O ) :   0.9711 B( 10-O , 16-H ) :   0.8588 B( 11-O , 17-H ) :   0.8779 
B( 12-O , 18-H ) :   0.8712 B( 13-O , 19-H ) :   0.8850 

-------
TIMINGS
-------

Total SCF time: 0 days 0 hours 0 min 39 sec 

Total time                  ....      39.516 sec
Sum of individual times     ....      39.478 sec  ( 99.9%)

SCF preparation             ....       0.061 sec  (  0.2%)
Fock matrix formation       ....      38.760 sec  ( 98.1%)
  Startup                   ....       0.009 sec  (  0.0% of F)
  Split-RI-J                ....       7.658 sec  ( 19.8% of F)
  XC integration            ....      31.024 sec  ( 80.0% of F)
    Basis function eval.    ....       4.879 sec  ( 15.7% of XC)
    Density eval.           ....      12.492 sec  ( 40.3% of XC)
    XC-Functional eval.     ....       2.222 sec  (  7.2% of XC)
    XC-Potential eval.      ....      10.938 sec  ( 35.3% of XC)
Diagonalization             ....       0.000 sec  (  0.0%)
Density matrix formation    ....       0.044 sec  (  0.1%)
Total Energy calculation    ....       0.005 sec  (  0.0%)
Population analysis         ....       0.254 sec  (  0.6%)
Orbital Transformation      ....       0.052 sec  (  0.1%)
Orbital Orthonormalization  ....       0.000 sec  (  0.0%)
DIIS solution               ....       0.262 sec  (  0.7%)
  MO trafo                  ....       0.000 sec  (  0.0 % of DIIS)
  Orb grad                  ....       0.000 sec  (  0.0 % of DIIS)
  Energy W gradient         ....       0.000 sec  (  0.0 % of DIIS)
  DIIS error                ....       0.045 sec  ( 17.1 % of DIIS)
  DIIS work                 ....       0.184 sec  ( 70.2 % of DIIS)
  Form Q                    ....       0.000 sec  (  0.0 % of DIIS)
  Form QpQm                 ....       0.000 sec  (  0.0 % of DIIS)
  Exp/Cayley                ....       0.000 sec  (  0.0 % of DIIS)
  Orb update                ....       0.000 sec  (  0.0 % of DIIS)
  Wake-sleep                ....       0.002 sec  (  0.6 % of DIIS)
SOSCF solution              ....       0.040 sec  (  0.1%)
  MO trafo                  ....       0.028 sec  ( 71.4 % of SOSCF)
  Orb grad                  ....       0.000 sec  (  0.5 % of SOSCF)
  Rot update                ....       0.000 sec  (  0.1 % of SOSCF)
  Step                      ....       0.011 sec  ( 27.3 % of SOSCF)
Finished LeanSCF after  39.5 sec

Maximum memory used throughout the entire LEANSCF-calculation: 31.3 MB


-------------------------------------------------------------------------------
                          DFT DISPERSION CORRECTION                            
                                                                               
                                DFTD4 V3.4.0                                   
-------------------------------------------------------------------------------
The R2SCAN3C composite method is recognized
Using three-body term ABC
Active option DFTDOPT                   ...         5   

-------------------------   ----------------
Dispersion correction           -0.006330836
-------------------------   ----------------

------------------   -----------------
gCP correction             0.016703868
------------------   -----------------

-------------------------   --------------------
FINAL SINGLE POINT ENERGY      -572.563033147475
-------------------------   --------------------


------------------------------------------------------------------------------
                              ORCA PROPERTY CALCULATIONS
------------------------------------------------------------------------------

GBWName                                 ... sp.gbw
Number of atoms                         ...     20
Number of basis functions               ...    265
Max core memory                         ...   1024 MB

Electric properties:
Dipole moment                           ... YES
Quadrupole moment                       ...  NO
Static polarizability (Dipole/Dipole)   ...  NO
Static polarizability (Dipole/Quad.)    ...  NO
Static polarizability (Quad./Quad.)     ...  NO
Static polarizability (Velocity)        ...  NO

Atomic electric properties:
Dipole moment                           ...  NO
Quadrupole moment                       ...  NO
Static polarizability                   ...  NO

Choice of electric origin               ... Center of mass
Position of electric origin             ...     0.000004     0.000005    -0.000002

General magnetic properties:
Magnetizability                         ...  NO

EPR properties:
g-Tensor (aka g-matrix)                 ...  NO
Zero-Field splitting spin-orbit         ...  NO
Zero-field splitting spin-spin          ...  NO
Hyperfine couplings                     ...  NO (   0 nuclei)
Quadrupole couplings                    ...  NO (   0 nuclei)
Contact density                         ...  NO (   0 nuclei)

NMR properties:
Chemical shifts                         ...  NO (   0 nuclei)
Spin-rotation constants                 ...  NO (   0 nuclei)
Spin-spin couplings                     ...  NO (   0 nuclei,    0 pairs)

Choice of magnetic origin               ... GIAO
Position of magnetic origin             ...     0.000000     0.000000     0.000000

Properties with geometric perturbations:
SCF Hessian                             ...  NO
IR spectrum                             ...  NO
VCD spectrum                            ...  NO
X-ray spectroscopy properties:
SCF XES/XAS/RIXS spectra                ...  NO


-------------
DIPOLE MOMENT
-------------

Method             : SCF
Type of density    : Electron Density
Multiplicity       :   1
Irrep              :   0
Energy             :  -572.5734061793244791 Eh
Relativity type    : 
Basis              : AO
                                X                 Y                 Z
Electronic contribution:     -1.179376139      -0.274088722      -0.331493830
Nuclear contribution   :      1.636118369      -0.028117989       0.657636688
                        -----------------------------------------
Total Dipole Moment    :      0.456742231      -0.302206711       0.326142858
                        -----------------------------------------
Magnitude (a.u.)       :      0.637425702
Magnitude (Debye)      :      1.620207374



--------------------
Rotational spectrum 
--------------------
 
Rotational constants in cm-1:             0.057523             0.044840             0.029215 
Rotational constants in MHz :          1724.491425          1344.274298           875.830576 

Dipole components along the rotational axes: 
x,y,z [a.u.] :     0.454825     0.310381     0.321107 
x,y,z [Debye]:     1.156072     0.788927     0.816188 

 

Dipole moment calculation done in   0.0 sec 

Maximum memory used throughout the entire PROP-calculation: 19.8 MB

--------------------------------
SUGGESTED CITATIONS FOR THIS RUN
--------------------------------

Below you find a list of papers that are relevant to this ORCA run
We neither can nor want to force you to cite these papers, but we appreciate if you do
You receive ORCA, which is the product of decades of hard work by many enthusiastic individuals, for free
The only thing we kindly ask in return is that you cite our papers,
We deeply appreciate it, if you show your appreciation for ORCA by not just citing the generic ORCA reference.

Please note that relegating all ORCA citations to the supporting information does *not* help us.
SI sections are not indexed - citations you put there will not count into any citation statistics
But we need these citations in order to attract the funding resources that allow us to do what we are doing

Therefore, if you are a happy ORCA user, please consider citing a few of the papers listed below in the main body of your paper

In addition to the list printed below, the program has created the file sp.bibtex that contains the list in bibtex format
You can import this file easily into all common literature databanks and citation aid programs


List of essential papers. We consider these as the minimum necessary citations

  1. Neese,F.
     Software update: the ORCA program system, version 5.0
     WIRES Comput. Molec. Sci., 2022 12(1)e1606
     doi.org/10.1002/wcms.1606
  2. Grimme,S.; Hansen,A.; Ehlert,S.; Mewes,J.
     r2SCAN-3c: A 'Swiss army knife' composite electronic-structure method
     J. Chem. Phys., 2021 154 064103
     doi.org/10.1063/5.0040021

List of papers to cite with high priority. The work reported in these papers was absolutely
necessary for this run to complete.
Our perspective: the developers of density functionals and basis sets usually get cited in chemistry papers
Good! But without the algorithms to do something with them, the functionals or basis sets would not do anything.
Hence, in our opinion, the algorithm design and method developments papers are equally worthy of getting cited

  1. Neese,F.
     An improvement of the resolution of the identity approximation for the formation of the Coulomb matrix
     J. Comp. Chem., 2003 24(14)1740-1747
     doi.org/10.1002/jcc.10318
  2. Neese,F.
     The SHARK Integral Generation and Digestion System
     J. Comp. Chem., 2022  1-16
     doi.org/10.1002/jcc.26942
  3. Lehtola,S.; Steigemann,C.; Oliveira,M.; Marques,M.
     Recent developments in Libxc - A comprehensive library of functionals for density functional theory
     Software X, 2018 7 
     doi.org/10.1016/j.softx.2017.11.002
  4. Caldeweyher,E.; Bannwarth,C.; Grimme,S.
     Extension of the D3 dispersion coefficient model
     J. Chem. Phys., 2017 147 034112
     doi.org/10.1063/1.4993215
  5. Caldeweyher,E.; Ehlert,S.; Hansen,A.; Neugebauer,H.; Spicher,S.; Bannwarth,C.; Grimme,S.
     A generally applicable atomic-charge dependent London dispersion correction
     J. Chem. Phys., 2019 150 154122
     doi.org/10.1063/1.5090222
  6. Caldeweyher,E.; Mewes,J.; Ehlert,S.; Grimme,S.
     Extension and evaluation of the D4 London-dispersion model for periodic systems
     Phys. Chem. Chem. Phys., 2020 22(16)8499-8512
     doi.org/10.1039/D0CP00502A
  7. Wittmann,L.; Gordiy,I.; Friede,M.; Helmich-Paris,B.; Grimme,S.; Hansen,A.; Bursch,M.
     Extension of the D3 and D4 London Dispersion Corrections to the full Actinides Series
     Phys. Chem. Chem. Phys., 2024 26(32)21379-21394
     doi.org/https://doi.org/10.1039/D4CP01514B 

List of suggested additional citations. These are papers that are important in the 'surrounding' of 
of this run, or papers that preceded the highly important papers. If you like your results we are grateful for a citation.

  1. Neese,F.
     The ORCA program system
     WIRES Comput. Molec. Sci., 2012 2(1)73-78
     doi.org/10.1002/wcms.81
  2. Neese,F.
     Software update: the ORCA program system, version 4.0
     WIRES Comput. Molec. Sci., 2018 8(1)1-6
     doi.org/10.1002/wcms.1327
  3. Neese,F.; Wennmohs,F.; Becker,U.; Riplinger,C.
     The ORCA quantum chemistry program package
     J. Chem. Phys., 2020 152 Art. No. L224108
     doi.org/10.1063/5.0004608

List of optional additional citations

  1. Neese,F.
     Approximate second-order SCF convergence for spin unrestricted wavefunctions
     Chem. Phys. Lett., 2000 325(1-3)93-98
     doi.org/10.1016/s0009-2614(00)00662-x

Timings for individual modules:

Sum of individual times          ...       40.975 sec (=   0.683 min)
Startup calculation              ...        1.198 sec (=   0.020 min)   2.9 %
SCF iterations                   ...       39.690 sec (=   0.661 min)  96.9 %
Property calculations            ...        0.087 sec (=   0.001 min)   0.2 %
                             ****ORCA TERMINATED NORMALLY****
TOTAL RUN TIME: 0 days 0 hours 0 minutes 41 seconds 179 msec
