      -----------------------------------------------------------      
     |                   =====================                   |     
     |                           x T B                           |     
     |                   =====================                   |     
     |                         S. Grimme                         |     
     |          Mulliken Center for Theoretical Chemistry        |     
     |                    University of Bonn                     |     
      -----------------------------------------------------------      

   * xtb version 6.7.1 (41059b4) compiled by 'michael@archlinux' on 2025-03-24

   xtb is free software: you can redistribute it and/or modify it under
   the terms of the GNU Lesser General Public License as published by
   the Free Software Foundation, either version 3 of the License, or
   (at your option) any later version.
   
   xtb is distributed in the hope that it will be useful,
   but WITHOUT ANY WARRANTY; without even the implied warranty of
   MERCHANTABILITY or FITNESS FOR A PARTICULAR PURPOSE.  See the
   GNU Lesser General Public License for more details.
   
   Cite this work as:
   * C. Bannwarth, E. Caldeweyher, S. Ehlert, A. Hansen, P. Pracht,
     J. Seibert, S. Spicher, S. Grimme, WIREs Comput. Mol. Sci., 2020, 11,
     e01493. DOI: 10.1002/wcms.1493
   
   for GFN2-xTB:
   * C. Bannwarth, S. Ehlert and S. Grimme., J. Chem. Theory Comput., 2019,
     15, 1652-1671. DOI: 10.1021/acs.jctc.8b01176
   for GFN1-xTB:
   * S. Grimme, C. Bannwarth, P. Shushkov, J. Chem. Theory Comput., 2017,
     13, 1989-2009. DOI: 10.1021/acs.jctc.7b00118
   for GFN0-xTB:
   * P. Pracht, E. Caldeweyher, S. Ehlert, S. Grimme, ChemRxiv, 2019, preprint.
     DOI: 10.26434/chemrxiv.8326202.v1
   for GFN-FF:
   * S. Spicher and S. Grimme, Angew. Chem. Int. Ed., 2020, 59, 15665-15673.
     DOI: 10.1002/anie.202004239
   
   for ALPB and GBSA implicit solvation:
   * S. Ehlert, M. Stahn, S. Spicher, S. Grimme, J. Chem. Theory Comput.,
     2021, 17, 4250-4261. DOI: 10.1021/acs.jctc.1c00471
   
   for ddCOSMO and CPCM-X implicit solvation:
   * M. Stahn, S. Ehlert, S. Grimme, J. Phys. Chem. A,
     2023, XX, XXXX-XXXX. DOI: 10.1021/acs.jpca.3c04382
   
   for DFT-D4:
   * E. Caldeweyher, C. Bannwarth and S. Grimme, J. Chem. Phys., 2017,
     147, 034112. DOI: 10.1063/1.4993215
   * E. Caldeweyher, S. Ehlert, A. Hansen, H. Neugebauer, S. Spicher,
     C. Bannwarth and S. Grimme, J. Chem. Phys., 2019, 150, 154122.
     DOI: 10.1063/1.5090222
   * E. Caldeweyher, J.-M. Mewes, S. Ehlert and S. Grimme, Phys. Chem. Chem. Phys.
     2020, 22, 8499-8512. DOI: 10.1039/D0CP00502A
   
   for sTDA-xTB:
   * S. Grimme and C. Bannwarth, J. Chem. Phys., 2016, 145, 054103.
     DOI: 10.1063/1.4959605
   
   in the mass-spec context:
   * V. Asgeirsson, C. Bauer and S. Grimme, Chem. Sci., 2017, 8, 4879.
     DOI: 10.1039/c7sc00601b
   * J. Koopman and S. Grimme, ACS Omega 2019, 4, 12, 15120-15133.
     DOI: 10.1021/acsomega.9b02011
   
   for metadynamics refer to:
   * S. Grimme, J. Chem. Theory Comput., 2019, 155, 2847-2862
     DOI: 10.1021/acs.jctc.9b00143
   
   for SPH calculations refer to:
   * S. Spicher and S. Grimme, J. Chem. Theory Comput., 2021, 17, 1701-1714
     DOI: 10.1021/acs.jctc.0c01306
   
   for ONIOM refer to:
   * C. Plett, A. Katbashev, S. Ehlert, S. Grimme, M. Bursch,
     Phys. Chem. Chem. Phys., 2023, 25, 17860-17868. DOI: 10.1039/D3CP02178E
   
   for DIPRO refer to:
   * J. Kohn, N. Gildemeister, S. Grimme, D. Fazzi, A. Hansen,
     J. Chem. Phys., 2023, just accepted.
   
   for PTB refer to:
   * S. Grimme, M. Mueller, A. Hansen, J. Chem. Phys., 2023, 158, 124111.
     DOI: 10.1063/5.0137838
   
   with help from (in alphabetical order)
   P. Atkinson, C. Bannwarth, F. Bohle, G. Brandenburg, E. Caldeweyher
   M. Checinski, S. Dohm, S. Ehlert, S. Ehrlich, I. Gerasimov, C. Hölzer
   A. Katbashev, J. Kohn, J. Koopman, C. Lavigne, S. Lehtola, F. März, M. Müller,
   F. Musil, H. Neugebauer, J. Pisarek, C. Plett, P. Pracht, F. Pultar,
   J. Seibert, P. Shushkov, S. Spicher, M. Stahn, M. Steiner, T. Strunk,
   J. Stückrath, T. Rose, and J. Unsleber
   
 * started run on 2025/04/09 at 01:47:52.247     
   ID    Z sym.   atoms
    1    6 C      1-3
    2   16 S      4
    3    1 H      5-12

           -------------------------------------------------
          |                Calculation Setup                |
           -------------------------------------------------

          program call               : /usr/bin/xtb xtb_rrho.coord --gfn2 --ohess vtight --chrg 0 --enso --norestart -I rrho-xcontrol-inp --parallel 1
          coordinate file            : xtb_rrho.coord
          omp threads                :                     1


           -------------------------------------------------
          |                 G F N 2 - x T B                 |
           -------------------------------------------------

        Reference                      10.1021/acs.jctc.8b01176
      * Hamiltonian:
        H0-scaling (s, p, d)           1.850000    2.230000    2.230000
        zeta-weighting                 0.500000
      * Dispersion:
        s8                             2.700000
        a1                             0.520000
        a2                             5.000000
        s9                             5.000000
      * Repulsion:
        kExp                           1.500000    1.000000
        rExp                           1.000000
      * Coulomb:
        alpha                          2.000000
        third order                    shell-resolved
        anisotropic                    true
        a3                             3.000000
        a5                             4.000000
        cn-shift                       1.200000
        cn-exp                         4.000000
        max-rad                        5.000000


          ...................................................
          :                      SETUP                      :
          :.................................................:
          :  # basis functions                  30          :
          :  # atomic orbitals                  29          :
          :  # shells                           17          :
          :  # electrons                        26          :
          :  max. iterations                   250          :
          :  Hamiltonian                  GFN2-xTB          :
          :  restarted?                      false          :
          :  GBSA solvation                  false          :
          :  PC potential                    false          :
          :  electronic temp.          300.0000000     K    :
          :  accuracy                    1.0000000          :
          :  -> integral cutoff          0.2500000E+02      :
          :  -> integral neglect         0.1000000E-07      :
          :  -> SCF convergence          0.1000000E-05 Eh   :
          :  -> wf. convergence          0.1000000E-03 e    :
          :  Broyden damping             0.4000000          :
          :  net charge                          0          :
          :  unpaired electrons                  0          :
          ...................................................

 iter      E             dE          RMSdq      gap      omega  full diag
   1    -13.8622160 -0.138622E+02  0.362E+00    5.25       0.0  T
   2    -13.8958684 -0.336524E-01  0.218E+00    4.70       1.0  T
   3    -13.8972902 -0.142188E-02  0.889E-01    4.61       1.0  T
   4    -13.8978642 -0.573942E-03  0.318E-01    4.48       1.0  T
   5    -13.8978734 -0.921661E-05  0.130E-01    4.48       1.0  T
   6    -13.8978943 -0.209034E-04  0.355E-02    4.48       1.0  T
   7    -13.8978949 -0.624915E-06  0.141E-02    4.48       2.0  T
   8    -13.8978951 -0.182345E-06  0.303E-03    4.48       9.5  T
   9    -13.8978951 -0.247026E-08  0.584E-04    4.48      49.5  T
  10    -13.8978951 -0.172268E-09  0.284E-04    4.48     101.7  T

   *** convergence criteria satisfied after 10 iterations ***

         #    Occupation            Energy/Eh            Energy/eV
      -------------------------------------------------------------
         1        2.0000           -0.7090024             -19.2929
       ...           ...                  ...                  ...
         7        2.0000           -0.4971640             -13.5285
         8        2.0000           -0.4925321             -13.4025
         9        2.0000           -0.4687556             -12.7555
        10        2.0000           -0.4564675             -12.4211
        11        2.0000           -0.4487785             -12.2119
        12        2.0000           -0.4413814             -12.0106
        13        2.0000           -0.3696714             -10.0593 (HOMO)
        14                         -0.2049938              -5.5782 (LUMO)
        15                         -0.1233782              -3.3573
        16                         -0.0133835              -0.3642
        17                         -0.0078888              -0.2147
        18                          0.0045154               0.1229
       ...                                ...                  ...
        29                          0.5034047              13.6983
      -------------------------------------------------------------
                  HL-Gap            0.1646776 Eh            4.4811 eV
             Fermi-level           -0.2873326 Eh           -7.8187 eV

 SCC (total)                   0 d,  0 h,  0 min,  0.004 sec
 SCC setup                      ...        0 min,  0.000 sec (  1.718%)
 Dispersion                     ...        0 min,  0.000 sec (  1.312%)
 classical contributions        ...        0 min,  0.000 sec (  0.402%)
 integral evaluation            ...        0 min,  0.001 sec ( 14.925%)
 iterations                     ...        0 min,  0.002 sec ( 49.279%)
 molecular gradient             ...        0 min,  0.001 sec ( 30.351%)
 printout                       ...        0 min,  0.000 sec (  1.819%)

         :::::::::::::::::::::::::::::::::::::::::::::::::::::
         ::                     SUMMARY                     ::
         :::::::::::::::::::::::::::::::::::::::::::::::::::::
         :: total energy             -13.742433223269 Eh    ::
         :: gradient norm              0.017162016214 Eh/a0 ::
         :: HOMO-LUMO gap              4.481104710249 eV    ::
         ::.................................................::
         :: SCC energy               -13.897892104682 Eh    ::
         :: -> isotropic ES            0.005560698859 Eh    ::
         :: -> anisotropic ES          0.002556858249 Eh    ::
         :: -> anisotropic XC          0.009475086048 Eh    ::
         :: -> dispersion             -0.005916342957 Eh    ::
         :: repulsion energy           0.155458881413 Eh    ::
         :: add. restraining           0.000000000000 Eh    ::
         :: total charge               0.000000000000 e     ::
         :::::::::::::::::::::::::::::::::::::::::::::::::::::

      ----------------------------------------------------------- 
     |                   =====================                   |
     |                        A N C O P T                        |
     |                   =====================                   |
     |               Approximate Normal Coordinate               |
     |                Rational Function Optimizer                |
      ----------------------------------------------------------- 

          ...................................................
          :                      SETUP                      :
          :.................................................:
          :   optimization level         verytight          :
          :   max. optcycles                   240          :
          :   ANC micro-cycles                  20          :
          :   degrees of freedom                30          :
          :.................................................:
          :   RF solver                   davidson          :
          :   write xtbopt.log                true          :
          :   linear?                        false          :
          :   energy convergence         0.1000000E-06 Eh   :
          :   grad. convergence          0.2000000E-03 Eh/α :
          :   maximum RF displ.          1.0000000          :
          :   Hlow (freq-cutoff)         0.1000000E-01      :
          :   Hmax (freq-cutoff)         5.0000000          :
          :   S6 in model hess.         20.0000000          :
          ...................................................

generating ANC from exact Hessian ...
Using Lindh-Hessian (1995)
 Shifting diagonal of input Hessian by    6.7445678618621146E-003
 Lowest  eigenvalues of input Hessian
    0.000000    0.000000    0.000000    0.000000    0.000000    0.000000
    0.010000    0.011523    0.016272    0.018055    0.023908    0.038729
    0.045042    0.053553    0.058152    0.062011    0.064504    0.080709
 Highest eigenvalues
    1.005496    1.074077    1.083575    1.153826    1.196627    1.242002


........................................................................
.............................. CYCLE    1 ..............................
........................................................................

 iter      E             dE          RMSdq      gap      omega  full diag
   1    -13.8978951 -0.138979E+02  0.632E-05    4.48       0.0  T
   2    -13.8978951 -0.214584E-11  0.388E-05    4.48     744.5  T
   3    -13.8978951 -0.305533E-12  0.157E-05    4.48    1833.5  T
     SCC iter.                  ...        0 min,  0.001 sec
     gradient                   ...        0 min,  0.001 sec
 * total energy  :   -13.7424332 Eh     change       -0.3660539E-10 Eh
   gradient norm :     0.0171627 Eh/α   predicted     0.0000000E+00 (-100.00%)
   displ. norm   :     0.1316608 α      lambda       -0.1226743E-02
   maximum displ.:     0.0844648 α      in ANC's #5, #2, #15, ...

........................................................................
.............................. CYCLE    2 ..............................
........................................................................

 iter      E             dE          RMSdq      gap      omega  full diag
   1    -13.9038541 -0.139039E+02  0.200E-01    4.57       0.0  T
   2    -13.9038614 -0.731681E-05  0.116E-01    4.56       1.0  T
   3    -13.9038608  0.578091E-06  0.221E-02    4.56       1.3  T
   4    -13.9038626 -0.180888E-05  0.745E-03    4.56       3.9  T
   5    -13.9038626 -0.171975E-07  0.188E-03    4.56      15.3  T
   6    -13.9038626 -0.230007E-08  0.922E-04    4.56      31.3  T
   7    -13.9038626 -0.302590E-09  0.331E-04    4.56      87.2  T
     SCC iter.                  ...        0 min,  0.001 sec
     gradient                   ...        0 min,  0.001 sec
 * total energy  :   -13.7431059 Eh     change       -0.6727143E-03 Eh
   gradient norm :     0.0058856 Eh/α   predicted    -0.6240059E-03 (  -7.24%)
   displ. norm   :     0.0438458 α      lambda       -0.1095739E-03
   maximum displ.:     0.0236980 α      in ANC's #2, #5, #13, ...

........................................................................
.............................. CYCLE    3 ..............................
........................................................................

 iter      E             dE          RMSdq      gap      omega  full diag
   1    -13.9061420 -0.139061E+02  0.537E-02    4.56       0.0  T
   2    -13.9061431 -0.116156E-05  0.269E-02    4.56       1.1  T
   3    -13.9061432 -0.935833E-07  0.736E-03    4.56       3.9  T
   4    -13.9061433 -0.466023E-07  0.333E-03    4.56       8.7  T
   5    -13.9061433 -0.305385E-08  0.113E-03    4.56      25.4  T
   6    -13.9061433 -0.957357E-09  0.529E-04    4.56      54.6  T
   7    -13.9061433 -0.874927E-10  0.131E-04    4.56     219.6  T
     SCC iter.                  ...        0 min,  0.001 sec
     gradient                   ...        0 min,  0.001 sec
 * total energy  :   -13.7431633 Eh     change       -0.5732686E-04 Eh
   gradient norm :     0.0021188 Eh/α   predicted    -0.5489193E-04 (  -4.25%)
   displ. norm   :     0.0215673 α      lambda       -0.1301020E-04
   maximum displ.:     0.0149000 α      in ANC's #1, #2, #3, ...

........................................................................
.............................. CYCLE    4 ..............................
........................................................................

 iter      E             dE          RMSdq      gap      omega  full diag
   1    -13.9063441 -0.139063E+02  0.296E-02    4.57       0.0  T
   2    -13.9063442 -0.145296E-06  0.143E-02    4.57       2.0  T
   3    -13.9063442 -0.277805E-07  0.228E-03    4.57      12.6  T
   4    -13.9063442 -0.148052E-08  0.116E-03    4.57      25.0  T
   5    -13.9063442 -0.136704E-08  0.345E-04    4.57      83.6  T
   6    -13.9063442 -0.487468E-10  0.155E-04    4.57     185.9  T
     SCC iter.                  ...        0 min,  0.001 sec
     gradient                   ...        0 min,  0.001 sec
 * total energy  :   -13.7431713 Eh     change       -0.7990020E-05 Eh
   gradient norm :     0.0006702 Eh/α   predicted    -0.6506537E-05 ( -18.57%)
   displ. norm   :     0.0286839 α      lambda       -0.4075614E-05
   maximum displ.:     0.0213874 α      in ANC's #1, #2, #3, ...

........................................................................
.............................. CYCLE    5 ..............................
........................................................................

 iter      E             dE          RMSdq      gap      omega  full diag
   1    -13.9061129 -0.139061E+02  0.438E-02    4.57       0.0  T
   2    -13.9061131 -0.215083E-06  0.206E-02    4.57       1.4  T
   3    -13.9061132 -0.513553E-07  0.215E-03    4.57      13.5  T
   4    -13.9061132 -0.165299E-08  0.112E-03    4.57      25.7  T
   5    -13.9061132 -0.825233E-09  0.214E-04    4.57     134.6  T
   6    -13.9061132 -0.171294E-10  0.921E-05    4.57     313.3  T
     SCC iter.                  ...        0 min,  0.001 sec
     gradient                   ...        0 min,  0.001 sec
 * total energy  :   -13.7431743 Eh     change       -0.3043806E-05 Eh
   gradient norm :     0.0006659 Eh/α   predicted    -0.2037324E-05 ( -33.07%)
   displ. norm   :     0.0139945 α      lambda       -0.1204242E-05
   maximum displ.:     0.0109076 α      in ANC's #1, #2, #4, ...

........................................................................
.............................. CYCLE    6 ..............................
........................................................................

 iter      E             dE          RMSdq      gap      omega  full diag
   1    -13.9060573 -0.139061E+02  0.230E-02    4.57       0.0  T
   2    -13.9060574 -0.608733E-07  0.111E-02    4.57       2.6  T
   3    -13.9060574 -0.144905E-07  0.113E-03    4.57      25.6  T
   4    -13.9060574 -0.626144E-09  0.628E-04    4.57      45.9  T
   5    -13.9060574 -0.208402E-09  0.105E-04    4.57     273.7  T
     SCC iter.                  ...        0 min,  0.001 sec
     gradient                   ...        0 min,  0.001 sec
 * total energy  :   -13.7431756 Eh     change       -0.1276626E-05 Eh
   gradient norm :     0.0003522 Eh/α   predicted    -0.6016109E-06 ( -52.87%)
   displ. norm   :     0.0131799 α      lambda       -0.6522032E-06
   maximum displ.:     0.0108253 α      in ANC's #1, #2, #4, ...

........................................................................
.............................. CYCLE    7 ..............................
........................................................................

 iter      E             dE          RMSdq      gap      omega  full diag
   1    -13.9061150 -0.139061E+02  0.201E-02    4.57       0.0  T
   2    -13.9061151 -0.436632E-07  0.960E-03    4.57       3.0  T
   3    -13.9061151 -0.111555E-07  0.972E-04    4.57      29.7  T
   4    -13.9061151 -0.435580E-10  0.312E-04    4.57      92.5  T
     SCC iter.                  ...        0 min,  0.001 sec
     gradient                   ...        0 min,  0.001 sec
 * total energy  :   -13.7431761 Eh     change       -0.5495894E-06 Eh
   gradient norm :     0.0001679 Eh/α   predicted    -0.3254437E-06 ( -40.78%)
   displ. norm   :     0.0053998 α      lambda       -0.1424085E-06
   maximum displ.:     0.0051292 α      in ANC's #1, #2, #3, ...

........................................................................
.............................. CYCLE    8 ..............................
........................................................................

 iter      E             dE          RMSdq      gap      omega  full diag
   1    -13.9061201 -0.139061E+02  0.732E-03    4.57       0.0  T
   2    -13.9061201 -0.596323E-08  0.345E-03    4.57       8.4  T
   3    -13.9061201 -0.145800E-08  0.372E-04    4.57      77.6  T
   4    -13.9061201 -0.336442E-11  0.797E-05    4.57     362.3  T
     SCC iter.                  ...        0 min,  0.001 sec
     gradient                   ...        0 min,  0.001 sec
 * total energy  :   -13.7431763 Eh     change       -0.1593328E-06 Eh
   gradient norm :     0.0000918 Eh/α   predicted    -0.7214698E-07 ( -54.72%)
   displ. norm   :     0.0041079 α      lambda       -0.8883248E-07
   maximum displ.:     0.0038106 α      in ANC's #1, #2, #4, ...

........................................................................
.............................. CYCLE    9 ..............................
........................................................................

 iter      E             dE          RMSdq      gap      omega  full diag
   1    -13.9061102 -0.139061E+02  0.324E-03    4.57       0.0  T
   2    -13.9061102 -0.152484E-08  0.154E-03    4.57      18.8  T
   3    -13.9061102 -0.296954E-09  0.242E-04    4.57     119.4  T
   4    -13.9061102 -0.273914E-11  0.924E-05    4.57     312.3  T
     SCC iter.                  ...        0 min,  0.001 sec
     gradient                   ...        0 min,  0.001 sec
 * total energy  :   -13.7431764 Eh     change       -0.1118112E-06 Eh
   gradient norm :     0.0000506 Eh/α   predicted    -0.4425687E-07 ( -60.42%)
   displ. norm   :     0.0049090 α      lambda       -0.8055355E-07
   maximum displ.:     0.0040148 α      in ANC's #1, #2, #5, ...

........................................................................
.............................. CYCLE   10 ..............................
........................................................................

 iter      E             dE          RMSdq      gap      omega  full diag
   1    -13.9061137 -0.139061E+02  0.274E-03    4.56       0.0  T
   2    -13.9061137 -0.125745E-08  0.133E-03    4.56      21.7  T
   3    -13.9061137 -0.213207E-09  0.258E-04    4.56     112.0  T
   4    -13.9061137 -0.145821E-10  0.112E-04    4.56     257.6  T
     SCC iter.                  ...        0 min,  0.001 sec
     gradient                   ...        0 min,  0.001 sec
 * total energy  :   -13.7431765 Eh     change       -0.1036865E-06 Eh
   gradient norm :     0.0000732 Eh/α   predicted    -0.4034873E-07 ( -61.09%)
   displ. norm   :     0.0053731 α      lambda       -0.6756252E-07
   maximum displ.:     0.0042289 α      in ANC's #1, #2, #3, ...

........................................................................
.............................. CYCLE   11 ..............................
........................................................................

 iter      E             dE          RMSdq      gap      omega  full diag
   1    -13.9061117 -0.139061E+02  0.291E-03    4.57       0.0  T
   2    -13.9061117 -0.116812E-08  0.146E-03    4.57      19.8  T
   3    -13.9061117 -0.242821E-09  0.272E-04    4.57     106.0  T
   4    -13.9061117 -0.119549E-11  0.435E-05    4.57     664.0  T
     SCC iter.                  ...        0 min,  0.001 sec
     gradient                   ...        0 min,  0.001 sec
 * total energy  :   -13.7431766 Eh     change       -0.8893848E-07 Eh
   gradient norm :     0.0000618 Eh/α   predicted    -0.3538084E-07 ( -60.22%)
   displ. norm   :     0.0048216 α      lambda       -0.4939955E-07
   maximum displ.:     0.0038809 α      in ANC's #1, #2, #3, ...

   *** GEOMETRY OPTIMIZATION CONVERGED AFTER 11 ITERATIONS ***

------------------------------------------------------------------------
 total energy gain   :        -0.0007434 Eh       -0.4665 kcal/mol
 total RMSD          :         0.0588414 a0        0.0311 Å
 total power (kW/mol):        -0.1774277 (step)  -62.6746 (real)
------------------------------------------------------------------------

 ANCopt (total)                0 d,  0 h,  0 min,  0.031 sec
 optimizer setup                ...        0 min,  0.000 sec (  0.128%)
 model hessian                  ...        0 min,  0.001 sec (  2.792%)
 ANC generation                 ...        0 min,  0.000 sec (  0.391%)
 coordinate transformation      ...        0 min,  0.000 sec (  0.082%)
 single point calculation       ...        0 min,  0.029 sec ( 91.535%)
 optimization log               ...        0 min,  0.000 sec (  1.276%)
 hessian update                 ...        0 min,  0.000 sec (  0.120%)
 rational function              ...        0 min,  0.000 sec (  1.346%)

================
 final structure:
================
$coord
       -4.73067658254924        0.14389982465973        0.01425892429849      C
       -2.06976177131272       -0.95772026679843        0.05460252015176      C
       -0.09152062709033        1.11760461591910       -0.11398134009490      C
        3.12719368348626       -0.11642341162608        0.08084251285432      S
       -6.12541753218410       -1.36008531441075        0.12521361760380      H
       -5.01196600481330        1.41177725964975        1.60725204261383      H
       -5.04941992280493        1.20079203038196       -1.72022856064805      H
       -1.83580860684135       -2.25947692261972       -1.53246066136365      H
       -1.78132113496341       -2.02750096780383        1.79538851168377      H
       -0.25943282611102        2.18363566929502       -1.86954126478751      H
       -0.24956871288458        2.41765814025981        1.47549951179433      H
        2.98054728514339       -1.57137392184013       -1.96688789223091      H
$end

 Bond Distances (Angstroems)
 ---------------------------
C1-C2=1.5241         C1-H5=1.0870         C1-H6=1.0876         C1-H7=1.0880         C2-C1=1.5241         C2-C3=1.5198         
C2-H8=1.0932         C2-H9=1.0919         C3-C2=1.5198         C3-S4=1.8271         C3-H10=1.0905        C3-H11=1.0898        
S4-C3=1.8271         S4-H12=1.3315        H5-C1=1.0870         H6-C1=1.0876         H7-C1=1.0880         H8-C2=1.0932         
H9-C2=1.0919         H10-C3=1.0905        H11-C3=1.0898        H12-S4=1.3315        
 C  H  Rav=1.0897 sigma=0.0022  Rmin=1.0870  Rmax=1.0932     7
 C  C  Rav=1.5220 sigma=0.0022  Rmin=1.5198  Rmax=1.5241     2
 S  H  Rav=1.3315 sigma=0.0000  Rmin=1.3315  Rmax=1.3315     1
 S  C  Rav=1.8271 sigma=0.0000  Rmin=1.8271  Rmax=1.8271     1

 selected bond angles (degree)
 --------------------
H5-C1-C2=110.27                H6-C1-C2=110.58                H6-C1-H5=108.47                H7-C1-C2=110.59                
H7-C1-H5=108.46                H7-C1-H6=108.39                C3-C2-C1=111.05                H8-C2-C1=109.56                
H8-C2-C3=109.40                H9-C2-C1=109.83                H9-C2-C3=109.14                H9-C2-H8=107.79                
S4-C3-C2=112.37                H10-C3-C2=111.57               H10-C3-S4=107.99               H11-C3-C2=110.98               
H11-C3-S4=104.69               H11-C3-H10=108.95              H12-S4-C3= 96.11               

 selected dihedral angles (degree)
 ---------------------------------
C3-C2-C1-H5=179.68            C3-C2-C1-H6=299.65            C3-C2-C1-H7= 59.72            H8-C2-C1-H5= 58.72            
H8-C2-C1-H6=178.68            H8-C2-C1-H7=298.76            H9-C2-C1-H5=300.49            H9-C2-C1-H6= 60.46            
H9-C2-C1-H7=180.53            S4-C3-C2-C1=177.26            S4-C3-C2-H8=298.32            S4-C3-C2-H9= 56.05            
H10-C3-C2-C1=298.72           H10-C3-C2-H8= 59.79           H10-C3-C2-H9=177.51           H11-C3-C2-C1= 60.43           
H11-C3-C2-H8=181.49           H11-C3-C2-H9=299.21           H12-S4-C3-C2= 60.65           H12-S4-C3-H10=297.17          
H12-S4-C3-H11=181.19          
           -------------------------------------------------
          |                Final Singlepoint                |
           -------------------------------------------------

          ...................................................
          :                      SETUP                      :
          :.................................................:
          :  # basis functions                  30          :
          :  # atomic orbitals                  29          :
          :  # shells                           17          :
          :  # electrons                        26          :
          :  max. iterations                   250          :
          :  Hamiltonian                  GFN2-xTB          :
          :  restarted?                      false          :
          :  GBSA solvation                  false          :
          :  PC potential                    false          :
          :  electronic temp.          300.0000000     K    :
          :  accuracy                    1.0000000          :
          :  -> integral cutoff          0.2500000E+02      :
          :  -> integral neglect         0.1000000E-07      :
          :  -> SCF convergence          0.1000000E-05 Eh   :
          :  -> wf. convergence          0.1000000E-03 e    :
          :  Broyden damping             0.4000000          :
          :  net charge                          0          :
          :  unpaired electrons                  0          :
          ...................................................

 iter      E             dE          RMSdq      gap      omega  full diag
   1    -13.9061117 -0.139061E+02  0.121E-05    4.57       0.0  T
   2    -13.9061117 -0.834888E-13  0.698E-06    4.57    4134.1  T
   3    -13.9061117 -0.124345E-13  0.299E-06    4.57    9646.0  T

   *** convergence criteria satisfied after 3 iterations ***

         #    Occupation            Energy/Eh            Energy/eV
      -------------------------------------------------------------
         1        2.0000           -0.7102347             -19.3265
       ...           ...                  ...                  ...
         7        2.0000           -0.4979427             -13.5497
         8        2.0000           -0.4940939             -13.4450
         9        2.0000           -0.4699497             -12.7880
        10        2.0000           -0.4569647             -12.4346
        11        2.0000           -0.4485031             -12.2044
        12        2.0000           -0.4426922             -12.0463
        13        2.0000           -0.3692686             -10.0483 (HOMO)
        14                         -0.2015018              -5.4831 (LUMO)
        15                         -0.1176619              -3.2017
        16                         -0.0139250              -0.3789
        17                         -0.0077851              -0.2118
        18                          0.0054458               0.1482
       ...                                ...                  ...
        29                          0.5323376              14.4856
      -------------------------------------------------------------
                  HL-Gap            0.1677668 Eh            4.5652 eV
             Fermi-level           -0.2853852 Eh           -7.7657 eV

 SCC (total)                   0 d,  0 h,  0 min,  0.002 sec
 SCC setup                      ...        0 min,  0.000 sec (  1.226%)
 Dispersion                     ...        0 min,  0.000 sec (  0.686%)
 classical contributions        ...        0 min,  0.000 sec (  0.315%)
 integral evaluation            ...        0 min,  0.001 sec ( 21.802%)
 iterations                     ...        0 min,  0.001 sec ( 25.646%)
 molecular gradient             ...        0 min,  0.001 sec ( 48.345%)
 printout                       ...        0 min,  0.000 sec (  1.687%)

         :::::::::::::::::::::::::::::::::::::::::::::::::::::
         ::                     SUMMARY                     ::
         :::::::::::::::::::::::::::::::::::::::::::::::::::::
         :: total energy             -13.743176588325 Eh    ::
         :: gradient norm              0.000061863852 Eh/a0 ::
         :: HOMO-LUMO gap              4.565166247602 eV    ::
         ::.................................................::
         :: SCC energy               -13.906108632553 Eh    ::
         :: -> isotropic ES            0.005714060044 Eh    ::
         :: -> anisotropic ES          0.002278192690 Eh    ::
         :: -> anisotropic XC          0.009487958796 Eh    ::
         :: -> dispersion             -0.005949281501 Eh    ::
         :: repulsion energy           0.162932044229 Eh    ::
         :: add. restraining           0.000000000000 Eh    ::
         :: total charge              -0.000000000000 e     ::
         :::::::::::::::::::::::::::::::::::::::::::::::::::::

           ------------------------------------------------- 
          |                Numerical Hessian                |
           ------------------------------------------------- 
step length          :   0.00500
SCC accuracy         :   0.30000
Hessian scale factor :   1.00000
frozen atoms in %    :   0.00000    0
RMS gradient         :   0.00006
estimated CPU  time      0.00 min
estimated wall time      0.00 min

writing file <hessian>, containing the non-mass-weighted Hessian matrix in atomic units (Eₕ/Bohr²).

 projected vibrational frequencies (cm⁻¹)
eigval :       -0.00    -0.00    -0.00    -0.00     0.00     0.00
eigval :       98.73   203.79   224.51   237.03   358.47   721.76
eigval :      760.98   814.30   903.03   944.57  1070.30  1085.02
eigval :     1120.83  1217.60  1239.35  1268.34  1338.62  1414.79
eigval :     1452.10  1492.47  1500.01  1503.01  2433.18  2963.81
eigval :     2975.12  2989.39  3003.88  3032.76  3037.88  3044.00
           -------------------------------------------------
          |                Property Printout                |
           -------------------------------------------------

    * Orbital Energies and Occupations

         #    Occupation            Energy/Eh            Energy/eV
      -------------------------------------------------------------
         1        2.0000           -0.7102347             -19.3265
         2        2.0000           -0.6363732             -17.3166
         3        2.0000           -0.6014351             -16.3659
         4        2.0000           -0.5751814             -15.6515
         5        2.0000           -0.5344881             -14.5442
         6        2.0000           -0.5111896             -13.9102
         7        2.0000           -0.4979427             -13.5497
         8        2.0000           -0.4940939             -13.4450
         9        2.0000           -0.4699497             -12.7880
        10        2.0000           -0.4569647             -12.4346
        11        2.0000           -0.4485031             -12.2044
        12        2.0000           -0.4426922             -12.0463
        13        2.0000           -0.3692686             -10.0483 (HOMO)
        14                         -0.2015018              -5.4831 (LUMO)
        15                         -0.1176619              -3.2017
        16                         -0.0139250              -0.3789
        17                         -0.0077851              -0.2118
        18                          0.0054458               0.1482
        19                          0.0948073               2.5798
        20                          0.1224978               3.3333
        21                          0.1344271               3.6579
        22                          0.1442295               3.9247
        23                          0.1664817               4.5302
        24                          0.2099561               5.7132
       ...                                ...                  ...
        29                          0.5323376              14.4856
      -------------------------------------------------------------
                  HL-Gap            0.1677668 Eh            4.5652 eV
             Fermi-level           -0.2853852 Eh           -7.7657 eV

     #   Z          covCN         q      C6AA      α(0)
     1   6          3.753    -0.105    22.563     6.774
     2   6          3.826    -0.052    21.494     6.597
     3   6          3.796     0.003    20.529     6.452
     4  16          1.919    -0.294   153.801    20.873
     5   1          0.925     0.043     2.415     2.430
     6   1          0.925     0.038     2.469     2.457
     7   1          0.925     0.037     2.493     2.469
     8   1          0.924     0.035     2.513     2.479
     9   1          0.924     0.045     2.382     2.414
    10   1          0.925     0.043     2.412     2.429
    11   1          0.925     0.051     2.309     2.376
    12   1          0.923     0.157     1.347     1.815

 Mol. C6AA /au·bohr⁶  :       1466.323969
 Mol. C8AA /au·bohr⁸  :      41233.178812
 Mol. α(0) /au        :         59.565132


Wiberg/Mayer (AO) data.
largest (>0.10) Wiberg bond orders for each atom

 ---------------------------------------------------------------------------
     #   Z sym  total        # sym  WBO       # sym  WBO       # sym  WBO
 ---------------------------------------------------------------------------
     1   6      3.996 --     2      1.013     6      0.988     7      0.988
                             5      0.985
     2   6      3.996 --     3      1.013     1      1.013     9      0.977
                             8      0.977
     3   6      3.975 --     2      1.013     4      0.993    10      0.977
                            11      0.973
     4  16      2.012 --     3      0.993    12      0.964
     5   1      0.998 --     1      0.985
     6   1      0.999 --     1      0.988
     7   1      0.999 --     1      0.988
     8   1      0.999 --     2      0.977
     9   1      0.998 --     2      0.977
    10   1      0.998 --     3      0.977
    11   1      0.997 --     3      0.973
    12   1      0.975 --     4      0.964
 ---------------------------------------------------------------------------

Topologies differ in total number of bonds
Writing topology from bond orders to xtbtopo.mol

molecular dipole:
                 x           y           z       tot (Debye)
 q only:       -0.657      -0.087      -0.311
   full:       -0.919      -0.037      -0.435       2.586
molecular quadrupole (traceless):
                xx          xy          yy          xz          yz          zz
 q only:       -1.648      -0.819       0.907      -1.571       0.687       0.741
  q+dip:       -5.020      -0.395       2.039      -2.140       0.993       2.981
   full:       -4.099      -0.873       1.716      -2.057       1.451       2.383

           -------------------------------------------------
          |                Geometry Summary                 |
           -------------------------------------------------

      molecular mass/u    :       76.1605211
   center of mass at/Å    :        0.0001757      -0.0006186      -0.0003617
  moments of inertia/u·Å² :        0.2121016E+02   0.2127304E+03   0.2220456E+03
rotational constants/cm⁻¹ :        0.7947903E+00   0.7924411E-01   0.7591967E-01

 * 10 selected distances

     #   Z          #   Z                                           value/Å
     1   6          2   6                                         1.5241465 (max)
     2   6          3   6                                         1.5198384
     1   6          5   1                                         1.0870162 (min)
     1   6          6   1                                         1.0876188
     1   6          7   1                                         1.0879793
     2   6          8   1                                         1.0932441
     2   6          9   1                                         1.0919486
     3   6         10   1                                         1.0904914
     3   6         11   1                                         1.0898441
     4  16         12   1                                         1.3315498

 * 3 distinct bonds (by element types)

   Z      Z             #   av. dist./Å        max./Å        min./Å
   1 H    6 C           7     1.0897346     1.0932441     1.0870162
   6 C    6 C           2     1.5219924     1.5241465     1.5198384
   1 H   16 S           1     1.3315498     1.3315498     1.3315498

           -------------------------------------------------
          |               Frequency Printout                |
           -------------------------------------------------
 projected vibrational frequencies (cm⁻¹)
eigval :       -0.00    -0.00    -0.00    -0.00     0.00     0.00
eigval :       98.73   203.79   224.51   237.03   358.47   721.76
eigval :      760.98   814.30   903.03   944.57  1070.30  1085.02
eigval :     1120.83  1217.60  1239.35  1268.34  1338.62  1414.79
eigval :     1452.10  1492.47  1500.01  1503.01  2433.18  2963.81
eigval :     2975.12  2989.39  3003.88  3032.76  3037.88  3044.00
 reduced masses (amu)
    1:      1.87    2:      4.20    3:      4.87    4:      4.62    5:      4.14    6:      7.84
    7:      2.35    8:      1.08    9:      1.97   10:      1.41   11:      3.98   12:      1.87
   13:      1.52   14:      1.16   15:      1.18   16:      1.75   17:      1.24   18:      2.84
   19:      2.14   20:      1.42   21:      1.22   22:      1.10   23:      1.42   24:      1.22
   25:      1.10   26:      1.09   27:      1.05   28:      1.06   29:      1.04   30:      1.09
   31:      1.07   32:      1.07   33:      1.07   34:      1.09   35:      1.08   36:      1.05
 IR intensities (km·mol⁻¹)
    1:      1.12    2:      0.26    3:      0.15    4:      1.68    5:      0.98    6:      0.64
    7:      1.54    8:     30.18    9:      0.50   10:     12.58   11:      1.52   12:      1.10
   13:      2.03   14:     14.48   15:      1.62   16:      6.69   17:      3.93   18:      0.64
   19:      5.33   20:      1.13   21:      9.83   22:      1.73   23:      0.78   24:      1.64
   25:      0.22   26:      0.09   27:      4.51   28:      2.29   29:    135.55   30:     20.29
   31:     13.01   32:     28.60   33:     14.38   34:     45.70   35:     36.89   36:     25.73
 Raman intensities (Ä⁴*amu⁻¹)
    1:      0.00    2:      0.00    3:      0.00    4:      0.00    5:      0.00    6:      0.00
Molecule has no symmetry elements
It seems to be the C1 point group
    7:      0.00    8:      0.00    9:      0.00   10:      0.00   11:      0.00   12:      0.00
   13:      0.00   14:      0.00   15:      0.00   16:      0.00   17:      0.00   18:      0.00
   19:      0.00   20:      0.00   21:      0.00   22:      0.00   23:      0.00   24:      0.00
   25:      0.00   26:      0.00   27:      0.00   28:      0.00   29:      0.00   30:      0.00
   31:      0.00   32:      0.00   33:      0.00   34:      0.00   35:      0.00   36:      0.00
 output can be read by thermo (or use thermo option).
 writing <g98.out> molden fake output.
 recommended (thermochemical) frequency scaling factor: 1.0
           -------------------------------------------------
          |             Thermodynamic Functions             |
           -------------------------------------------------

c1  symmetry found (for desy threshold:  0.10E+00) used in thermo

          ...................................................
          :                      SETUP                      :
          :.................................................:
          :  # frequencies                          30      :
          :  # imaginary freq.                       0      :
          :  linear?                             false      :
          :  only rotor calc.                    false      :
          :  symmetry                               c1      :
          :  rotational number                       1      :
          :  scaling factor                  1.0000000      :
          :  rotor cutoff                    0.0000000 cm⁻¹ :
          :  imag. cutoff                 -100.0000000 cm⁻¹ :
          :.................................................:

    mode    ω/cm⁻¹     T·S(HO)/kcal·mol⁻¹    T·S(FR)/kcal·mol⁻¹   T·S(vib)
   ------------------------------------------------------------------------
       1     98.73    -1.03731 (100.00%)    -0.85465 (  0.00%)    -1.03731
       2    203.79    -0.62571 (100.00%)    -0.64015 (  0.00%)    -0.62571
       3    224.51    -0.57316 (100.00%)    -0.61148 (  0.00%)    -0.57316
       4    237.03    -0.54415 (100.00%)    -0.59541 (  0.00%)    -0.54415
   ------------------------------------------------------------------------

   temp. (K)  partition function   enthalpy   heat capacity  entropy
                                   cal/mol     cal/K/mol   cal/K/mol   J/K/mol
 298.15  VIB   12.9                 2006.617     13.950     11.817
         ROT  0.765E+05              888.727      2.981     25.326
         INT  0.989E+06             2895.344     16.931     37.143
         TR   0.203E+26             1481.212      4.968     38.906
         TOT                        4376.5564    21.8990    76.0490   318.1888

       T/K    H(0)-H(T)+PV         H(T)/Eh          T*S/Eh         G(T)/Eh
   ------------------------------------------------------------------------
    298.15    0.697449E-02    0.108238E+00    0.361333E-01    0.721048E-01
   ------------------------------------------------------------------------

         :::::::::::::::::::::::::::::::::::::::::::::::::::::
         ::                  THERMODYNAMIC                  ::
         :::::::::::::::::::::::::::::::::::::::::::::::::::::
         :: total free energy         -13.671071754873 Eh   ::
         ::.................................................::
         :: total energy              -13.743176588325 Eh   ::
         :: zero point energy           0.101263661703 Eh   ::
         :: G(RRHO) w/o ZPVE           -0.029158828251 Eh   ::
         :: G(RRHO) contrib.            0.072104833451 Eh   ::
         :::::::::::::::::::::::::::::::::::::::::::::::::::::

optimized geometry written to: xtbopt.coord


           -------------------------------------------------
          | TOTAL ENERGY              -13.743176588325 Eh   |
          | TOTAL ENTHALPY            -13.634938440068 Eh   |
          | TOTAL FREE ENERGY         -13.671071754873 Eh   |
          | GRADIENT NORM               0.000061865467 Eh/α |
          | HOMO-LUMO GAP               4.565166326772 eV   |
           -------------------------------------------------

------------------------------------------------------------------------
 * finished run on 2025/04/09 at 01:47:52.494     
------------------------------------------------------------------------
 total:
 * wall-time:     0 d,  0 h,  0 min,  0.246 sec
 *  cpu-time:     0 d,  0 h,  0 min,  0.244 sec
 * ratio c/w:     0.990 speedup
 SCF:
 * wall-time:     0 d,  0 h,  0 min,  0.004 sec
 *  cpu-time:     0 d,  0 h,  0 min,  0.004 sec
 * ratio c/w:     0.989 speedup
 ANC optimizer:
 * wall-time:     0 d,  0 h,  0 min,  0.034 sec
 *  cpu-time:     0 d,  0 h,  0 min,  0.033 sec
 * ratio c/w:     0.982 speedup
 analytical hessian:
 * wall-time:     0 d,  0 h,  0 min,  0.204 sec
 *  cpu-time:     0 d,  0 h,  0 min,  0.202 sec
 * ratio c/w:     0.991 speedup

