      -----------------------------------------------------------      
     |                   =====================                   |     
     |                           x T B                           |     
     |                   =====================                   |     
     |                         S. Grimme                         |     
     |          Mulliken Center for Theoretical Chemistry        |     
     |                    University of Bonn                     |     
      -----------------------------------------------------------      

   * xtb version 6.7.1 (41059b4) compiled by 'michael@archlinux' on 2025-03-24

   xtb is free software: you can redistribute it and/or modify it under
   the terms of the GNU Lesser General Public License as published by
   the Free Software Foundation, either version 3 of the License, or
   (at your option) any later version.
   
   xtb is distributed in the hope that it will be useful,
   but WITHOUT ANY WARRANTY; without even the implied warranty of
   MERCHANTABILITY or FITNESS FOR A PARTICULAR PURPOSE.  See the
   GNU Lesser General Public License for more details.
   
   Cite this work as:
   * C. Bannwarth, E. Caldeweyher, S. Ehlert, A. Hansen, P. Pracht,
     J. Seibert, S. Spicher, S. Grimme, WIREs Comput. Mol. Sci., 2020, 11,
     e01493. DOI: 10.1002/wcms.1493
   
   for GFN2-xTB:
   * C. Bannwarth, S. Ehlert and S. Grimme., J. Chem. Theory Comput., 2019,
     15, 1652-1671. DOI: 10.1021/acs.jctc.8b01176
   for GFN1-xTB:
   * S. Grimme, C. Bannwarth, P. Shushkov, J. Chem. Theory Comput., 2017,
     13, 1989-2009. DOI: 10.1021/acs.jctc.7b00118
   for GFN0-xTB:
   * P. Pracht, E. Caldeweyher, S. Ehlert, S. Grimme, ChemRxiv, 2019, preprint.
     DOI: 10.26434/chemrxiv.8326202.v1
   for GFN-FF:
   * S. Spicher and S. Grimme, Angew. Chem. Int. Ed., 2020, 59, 15665-15673.
     DOI: 10.1002/anie.202004239
   
   for ALPB and GBSA implicit solvation:
   * S. Ehlert, M. Stahn, S. Spicher, S. Grimme, J. Chem. Theory Comput.,
     2021, 17, 4250-4261. DOI: 10.1021/acs.jctc.1c00471
   
   for ddCOSMO and CPCM-X implicit solvation:
   * M. Stahn, S. Ehlert, S. Grimme, J. Phys. Chem. A,
     2023, XX, XXXX-XXXX. DOI: 10.1021/acs.jpca.3c04382
   
   for DFT-D4:
   * E. Caldeweyher, C. Bannwarth and S. Grimme, J. Chem. Phys., 2017,
     147, 034112. DOI: 10.1063/1.4993215
   * E. Caldeweyher, S. Ehlert, A. Hansen, H. Neugebauer, S. Spicher,
     C. Bannwarth and S. Grimme, J. Chem. Phys., 2019, 150, 154122.
     DOI: 10.1063/1.5090222
   * E. Caldeweyher, J.-M. Mewes, S. Ehlert and S. Grimme, Phys. Chem. Chem. Phys.
     2020, 22, 8499-8512. DOI: 10.1039/D0CP00502A
   
   for sTDA-xTB:
   * S. Grimme and C. Bannwarth, J. Chem. Phys., 2016, 145, 054103.
     DOI: 10.1063/1.4959605
   
   in the mass-spec context:
   * V. Asgeirsson, C. Bauer and S. Grimme, Chem. Sci., 2017, 8, 4879.
     DOI: 10.1039/c7sc00601b
   * J. Koopman and S. Grimme, ACS Omega 2019, 4, 12, 15120-15133.
     DOI: 10.1021/acsomega.9b02011
   
   for metadynamics refer to:
   * S. Grimme, J. Chem. Theory Comput., 2019, 155, 2847-2862
     DOI: 10.1021/acs.jctc.9b00143
   
   for SPH calculations refer to:
   * S. Spicher and S. Grimme, J. Chem. Theory Comput., 2021, 17, 1701-1714
     DOI: 10.1021/acs.jctc.0c01306
   
   for ONIOM refer to:
   * C. Plett, A. Katbashev, S. Ehlert, S. Grimme, M. Bursch,
     Phys. Chem. Chem. Phys., 2023, 25, 17860-17868. DOI: 10.1039/D3CP02178E
   
   for DIPRO refer to:
   * J. Kohn, N. Gildemeister, S. Grimme, D. Fazzi, A. Hansen,
     J. Chem. Phys., 2023, just accepted.
   
   for PTB refer to:
   * S. Grimme, M. Mueller, A. Hansen, J. Chem. Phys., 2023, 158, 124111.
     DOI: 10.1063/5.0137838
   
   with help from (in alphabetical order)
   P. Atkinson, C. Bannwarth, F. Bohle, G. Brandenburg, E. Caldeweyher
   M. Checinski, S. Dohm, S. Ehlert, S. Ehrlich, I. Gerasimov, C. Hölzer
   A. Katbashev, J. Kohn, J. Koopman, C. Lavigne, S. Lehtola, F. März, M. Müller,
   F. Musil, H. Neugebauer, J. Pisarek, C. Plett, P. Pracht, F. Pultar,
   J. Seibert, P. Shushkov, S. Spicher, M. Stahn, M. Steiner, T. Strunk,
   J. Stückrath, T. Rose, and J. Unsleber
   
 * started run on 2025/04/09 at 02:46:07.259     
   ID    Z sym.   atoms
    1    6 C      1, 2
    2    8 O      3
    3    1 H      4-7

           -------------------------------------------------
          |                Calculation Setup                |
           -------------------------------------------------

          program call               : /usr/bin/xtb xtb_rrho.coord --gfn2 --ohess vtight --chrg 0 --enso --norestart -I rrho-xcontrol-inp --parallel 1
          coordinate file            : xtb_rrho.coord
          omp threads                :                     1


           -------------------------------------------------
          |                 G F N 2 - x T B                 |
           -------------------------------------------------

        Reference                      10.1021/acs.jctc.8b01176
      * Hamiltonian:
        H0-scaling (s, p, d)           1.850000    2.230000    2.230000
        zeta-weighting                 0.500000
      * Dispersion:
        s8                             2.700000
        a1                             0.520000
        a2                             5.000000
        s9                             5.000000
      * Repulsion:
        kExp                           1.500000    1.000000
        rExp                           1.000000
      * Coulomb:
        alpha                          2.000000
        third order                    shell-resolved
        anisotropic                    true
        a3                             3.000000
        a5                             4.000000
        cn-shift                       1.200000
        cn-exp                         4.000000
        max-rad                        5.000000


          ...................................................
          :                      SETUP                      :
          :.................................................:
          :  # basis functions                  16          :
          :  # atomic orbitals                  16          :
          :  # shells                           10          :
          :  # electrons                        18          :
          :  max. iterations                   250          :
          :  Hamiltonian                  GFN2-xTB          :
          :  restarted?                      false          :
          :  GBSA solvation                  false          :
          :  PC potential                    false          :
          :  electronic temp.          300.0000000     K    :
          :  accuracy                    1.0000000          :
          :  -> integral cutoff          0.2500000E+02      :
          :  -> integral neglect         0.1000000E-07      :
          :  -> SCF convergence          0.1000000E-05 Eh   :
          :  -> wf. convergence          0.1000000E-03 e    :
          :  Broyden damping             0.4000000          :
          :  net charge                          0          :
          :  unpaired electrons                  0          :
          ...................................................

 iter      E             dE          RMSdq      gap      omega  full diag
   1    -10.4314894 -0.104315E+02  0.546E+00    4.67       0.0  T
   2    -10.4644111 -0.329217E-01  0.267E+00    3.64       1.0  T
   3    -10.4683451 -0.393407E-02  0.190E+00    4.09       1.0  T
   4    -10.4720826 -0.373744E-02  0.165E-01    3.85       1.0  T
   5    -10.4721299 -0.473162E-04  0.853E-02    3.88       1.0  T
   6    -10.4721440 -0.141311E-04  0.298E-02    3.87       1.3  T
   7    -10.4721443 -0.300687E-06  0.829E-03    3.87       4.6  T
   8    -10.4721445 -0.209506E-06  0.470E-03    3.87       8.0  T
   9    -10.4721446 -0.101703E-06  0.427E-04    3.87      88.5  T
  10    -10.4721446 -0.218202E-09  0.187E-04    3.87     202.4  T

   *** convergence criteria satisfied after 10 iterations ***

         #    Occupation            Energy/Eh            Energy/eV
      -------------------------------------------------------------
         1        2.0000           -0.7194148             -19.5763
       ...           ...                  ...                  ...
         3        2.0000           -0.5984770             -16.2854
         4        2.0000           -0.5596690             -15.2294
         5        2.0000           -0.5470429             -14.8858
         6        2.0000           -0.5241600             -14.2631
         7        2.0000           -0.4884373             -13.2911
         8        2.0000           -0.4835805             -13.1589
         9        2.0000           -0.4102754             -11.1642 (HOMO)
        10                         -0.2680463              -7.2939 (LUMO)
        11                          0.0810231               2.2048
        12                          0.1360784               3.7029
        13                          0.1695868               4.6147
        14                          0.1776513               4.8341
       ...                                ...                  ...
        16                          0.5821447              15.8410
      -------------------------------------------------------------
                  HL-Gap            0.1422291 Eh            3.8703 eV
             Fermi-level           -0.3391608 Eh           -9.2290 eV

 SCC (total)                   0 d,  0 h,  0 min,  0.002 sec
 SCC setup                      ...        0 min,  0.000 sec (  3.034%)
 Dispersion                     ...        0 min,  0.000 sec (  1.374%)
 classical contributions        ...        0 min,  0.000 sec (  0.549%)
 integral evaluation            ...        0 min,  0.000 sec ( 12.701%)
 iterations                     ...        0 min,  0.001 sec ( 58.105%)
 molecular gradient             ...        0 min,  0.000 sec ( 21.059%)
 printout                       ...        0 min,  0.000 sec (  2.779%)

         :::::::::::::::::::::::::::::::::::::::::::::::::::::
         ::                     SUMMARY                     ::
         :::::::::::::::::::::::::::::::::::::::::::::::::::::
         :: total energy             -10.356288243006 Eh    ::
         :: gradient norm              0.023567266944 Eh/a0 ::
         :: HOMO-LUMO gap              3.870251943620 eV    ::
         ::.................................................::
         :: SCC energy               -10.472144463753 Eh    ::
         :: -> isotropic ES            0.022645469999 Eh    ::
         :: -> anisotropic ES          0.001397744669 Eh    ::
         :: -> anisotropic XC          0.004291997502 Eh    ::
         :: -> dispersion             -0.002036806514 Eh    ::
         :: repulsion energy           0.115856220748 Eh    ::
         :: add. restraining           0.000000000000 Eh    ::
         :: total charge               0.000000000000 e     ::
         :::::::::::::::::::::::::::::::::::::::::::::::::::::

      ----------------------------------------------------------- 
     |                   =====================                   |
     |                        A N C O P T                        |
     |                   =====================                   |
     |               Approximate Normal Coordinate               |
     |                Rational Function Optimizer                |
      ----------------------------------------------------------- 

          ...................................................
          :                      SETUP                      :
          :.................................................:
          :   optimization level         verytight          :
          :   max. optcycles                   200          :
          :   ANC micro-cycles                  20          :
          :   degrees of freedom                15          :
          :.................................................:
          :   RF solver                   davidson          :
          :   write xtbopt.log                true          :
          :   linear?                        false          :
          :   energy convergence         0.1000000E-06 Eh   :
          :   grad. convergence          0.2000000E-03 Eh/α :
          :   maximum RF displ.          1.0000000          :
          :   Hlow (freq-cutoff)         0.1000000E-01      :
          :   Hmax (freq-cutoff)         5.0000000          :
          :   S6 in model hess.         20.0000000          :
          ...................................................

generating ANC from exact Hessian ...
Using Lindh-Hessian (1995)
 Shifting diagonal of input Hessian by    0.0000000000000000     
 Lowest  eigenvalues of input Hessian
    0.000000    0.000000    0.000000    0.000000    0.000000    0.000000
    0.014773    0.037323    0.047433    0.080729    0.103991    0.106777
    0.135006    0.156203    0.252357    0.388733    0.757853    1.064236
 Highest eigenvalues
    0.388733    0.757853    1.064236    1.128165    1.323722    2.147980


........................................................................
.............................. CYCLE    1 ..............................
........................................................................

 iter      E             dE          RMSdq      gap      omega  full diag
   1    -10.4721446 -0.104721E+02  0.132E-05    3.87       0.0  T
   2    -10.4721446 -0.165201E-12  0.894E-06    3.87    4229.9  T
   3    -10.4721446 -0.373035E-13  0.449E-06    3.87    8424.2  T
     SCC iter.                  ...        0 min,  0.000 sec
     gradient                   ...        0 min,  0.000 sec
 * total energy  :   -10.3562882 Eh     change       -0.1573799E-09 Eh
   gradient norm :     0.0235689 Eh/α   predicted     0.0000000E+00 (-100.00%)
   displ. norm   :     0.0516053 α      lambda       -0.6813024E-03
   maximum displ.:     0.0294951 α      in ANC's #4, #10, #8, ...

........................................................................
.............................. CYCLE    2 ..............................
........................................................................

 iter      E             dE          RMSdq      gap      omega  full diag
   1    -10.4787743 -0.104788E+02  0.111E-01    3.94       0.0  T
   2    -10.4787843 -0.999317E-05  0.614E-02    3.93       1.0  T
   3    -10.4787843 -0.129945E-07  0.238E-02    3.93       1.6  T
   4    -10.4787847 -0.436965E-06  0.544E-03    3.93       6.9  T
   5    -10.4787848 -0.894089E-07  0.192E-03    3.93      19.7  T
   6    -10.4787848 -0.419779E-08  0.557E-04    3.93      67.8  T
   7    -10.4787848 -0.841833E-10  0.872E-05    3.93     433.4  T
     SCC iter.                  ...        0 min,  0.000 sec
     gradient                   ...        0 min,  0.000 sec
 * total energy  :   -10.3566839 Eh     change       -0.3956832E-03 Eh
   gradient norm :     0.0047888 Eh/α   predicted    -0.3415606E-03 ( -13.68%)
   displ. norm   :     0.0178909 α      lambda       -0.3617019E-04
   maximum displ.:     0.0151747 α      in ANC's #3, #8, #10, ...

........................................................................
.............................. CYCLE    3 ..............................
........................................................................

 iter      E             dE          RMSdq      gap      omega  full diag
   1    -10.4799227 -0.104799E+02  0.263E-02    3.94       0.0  T
   2    -10.4799234 -0.711051E-06  0.141E-02    3.94       2.7  T
   3    -10.4799234 -0.168279E-07  0.566E-03    3.94       6.7  T
   4    -10.4799234 -0.467863E-08  0.759E-04    3.94      49.8  T
   5    -10.4799234 -0.297520E-09  0.224E-04    3.94     168.6  T
     SCC iter.                  ...        0 min,  0.000 sec
     gradient                   ...        0 min,  0.000 sec
 * total energy  :   -10.3567045 Eh     change       -0.2057714E-04 Eh
   gradient norm :     0.0010424 Eh/α   predicted    -0.1809202E-04 ( -12.08%)
   displ. norm   :     0.0142271 α      lambda       -0.3992757E-05
   maximum displ.:     0.0104010 α      in ANC's #3, #1, #2, ...

........................................................................
.............................. CYCLE    4 ..............................
........................................................................

 iter      E             dE          RMSdq      gap      omega  full diag
   1    -10.4799063 -0.104799E+02  0.219E-02    3.94       0.0  T
   2    -10.4799064 -0.100837E-06  0.131E-02    3.94       2.9  T
   3    -10.4799064  0.822057E-08  0.288E-03    3.94      13.1  T
   4    -10.4799065 -0.195951E-07  0.820E-04    3.94      46.1  T
   5    -10.4799065 -0.165075E-08  0.339E-04    3.94     111.5  T
     SCC iter.                  ...        0 min,  0.000 sec
     gradient                   ...        0 min,  0.000 sec
 * total energy  :   -10.3567036 Eh     change        0.9302075E-06 Eh
   gradient norm :     0.0011655 Eh/α   predicted    -0.1995495E-05 (-314.52%)
   displ. norm   :     0.0124123 α      lambda       -0.5416650E-05
   maximum displ.:     0.0101743 α      in ANC's #1, #2, #3, ...

........................................................................
.............................. CYCLE    5 ..............................
........................................................................

 iter      E             dE          RMSdq      gap      omega  full diag
   1    -10.4797353 -0.104797E+02  0.241E-02    3.94       0.0  T
   2    -10.4797353 -0.221507E-07  0.146E-02    3.94       2.6  T
   3    -10.4797353  0.300305E-08  0.166E-03    3.94      22.8  T
   4    -10.4797353 -0.118668E-07  0.598E-04    3.94      63.2  T
   5    -10.4797353 -0.278856E-09  0.207E-04    3.94     182.3  T
     SCC iter.                  ...        0 min,  0.000 sec
     gradient                   ...        0 min,  0.000 sec
 * total energy  :   -10.3567048 Eh     change       -0.1247893E-05 Eh
   gradient norm :     0.0009417 Eh/α   predicted    -0.2708316E-05 ( 117.03%)
   displ. norm   :     0.0096344 α      lambda       -0.2788680E-05
   maximum displ.:     0.0085346 α      in ANC's #3, #1, #8, ...

........................................................................
.............................. CYCLE    6 ..............................
........................................................................

 iter      E             dE          RMSdq      gap      omega  full diag
   1    -10.4797636 -0.104798E+02  0.120E-02    3.94       0.0  T
   2    -10.4797636 -0.493745E-07  0.710E-03    3.94       5.3  T
   3    -10.4797636  0.251390E-08  0.201E-03    3.94      18.8  T
   4    -10.4797636 -0.720364E-08  0.527E-04    3.94      71.7  T
   5    -10.4797636 -0.755724E-09  0.205E-04    3.94     184.6  T
     SCC iter.                  ...        0 min,  0.000 sec
     gradient                   ...        0 min,  0.000 sec
 * total energy  :   -10.3567064 Eh     change       -0.1541598E-05 Eh
   gradient norm :     0.0003788 Eh/α   predicted    -0.1393856E-05 (  -9.58%)
   displ. norm   :     0.0029816 α      lambda       -0.3071565E-06
   maximum displ.:     0.0027465 α      in ANC's #3, #8, #1, ...

........................................................................
.............................. CYCLE    7 ..............................
........................................................................

 iter      E             dE          RMSdq      gap      omega  full diag
   1    -10.4798136 -0.104798E+02  0.357E-03    3.94       0.0  T
   2    -10.4798136 -0.720009E-08  0.203E-03    3.94      18.6  T
   3    -10.4798136 -0.120748E-09  0.646E-04    3.94      58.5  T
   4    -10.4798136 -0.229480E-09  0.142E-04    3.94     266.8  T
     SCC iter.                  ...        0 min,  0.000 sec
     gradient                   ...        0 min,  0.000 sec
 * total energy  :   -10.3567066 Eh     change       -0.1969733E-06 Eh
   gradient norm :     0.0000692 Eh/α   predicted    -0.1527839E-06 ( -22.43%)
   displ. norm   :     0.0004049 α      lambda       -0.8472675E-08
   maximum displ.:     0.0003061 α      in ANC's #1, #3, #2, ...

........................................................................
.............................. CYCLE    8 ..............................
........................................................................

 iter      E             dE          RMSdq      gap      omega  full diag
   1    -10.4797936 -0.104798E+02  0.766E-04    3.94       0.0  T
   2    -10.4797936 -0.182942E-09  0.445E-04    3.94      84.9  T
   3    -10.4797936  0.156319E-12  0.104E-04    3.94     362.4  T
     SCC iter.                  ...        0 min,  0.000 sec
     gradient                   ...        0 min,  0.000 sec
 * total energy  :   -10.3567066 Eh     change       -0.7085115E-08 Eh
   gradient norm :     0.0000097 Eh/α   predicted    -0.5096697E-08 ( -28.06%)
   displ. norm   :     0.0000506 α      lambda        0.3408359E-08
   maximum displ.:     0.0000337 α      in ANC's #3, #2, #10, ...

   *** GEOMETRY OPTIMIZATION CONVERGED AFTER 8 ITERATIONS ***

------------------------------------------------------------------------
 total energy gain   :        -0.0004183 Eh       -0.2625 kcal/mol
 total RMSD          :         0.0263278 a0        0.0139 Å
 total power (kW/mol):        -0.1372886 (step) -147.0924 (real)
------------------------------------------------------------------------

 ANCopt (total)                0 d,  0 h,  0 min,  0.007 sec
 optimizer setup                ...        0 min,  0.000 sec (  0.503%)
 model hessian                  ...        0 min,  0.000 sec (  1.763%)
 ANC generation                 ...        0 min,  0.000 sec (  0.555%)
 coordinate transformation      ...        0 min,  0.000 sec (  0.224%)
 single point calculation       ...        0 min,  0.007 sec ( 89.058%)
 optimization log               ...        0 min,  0.000 sec (  3.136%)
 hessian update                 ...        0 min,  0.000 sec (  0.250%)
 rational function              ...        0 min,  0.000 sec (  2.413%)

================
 final structure:
================
$coord
       -2.37403232466635       -0.30648782710231       -0.00001635465295      C
        0.23831452089597        0.77040916702790        0.00001556082480      C
        2.15836080755890       -0.42666439286228        0.00032416553157      O
       -3.38377275518381        0.36921072520674        1.65991073569673      H
       -3.38319993340908        0.36809023926840       -1.66075324868285      H
       -2.31805977989383       -2.35909053119513        0.00065763470569      H
        0.27436892854122        2.86614941042071       -0.00035985799315      H
$end

 Bond Distances (Angstroems)
 ---------------------------
C1-C2=1.4952         C1-H4=1.0886         C1-H5=1.0886         C1-H6=1.0866         C2-C1=1.4952         C2-O3=1.1973         
C2-H7=1.1092         O3-C2=1.1973         H4-C1=1.0886         H5-C1=1.0886         H6-C1=1.0866         H7-C2=1.1092         
 C  H  Rav=1.0932 sigma=0.0093  Rmin=1.0866  Rmax=1.1092     4
 C  C  Rav=1.4952 sigma=0.0000  Rmin=1.4952  Rmax=1.4952     1
 O  C  Rav=1.1973 sigma=0.0000  Rmin=1.1973  Rmax=1.1973     1

 selected bond angles (degree)
 --------------------
H4-C1-C2=109.18                H5-C1-C2=109.18                H5-C1-H4=107.63                H6-C1-C2=110.84                
H6-C1-H4=109.97                H6-C1-H5=109.97                O3-C2-C1=125.65                H7-C2-C1=113.39                
H7-C2-O3=120.96                

 selected dihedral angles (degree)
 ---------------------------------
O3-C2-C1-H4=121.30            O3-C2-C1-H5=238.73            O3-C2-C1-H6=  0.00            H7-C2-C1-H4=301.30            
H7-C2-C1-H5= 58.73            H7-C2-C1-H6=180.01            
           -------------------------------------------------
          |                Final Singlepoint                |
           -------------------------------------------------

          ...................................................
          :                      SETUP                      :
          :.................................................:
          :  # basis functions                  16          :
          :  # atomic orbitals                  16          :
          :  # shells                           10          :
          :  # electrons                        18          :
          :  max. iterations                   250          :
          :  Hamiltonian                  GFN2-xTB          :
          :  restarted?                      false          :
          :  GBSA solvation                  false          :
          :  PC potential                    false          :
          :  electronic temp.          300.0000000     K    :
          :  accuracy                    1.0000000          :
          :  -> integral cutoff          0.2500000E+02      :
          :  -> integral neglect         0.1000000E-07      :
          :  -> SCF convergence          0.1000000E-05 Eh   :
          :  -> wf. convergence          0.1000000E-03 e    :
          :  Broyden damping             0.4000000          :
          :  net charge                          0          :
          :  unpaired electrons                  0          :
          ...................................................

 iter      E             dE          RMSdq      gap      omega  full diag
   1    -10.4797936 -0.104798E+02  0.244E-05    3.94       0.0  T
   2    -10.4797936 -0.112621E-11  0.138E-05    3.94    2748.1  T
   3    -10.4797936 -0.364153E-12  0.770E-06    3.94    4907.8  T

   *** convergence criteria satisfied after 3 iterations ***

         #    Occupation            Energy/Eh            Energy/eV
      -------------------------------------------------------------
         1        2.0000           -0.7220541             -19.6481
       ...           ...                  ...                  ...
         3        2.0000           -0.5997762             -16.3207
         4        2.0000           -0.5612522             -15.2724
         5        2.0000           -0.5498948             -14.9634
         6        2.0000           -0.5249522             -14.2847
         7        2.0000           -0.4902123             -13.3394
         8        2.0000           -0.4832566             -13.1501
         9        2.0000           -0.4094696             -11.1422 (HOMO)
        10                         -0.2646379              -7.2012 (LUMO)
        11                          0.0958283               2.6076
        12                          0.1467672               3.9937
        13                          0.1746201               4.7517
        14                          0.1958028               5.3281
       ...                                ...                  ...
        16                          0.6193830              16.8543
      -------------------------------------------------------------
                  HL-Gap            0.1448317 Eh            3.9411 eV
             Fermi-level           -0.3370537 Eh           -9.1717 eV

 SCC (total)                   0 d,  0 h,  0 min,  0.001 sec
 SCC setup                      ...        0 min,  0.000 sec (  3.093%)
 Dispersion                     ...        0 min,  0.000 sec (  1.005%)
 classical contributions        ...        0 min,  0.000 sec (  0.489%)
 integral evaluation            ...        0 min,  0.000 sec ( 22.488%)
 iterations                     ...        0 min,  0.000 sec ( 20.502%)
 molecular gradient             ...        0 min,  0.000 sec ( 46.937%)
 printout                       ...        0 min,  0.000 sec (  4.647%)

         :::::::::::::::::::::::::::::::::::::::::::::::::::::
         ::                     SUMMARY                     ::
         :::::::::::::::::::::::::::::::::::::::::::::::::::::
         :: total energy             -10.356706566824 Eh    ::
         :: gradient norm              0.000009688054 Eh/a0 ::
         :: HOMO-LUMO gap              3.941070724104 eV    ::
         ::.................................................::
         :: SCC energy               -10.479793451161 Eh    ::
         :: -> isotropic ES            0.022271887049 Eh    ::
         :: -> anisotropic ES          0.001426457358 Eh    ::
         :: -> anisotropic XC          0.003987047686 Eh    ::
         :: -> dispersion             -0.002041824443 Eh    ::
         :: repulsion energy           0.123086884337 Eh    ::
         :: add. restraining           0.000000000000 Eh    ::
         :: total charge              -0.000000000000 e     ::
         :::::::::::::::::::::::::::::::::::::::::::::::::::::

           ------------------------------------------------- 
          |                Numerical Hessian                |
           ------------------------------------------------- 
step length          :   0.00500
SCC accuracy         :   0.30000
Hessian scale factor :   1.00000
frozen atoms in %    :   0.00000    0
RMS gradient         :   0.00001
estimated CPU  time      0.00 min
estimated wall time      0.00 min

writing file <hessian>, containing the non-mass-weighted Hessian matrix in atomic units (Eₕ/Bohr²).

 projected vibrational frequencies (cm⁻¹)
eigval :       -0.00    -0.00    -0.00    -0.00     0.00     0.00
eigval :      145.92   501.13   768.69   947.27  1045.58  1107.08
eigval :     1355.29  1389.51  1446.55  1447.89  1800.38  2749.57
eigval :     3019.65  3027.78  3059.50
           -------------------------------------------------
          |                Property Printout                |
           -------------------------------------------------

    * Orbital Energies and Occupations

         #    Occupation            Energy/Eh            Energy/eV
      -------------------------------------------------------------
         1        2.0000           -0.7220542             -19.6481
         2        2.0000           -0.6448144             -17.5463
         3        2.0000           -0.5997762             -16.3207
         4        2.0000           -0.5612522             -15.2724
         5        2.0000           -0.5498948             -14.9634
         6        2.0000           -0.5249522             -14.2847
         7        2.0000           -0.4902123             -13.3394
         8        2.0000           -0.4832566             -13.1501
         9        2.0000           -0.4094696             -11.1422 (HOMO)
        10                         -0.2646379              -7.2012 (LUMO)
        11                          0.0958283               2.6076
        12                          0.1467672               3.9937
        13                          0.1746201               4.7517
        14                          0.1958027               5.3281
        15                          0.2462840               6.7017
        16                          0.6193830              16.8543
      -------------------------------------------------------------
                  HL-Gap            0.1448316 Eh            3.9411 eV
             Fermi-level           -0.3370538 Eh           -9.1717 eV

     #   Z          covCN         q      C6AA      α(0)
     1   6          3.752    -0.139    23.240     6.875
     2   6          2.755     0.220    23.355     7.914
     3   8          0.856    -0.319    20.127     6.015
     4   1          0.925     0.074     2.044     2.236
     5   1          0.925     0.074     2.044     2.236
     6   1          0.925     0.074     2.046     2.237
     7   1          0.922     0.017     2.786     2.610

 Mol. C6AA /au·bohr⁶  :        401.475159
 Mol. C8AA /au·bohr⁸  :       8559.252341
 Mol. α(0) /au        :         30.122371


Wiberg/Mayer (AO) data.
largest (>0.10) Wiberg bond orders for each atom

 ---------------------------------------------------------------------------
     #   Z sym  total        # sym  WBO       # sym  WBO       # sym  WBO
 ---------------------------------------------------------------------------
     1   6      3.994 --     2      1.027     6      0.983     4      0.955
                             5      0.955
     2   6      3.917 --     3      1.930     1      1.027     7      0.932
     3   8      2.097 --     2      1.930
     4   1      0.995 --     1      0.955
     5   1      0.995 --     1      0.955
     6   1      0.995 --     1      0.983
     7   1      1.000 --     2      0.932
 ---------------------------------------------------------------------------

Topologies differ in total number of bonds
Writing topology from bond orders to xtbtopo.mol

molecular dipole:
                 x           y           z       tot (Debye)
 q only:       -0.971       0.277      -0.000
   full:       -1.144       0.422      -0.000       3.100
molecular quadrupole (traceless):
                xx          xy          yy          xz          yz          zz
 q only:       -0.687       0.696       0.507      -0.000       0.000       0.179
  q+dip:       -1.721       0.911       1.401      -0.000      -0.000       0.320
   full:       -1.961       0.971       0.769      -0.000       0.000       1.192

           -------------------------------------------------
          |                Geometry Summary                 |
           -------------------------------------------------

      molecular mass/u    :       44.0526397
   center of mass at/Å    :        0.0000038      -0.0000012       0.0000556
  moments of inertia/u·Å² :        0.8650147E+01   0.4957499E+02   0.5511280E+02
rotational constants/cm⁻¹ :        0.1948826E+01   0.3400431E+00   0.3058751E+00

 * 4 selected distances

     #   Z          #   Z                                           value/Å
     2   6          3   8                                         1.1973403 (max)
     1   6          4   1                                         1.0885502
     1   6          5   1                                         1.0885527
     1   6          6   1                                         1.0865945 (min)

 * 2 distinct bonds (by element types)

   Z      Z             #   av. dist./Å        max./Å        min./Å
   1 H    6 C           3     1.0878991     1.0885527     1.0865945
   6 C    8 O           1     1.1973403     1.1973403     1.1973403

           -------------------------------------------------
          |               Frequency Printout                |
           -------------------------------------------------
 projected vibrational frequencies (cm⁻¹)
eigval :       -0.00    -0.00    -0.00    -0.00     0.00     0.00
eigval :      145.92   501.13   768.69   947.27  1045.58  1107.08
eigval :     1355.29  1389.51  1446.55  1447.89  1800.38  2749.57
eigval :     3019.65  3027.78  3059.50
 reduced masses (amu)
    1:      1.54    2:      4.24    3:      8.69    4:      4.35    5:      7.16    6:      3.43
    7:      1.24    8:      2.75    9:      1.14   10:      2.04   11:      1.74   12:      2.26
   13:      1.21   14:      1.18   15:      1.07   16:      1.06   17:     11.29   18:      1.07
Molecule has the following symmetry elements: (sigma) 
It seems to be the Cs point group
   19:      1.09   20:      1.04   21:      1.08
 IR intensities (km·mol⁻¹)
    1:      4.85    2:      1.80    3:      2.57    4:      3.14    5:      5.87    6:      1.97
    7:      0.04    8:     11.54    9:      2.94   10:     15.30   11:     16.47   12:     60.30
   13:     12.58   14:     46.15   15:     16.15   16:     11.11   17:    300.94   18:    142.70
   19:      6.54   20:      3.33   21:     14.26
 Raman intensities (Ä⁴*amu⁻¹)
    1:      0.00    2:      0.00    3:      0.00    4:      0.00    5:      0.00    6:      0.00
    7:      0.00    8:      0.00    9:      0.00   10:      0.00   11:      0.00   12:      0.00
   13:      0.00   14:      0.00   15:      0.00   16:      0.00   17:      0.00   18:      0.00
   19:      0.00   20:      0.00   21:      0.00
 output can be read by thermo (or use thermo option).
 writing <g98.out> molden fake output.
 recommended (thermochemical) frequency scaling factor: 1.0
           -------------------------------------------------
          |             Thermodynamic Functions             |
           -------------------------------------------------

cs  symmetry found (for desy threshold:  0.10E+00) used in thermo

          ...................................................
          :                      SETUP                      :
          :.................................................:
          :  # frequencies                          15      :
          :  # imaginary freq.                       0      :
          :  linear?                             false      :
          :  only rotor calc.                    false      :
          :  symmetry                               cs      :
          :  rotational number                       1      :
          :  scaling factor                  1.0000000      :
          :  rotor cutoff                    0.0000000 cm⁻¹ :
          :  imag. cutoff                 -100.0000000 cm⁻¹ :
          :.................................................:

    mode    ω/cm⁻¹     T·S(HO)/kcal·mol⁻¹    T·S(FR)/kcal·mol⁻¹   T·S(vib)
   ------------------------------------------------------------------------
       1    145.92    -0.81238 (100.00%)    -0.73836 (  0.00%)    -0.81238
   ------------------------------------------------------------------------

   temp. (K)  partition function   enthalpy   heat capacity  entropy
                                   cal/mol     cal/K/mol   cal/K/mol   J/K/mol
 298.15  VIB   2.29                  685.382      5.340      3.942
         ROT  0.117E+05              888.727      2.981     21.603
         INT  0.268E+05             1574.109      8.321     25.545
         TR   0.895E+25             1481.212      4.968     37.274
         TOT                        3055.3218    13.2888    62.8190   262.8347

       T/K    H(0)-H(T)+PV         H(T)/Eh          T*S/Eh         G(T)/Eh
   ------------------------------------------------------------------------
    298.15    0.486897E-02    0.591162E-01    0.298473E-01    0.292689E-01
   ------------------------------------------------------------------------

         :::::::::::::::::::::::::::::::::::::::::::::::::::::
         ::                  THERMODYNAMIC                  ::
         :::::::::::::::::::::::::::::::::::::::::::::::::::::
         :: total free energy         -10.327437693480 Eh   ::
         ::.................................................::
         :: total energy              -10.356706566824 Eh   ::
         :: zero point energy           0.054247244888 Eh   ::
         :: G(RRHO) w/o ZPVE           -0.024978371544 Eh   ::
         :: G(RRHO) contrib.            0.029268873344 Eh   ::
         :::::::::::::::::::::::::::::::::::::::::::::::::::::

optimized geometry written to: xtbopt.coord


           -------------------------------------------------
          | TOTAL ENERGY              -10.356706566824 Eh   |
          | TOTAL ENTHALPY            -10.297590356753 Eh   |
          | TOTAL FREE ENERGY         -10.327437693480 Eh   |
          | GRADIENT NORM               0.000009694774 Eh/α |
          | HOMO-LUMO GAP               3.941069771597 eV   |
           -------------------------------------------------

------------------------------------------------------------------------
 * finished run on 2025/04/09 at 02:46:07.305     
------------------------------------------------------------------------
 total:
 * wall-time:     0 d,  0 h,  0 min,  0.046 sec
 *  cpu-time:     0 d,  0 h,  0 min,  0.045 sec
 * ratio c/w:     0.991 speedup
 SCF:
 * wall-time:     0 d,  0 h,  0 min,  0.002 sec
 *  cpu-time:     0 d,  0 h,  0 min,  0.002 sec
 * ratio c/w:     0.991 speedup
 ANC optimizer:
 * wall-time:     0 d,  0 h,  0 min,  0.008 sec
 *  cpu-time:     0 d,  0 h,  0 min,  0.008 sec
 * ratio c/w:     0.988 speedup
 analytical hessian:
 * wall-time:     0 d,  0 h,  0 min,  0.032 sec
 *  cpu-time:     0 d,  0 h,  0 min,  0.032 sec
 * ratio c/w:     0.994 speedup

