7
 energy: -10.356288243163 gnorm: 0.023568920808 xtb: 6.7.1 (41059b4)
C           -1.25660703748653       -0.16815500404779        0.00000753842413
C            0.12580505922212        0.41580743151779        0.00007748440151
O            1.14503860242350       -0.23191112622439        0.00006155769866
H           -1.80519144878710        0.19501676472750        0.87790837547286
H           -1.80480211922158        0.19435744363169       -0.87841739722036
H           -1.22057618145742       -1.25844512433839        0.00039127917585
H            0.16591292861206        1.53153201351847       -0.00014597903848
7
 energy: -10.356683926333 gnorm: 0.004788841825 xtb: 6.7.1 (41059b4)
C           -1.25606214799298       -0.16259794211693       -0.00002628520497
C            0.12406389010300        0.41017237638656       -0.00015306425506
O            1.13864744057991       -0.22865929183306        0.00008657814241
H           -1.79511030440455        0.19451276710253        0.87853135443621
H           -1.79482570944780        0.19369564106207       -0.87909380460176
H           -1.21992705800637       -1.24824637176157        0.00046224643620
H            0.15279369247384        1.51932521994528        0.00007583396114
7
 energy: -10.356704503469 gnorm: 0.001042370243 xtb: 6.7.1 (41059b4)
C           -1.25603614157610       -0.16174765442687        0.00007280490390
C            0.12523351813711        0.40836339416909        0.00050133703848
O            1.14045683442356       -0.22671618473134        0.00007385885981
H           -1.79198210235959        0.19460828393956        0.87815698934249
H           -1.79138610591655        0.19433823798467       -0.87849493793865
H           -1.22405782468146       -1.24744842508542        0.00021255930336
H            0.14735162527808        1.51680474693518       -0.00063975259523
7
 energy: -10.356703573262 gnorm: 0.001165490258 xtb: 6.7.1 (41059b4)
C           -1.25628124547275       -0.16201097639591       -0.00037178503327
C            0.12622908037898        0.40750007030577       -0.00241238312983
O            1.14242016077843       -0.22554736019850        0.00021935595114
H           -1.78958289112457        0.19640694470923        0.87791816991035
H           -1.79041765460577        0.19380673435900       -0.87918246067411
H           -1.22726592621692       -1.24834049433755        0.00126735809856
H            0.14447827956764        1.51638748034285        0.00244460379133
7
 energy: -10.356704821155 gnorm: 0.000941660453 xtb: 6.7.1 (41059b4)
C           -1.25643907647887       -0.16233721699727        0.00018396493493
C            0.12666407240545        0.40723714199322        0.00126820258991
O            1.14330795032840       -0.22512785465435        0.00009704773503
H           -1.78997242700966        0.19524555109140        0.87875205143835
H           -1.78904836000586        0.19564586948191       -0.87880684254564
H           -1.22853259075209       -1.24898295935945       -0.00010068404024
H            0.14360023481768        1.51652186722942       -0.00151088119817
7
 energy: -10.356706362753 gnorm: 0.000378848033 xtb: 6.7.1 (41059b4)
C           -1.25624527340046       -0.16218210781566        0.00001133738672
C            0.12589547459377        0.40789939129328        0.00012553806304
O            1.14170825610618       -0.22605451525635        0.00013335474477
H           -1.79111368611600        0.19521186066837        0.87838089781258
H           -1.79073225207506        0.19467896138587       -0.87881129037530
H           -1.22589086394012       -1.24821723821155        0.00032450573984
H            0.14595814813673        1.51686604672092       -0.00028148445749
7
 energy: -10.356706559727 gnorm: 0.000069190748 xtb: 6.7.1 (41059b4)
C           -1.25628082914525       -0.16216791504417       -0.00002272748687
C            0.12612392575756        0.40765617572851       -0.00008892365960
O            1.14217362997481       -0.22576193483600        0.00016263336280
H           -1.79055759506609        0.19542577182943        0.87834882446423
H           -1.79029397635563        0.19474040600457       -0.87883498541501
H           -1.22670150327054       -1.24834992391943        0.00039128110674
H            0.14511615141018        1.51665981902197       -0.00007324345813
7
 energy: -10.356706566812 gnorm: 0.000009651367 xtb: 6.7.1 (41059b4)
C           -1.25628380416405       -0.16218637352218       -0.00000865450963
C            0.12611061348577        0.40768297426308        0.00000823443386
O            1.14215535226959       -0.22578107340712        0.00017154101187
H           -1.79061542892278        0.19537790180093        0.87838693346642
H           -1.79031230469368        0.19478496617722       -0.87883277213856
H           -1.22666440903410       -1.24837694756904        0.00034800529935
H            0.14518978436430        1.51670095104199       -0.00019042864914
