      -----------------------------------------------------------      
     |                   =====================                   |     
     |                           x T B                           |     
     |                   =====================                   |     
     |                         S. Grimme                         |     
     |          Mulliken Center for Theoretical Chemistry        |     
     |                    University of Bonn                     |     
      -----------------------------------------------------------      

   * xtb version 6.7.1 (41059b4) compiled by 'michael@archlinux' on 2025-03-24

   xtb is free software: you can redistribute it and/or modify it under
   the terms of the GNU Lesser General Public License as published by
   the Free Software Foundation, either version 3 of the License, or
   (at your option) any later version.
   
   xtb is distributed in the hope that it will be useful,
   but WITHOUT ANY WARRANTY; without even the implied warranty of
   MERCHANTABILITY or FITNESS FOR A PARTICULAR PURPOSE.  See the
   GNU Lesser General Public License for more details.
   
   Cite this work as:
   * C. Bannwarth, E. Caldeweyher, S. Ehlert, A. Hansen, P. Pracht,
     J. Seibert, S. Spicher, S. Grimme, WIREs Comput. Mol. Sci., 2020, 11,
     e01493. DOI: 10.1002/wcms.1493
   
   for GFN2-xTB:
   * C. Bannwarth, S. Ehlert and S. Grimme., J. Chem. Theory Comput., 2019,
     15, 1652-1671. DOI: 10.1021/acs.jctc.8b01176
   for GFN1-xTB:
   * S. Grimme, C. Bannwarth, P. Shushkov, J. Chem. Theory Comput., 2017,
     13, 1989-2009. DOI: 10.1021/acs.jctc.7b00118
   for GFN0-xTB:
   * P. Pracht, E. Caldeweyher, S. Ehlert, S. Grimme, ChemRxiv, 2019, preprint.
     DOI: 10.26434/chemrxiv.8326202.v1
   for GFN-FF:
   * S. Spicher and S. Grimme, Angew. Chem. Int. Ed., 2020, 59, 15665-15673.
     DOI: 10.1002/anie.202004239
   
   for ALPB and GBSA implicit solvation:
   * S. Ehlert, M. Stahn, S. Spicher, S. Grimme, J. Chem. Theory Comput.,
     2021, 17, 4250-4261. DOI: 10.1021/acs.jctc.1c00471
   
   for ddCOSMO and CPCM-X implicit solvation:
   * M. Stahn, S. Ehlert, S. Grimme, J. Phys. Chem. A,
     2023, XX, XXXX-XXXX. DOI: 10.1021/acs.jpca.3c04382
   
   for DFT-D4:
   * E. Caldeweyher, C. Bannwarth and S. Grimme, J. Chem. Phys., 2017,
     147, 034112. DOI: 10.1063/1.4993215
   * E. Caldeweyher, S. Ehlert, A. Hansen, H. Neugebauer, S. Spicher,
     C. Bannwarth and S. Grimme, J. Chem. Phys., 2019, 150, 154122.
     DOI: 10.1063/1.5090222
   * E. Caldeweyher, J.-M. Mewes, S. Ehlert and S. Grimme, Phys. Chem. Chem. Phys.
     2020, 22, 8499-8512. DOI: 10.1039/D0CP00502A
   
   for sTDA-xTB:
   * S. Grimme and C. Bannwarth, J. Chem. Phys., 2016, 145, 054103.
     DOI: 10.1063/1.4959605
   
   in the mass-spec context:
   * V. Asgeirsson, C. Bauer and S. Grimme, Chem. Sci., 2017, 8, 4879.
     DOI: 10.1039/c7sc00601b
   * J. Koopman and S. Grimme, ACS Omega 2019, 4, 12, 15120-15133.
     DOI: 10.1021/acsomega.9b02011
   
   for metadynamics refer to:
   * S. Grimme, J. Chem. Theory Comput., 2019, 155, 2847-2862
     DOI: 10.1021/acs.jctc.9b00143
   
   for SPH calculations refer to:
   * S. Spicher and S. Grimme, J. Chem. Theory Comput., 2021, 17, 1701-1714
     DOI: 10.1021/acs.jctc.0c01306
   
   for ONIOM refer to:
   * C. Plett, A. Katbashev, S. Ehlert, S. Grimme, M. Bursch,
     Phys. Chem. Chem. Phys., 2023, 25, 17860-17868. DOI: 10.1039/D3CP02178E
   
   for DIPRO refer to:
   * J. Kohn, N. Gildemeister, S. Grimme, D. Fazzi, A. Hansen,
     J. Chem. Phys., 2023, just accepted.
   
   for PTB refer to:
   * S. Grimme, M. Mueller, A. Hansen, J. Chem. Phys., 2023, 158, 124111.
     DOI: 10.1063/5.0137838
   
   with help from (in alphabetical order)
   P. Atkinson, C. Bannwarth, F. Bohle, G. Brandenburg, E. Caldeweyher
   M. Checinski, S. Dohm, S. Ehlert, S. Ehrlich, I. Gerasimov, C. Hölzer
   A. Katbashev, J. Kohn, J. Koopman, C. Lavigne, S. Lehtola, F. März, M. Müller,
   F. Musil, H. Neugebauer, J. Pisarek, C. Plett, P. Pracht, F. Pultar,
   J. Seibert, P. Shushkov, S. Spicher, M. Stahn, M. Steiner, T. Strunk,
   J. Stückrath, T. Rose, and J. Unsleber
   
 * started run on 2025/04/09 at 02:42:47.223     
   ID    Z sym.   atoms
    1    6 C      1
    2    7 N      2
    3    8 O      3, 4
    4    1 H      5-7

           -------------------------------------------------
          |                Calculation Setup                |
           -------------------------------------------------

          program call               : /usr/bin/xtb xtb_rrho.coord --gfn2 --ohess vtight --chrg 0 --enso --norestart -I rrho-xcontrol-inp --parallel 1
          coordinate file            : xtb_rrho.coord
          omp threads                :                     1


           -------------------------------------------------
          |                 G F N 2 - x T B                 |
           -------------------------------------------------

        Reference                      10.1021/acs.jctc.8b01176
      * Hamiltonian:
        H0-scaling (s, p, d)           1.850000    2.230000    2.230000
        zeta-weighting                 0.500000
      * Dispersion:
        s8                             2.700000
        a1                             0.520000
        a2                             5.000000
        s9                             5.000000
      * Repulsion:
        kExp                           1.500000    1.000000
        rExp                           1.000000
      * Coulomb:
        alpha                          2.000000
        third order                    shell-resolved
        anisotropic                    true
        a3                             3.000000
        a5                             4.000000
        cn-shift                       1.200000
        cn-exp                         4.000000
        max-rad                        5.000000


          ...................................................
          :                      SETUP                      :
          :.................................................:
          :  # basis functions                  19          :
          :  # atomic orbitals                  19          :
          :  # shells                           11          :
          :  # electrons                        24          :
          :  max. iterations                   250          :
          :  Hamiltonian                  GFN2-xTB          :
          :  restarted?                      false          :
          :  GBSA solvation                  false          :
          :  PC potential                    false          :
          :  electronic temp.          300.0000000     K    :
          :  accuracy                    1.0000000          :
          :  -> integral cutoff          0.2500000E+02      :
          :  -> integral neglect         0.1000000E-07      :
          :  -> SCF convergence          0.1000000E-05 Eh   :
          :  -> wf. convergence          0.1000000E-03 e    :
          :  Broyden damping             0.4000000          :
          :  net charge                          0          :
          :  unpaired electrons                  0          :
          ...................................................

 iter      E             dE          RMSdq      gap      omega  full diag
   1    -14.5810751 -0.145811E+02  0.681E+00    5.22       0.0  T
   2    -14.7112790 -0.130204E+00  0.270E+00    3.72       1.0  T
   3    -14.7118632 -0.584146E-03  0.165E+00    3.65       1.0  T
   4    -14.7121128 -0.249680E-03  0.149E-01    3.61       1.0  T
   5    -14.7121183 -0.545187E-05  0.737E-02    3.61       1.0  T
   6    -14.7121197 -0.137011E-05  0.149E-02    3.61       2.5  T
   7    -14.7121198 -0.177319E-06  0.375E-03    3.61      10.1  T
   8    -14.7121199 -0.160163E-07  0.157E-03    3.61      24.1  T
   9    -14.7121199 -0.234444E-08  0.727E-04    3.61      52.0  T
  10    -14.7121199 -0.358998E-09  0.667E-05    3.61     566.6  T

   *** convergence criteria satisfied after 10 iterations ***

         #    Occupation            Energy/Eh            Energy/eV
      -------------------------------------------------------------
         1        2.0000           -0.7838388             -21.3293
       ...           ...                  ...                  ...
         6        2.0000           -0.6061348             -16.4938
         7        2.0000           -0.5996264             -16.3167
         8        2.0000           -0.5311900             -14.4544
         9        2.0000           -0.5289527             -14.3935
        10        2.0000           -0.4841812             -13.1752
        11        2.0000           -0.4659735             -12.6798
        12        2.0000           -0.4539943             -12.3538 (HOMO)
        13                         -0.3213135              -8.7434 (LUMO)
        14                         -0.0698210              -1.8999
        15                          0.0988243               2.6891
        16                          0.1589738               4.3259
        17                          0.1635282               4.4498
       ...                                ...                  ...
        19                          0.4031239              10.9696
      -------------------------------------------------------------
                  HL-Gap            0.1326808 Eh            3.6104 eV
             Fermi-level           -0.3876539 Eh          -10.5486 eV

 SCC (total)                   0 d,  0 h,  0 min,  0.002 sec
 SCC setup                      ...        0 min,  0.000 sec (  2.382%)
 Dispersion                     ...        0 min,  0.000 sec (  0.875%)
 classical contributions        ...        0 min,  0.000 sec (  0.466%)
 integral evaluation            ...        0 min,  0.000 sec ( 12.743%)
 iterations                     ...        0 min,  0.001 sec ( 52.480%)
 molecular gradient             ...        0 min,  0.001 sec ( 27.930%)
 printout                       ...        0 min,  0.000 sec (  2.793%)

         :::::::::::::::::::::::::::::::::::::::::::::::::::::
         ::                     SUMMARY                     ::
         :::::::::::::::::::::::::::::::::::::::::::::::::::::
         :: total energy             -14.621335268881 Eh    ::
         :: gradient norm              0.040720148767 Eh/a0 ::
         :: HOMO-LUMO gap              3.610427871794 eV    ::
         ::.................................................::
         :: SCC energy               -14.712119636308 Eh    ::
         :: -> isotropic ES            0.047298742323 Eh    ::
         :: -> anisotropic ES          0.007806005889 Eh    ::
         :: -> anisotropic XC         -0.000600642975 Eh    ::
         :: -> dispersion             -0.002388370400 Eh    ::
         :: repulsion energy           0.090784367427 Eh    ::
         :: add. restraining           0.000000000000 Eh    ::
         :: total charge               0.000000000000 e     ::
         :::::::::::::::::::::::::::::::::::::::::::::::::::::

      ----------------------------------------------------------- 
     |                   =====================                   |
     |                        A N C O P T                        |
     |                   =====================                   |
     |               Approximate Normal Coordinate               |
     |                Rational Function Optimizer                |
      ----------------------------------------------------------- 

          ...................................................
          :                      SETUP                      :
          :.................................................:
          :   optimization level         verytight          :
          :   max. optcycles                   200          :
          :   ANC micro-cycles                  20          :
          :   degrees of freedom                15          :
          :.................................................:
          :   RF solver                   davidson          :
          :   write xtbopt.log                true          :
          :   linear?                        false          :
          :   energy convergence         0.1000000E-06 Eh   :
          :   grad. convergence          0.2000000E-03 Eh/α :
          :   maximum RF displ.          1.0000000          :
          :   Hlow (freq-cutoff)         0.1000000E-01      :
          :   Hmax (freq-cutoff)         5.0000000          :
          :   S6 in model hess.         20.0000000          :
          ...................................................

generating ANC from exact Hessian ...
Using Lindh-Hessian (1995)
 Shifting diagonal of input Hessian by    0.0000000000000000     
 Lowest  eigenvalues of input Hessian
    0.000000    0.000000    0.000000    0.000000    0.000000    0.000000
    0.026672    0.039922    0.052069    0.086163    0.116991    0.118265
    0.148357    0.196276    0.319584    0.612541    0.923318    1.117759
 Highest eigenvalues
    0.612541    0.923318    1.117759    1.205805    1.902688    2.501897


........................................................................
.............................. CYCLE    1 ..............................
........................................................................

 iter      E             dE          RMSdq      gap      omega  full diag
   1    -14.7121199 -0.147121E+02  0.186E-05    3.61       0.0  T
   2    -14.7121199 -0.211386E-12  0.121E-05    3.61    3122.2  T
   3    -14.7121199 -0.497380E-13  0.318E-06    3.61   11880.1  T
     SCC iter.                  ...        0 min,  0.000 sec
     gradient                   ...        0 min,  0.000 sec
 * total energy  :   -14.6213353 Eh     change       -0.2351896E-11 Eh
   gradient norm :     0.0407198 Eh/α   predicted     0.0000000E+00 (-100.00%)
   displ. norm   :     0.0664628 α      lambda       -0.2096595E-02
   maximum displ.:     0.0367818 α      in ANC's #11, #9, #2, ...

........................................................................
.............................. CYCLE    2 ..............................
........................................................................

 iter      E             dE          RMSdq      gap      omega  full diag
   1    -14.7197696 -0.147198E+02  0.214E-01    3.79       0.0  T
   2    -14.7198952 -0.125600E-03  0.980E-02    3.76       1.0  T
   3    -14.7198968 -0.159717E-05  0.596E-02    3.76       1.0  T
   4    -14.7198975 -0.670094E-06  0.874E-03    3.76       4.3  T
   5    -14.7198975 -0.151266E-07  0.440E-03    3.76       8.6  T
   6    -14.7198975 -0.569401E-08  0.876E-04    3.76      43.2  T
   7    -14.7198975 -0.141439E-08  0.433E-04    3.76      87.4  T
     SCC iter.                  ...        0 min,  0.000 sec
     gradient                   ...        0 min,  0.000 sec
 * total energy  :   -14.6226595 Eh     change       -0.1324201E-02 Eh
   gradient norm :     0.0132807 Eh/α   predicted    -0.1052928E-02 ( -20.49%)
   displ. norm   :     0.0590911 α      lambda       -0.5036247E-03
   maximum displ.:     0.0397823 α      in ANC's #2, #5, #11, ...

........................................................................
.............................. CYCLE    3 ..............................
........................................................................

 iter      E             dE          RMSdq      gap      omega  full diag
   1    -14.7227546 -0.147228E+02  0.128E-01    3.84       0.0  T
   2    -14.7227844 -0.297972E-04  0.642E-02    3.83       1.0  T
   3    -14.7227849 -0.556675E-06  0.340E-02    3.83       1.1  T
   4    -14.7227851 -0.165757E-06  0.476E-03    3.83       7.9  T
   5    -14.7227851  0.655191E-09  0.157E-03    3.83      24.1  T
   6    -14.7227851 -0.602035E-08  0.350E-04    3.83     108.0  T
   7    -14.7227851 -0.497113E-10  0.952E-05    3.83     397.0  T
     SCC iter.                  ...        0 min,  0.000 sec
     gradient                   ...        0 min,  0.000 sec
 * total energy  :   -14.6226782 Eh     change       -0.1874387E-04 Eh
   gradient norm :     0.0122527 Eh/α   predicted    -0.2526926E-03 (1248.13%)
   displ. norm   :     0.0425181 α      lambda       -0.3551902E-03
   maximum displ.:     0.0341434 α      in ANC's #2, #5, #7, ...

........................................................................
.............................. CYCLE    4 ..............................
........................................................................

 iter      E             dE          RMSdq      gap      omega  full diag
   1    -14.7222920 -0.147223E+02  0.478E-02    3.82       0.0  T
   2    -14.7222926 -0.616585E-06  0.274E-02    3.82       1.4  T
   3    -14.7222928 -0.117940E-06  0.411E-03    3.82       9.2  T
   4    -14.7222928 -0.543128E-08  0.170E-03    3.82      22.2  T
   5    -14.7222928 -0.714085E-09  0.567E-04    3.82      66.7  T
   6    -14.7222928 -0.108447E-09  0.161E-04    3.82     234.8  T
     SCC iter.                  ...        0 min,  0.000 sec
     gradient                   ...        0 min,  0.000 sec
 * total energy  :   -14.6228402 Eh     change       -0.1619984E-03 Eh
   gradient norm :     0.0048338 Eh/α   predicted    -0.1779149E-03 (   9.83%)
   displ. norm   :     0.0074466 α      lambda       -0.2321814E-04
   maximum displ.:     0.0041761 α      in ANC's #2, #11, #9, ...

........................................................................
.............................. CYCLE    5 ..............................
........................................................................

 iter      E             dE          RMSdq      gap      omega  full diag
   1    -14.7215498 -0.147215E+02  0.237E-02    3.80       0.0  T
   2    -14.7215513 -0.146692E-05  0.106E-02    3.81       3.6  T
   3    -14.7215513 -0.230042E-07  0.630E-03    3.81       6.0  T
   4    -14.7215513 -0.834349E-08  0.989E-04    3.81      38.2  T
   5    -14.7215513 -0.281741E-09  0.514E-04    3.81      73.5  T
     SCC iter.                  ...        0 min,  0.000 sec
     gradient                   ...        0 min,  0.000 sec
 * total energy  :   -14.6228516 Eh     change       -0.1140355E-04 Eh
   gradient norm :     0.0016879 Eh/α   predicted    -0.1161080E-04 (   1.82%)
   displ. norm   :     0.0031024 α      lambda       -0.2857877E-05
   maximum displ.:     0.0018720 α      in ANC's #11, #14, #9, ...

........................................................................
.............................. CYCLE    6 ..............................
........................................................................

 iter      E             dE          RMSdq      gap      omega  full diag
   1    -14.7215551 -0.147216E+02  0.778E-03    3.81       0.0  T
   2    -14.7215552 -0.938163E-07  0.493E-03    3.81       7.7  T
   3    -14.7215552 -0.463569E-08  0.220E-03    3.81      17.1  T
   4    -14.7215552 -0.631468E-09  0.384E-04    3.81      98.5  T
   5    -14.7215552 -0.744240E-10  0.147E-04    3.81     257.0  T
     SCC iter.                  ...        0 min,  0.000 sec
     gradient                   ...        0 min,  0.001 sec
 * total energy  :   -14.6228538 Eh     change       -0.2161819E-05 Eh
   gradient norm :     0.0003733 Eh/α   predicted    -0.1429177E-05 ( -33.89%)
   displ. norm   :     0.0011280 α      lambda       -0.2147961E-06
   maximum displ.:     0.0006864 α      in ANC's #2, #5, #7, ...

........................................................................
.............................. CYCLE    7 ..............................
........................................................................

 iter      E             dE          RMSdq      gap      omega  full diag
   1    -14.7215187 -0.147215E+02  0.177E-03    3.81       0.0  T
   2    -14.7215187 -0.540425E-08  0.935E-04    3.81      40.4  T
   3    -14.7215187 -0.239927E-09  0.451E-04    3.81      83.7  T
     SCC iter.                  ...        0 min,  0.000 sec
     gradient                   ...        0 min,  0.000 sec
 * total energy  :   -14.6228539 Eh     change       -0.1335655E-06 Eh
   gradient norm :     0.0001196 Eh/α   predicted    -0.1074763E-06 ( -19.53%)
   displ. norm   :     0.0003253 α      lambda       -0.1831188E-07
   maximum displ.:     0.0002141 α      in ANC's #2, #10, #5, ...

........................................................................
.............................. CYCLE    8 ..............................
........................................................................

 iter      E             dE          RMSdq      gap      omega  full diag
   1    -14.7215375 -0.147215E+02  0.594E-04    3.81       0.0  T
   2    -14.7215375 -0.563650E-09  0.324E-04    3.81     116.8  T
   3    -14.7215375 -0.212541E-10  0.160E-04    3.81     236.2  T
     SCC iter.                  ...        0 min,  0.000 sec
     gradient                   ...        0 min,  0.000 sec
 * total energy  :   -14.6228539 Eh     change       -0.1427972E-07 Eh
   gradient norm :     0.0000098 Eh/α   predicted    -0.1006565E-07 ( -29.51%)
   displ. norm   :     0.0000563 α      lambda        0.4667400E-10
   maximum displ.:     0.0000484 α      in ANC's #2, #4, #10, ...

   *** GEOMETRY OPTIMIZATION CONVERGED AFTER 8 ITERATIONS ***

------------------------------------------------------------------------
 total energy gain   :        -0.0015187 Eh       -0.9530 kcal/mol
 total RMSD          :         0.0330072 a0        0.0175 Å
 total power (kW/mol):        -0.4984040 (step) -452.6734 (real)
------------------------------------------------------------------------

 ANCopt (total)                0 d,  0 h,  0 min,  0.009 sec
 optimizer setup                ...        0 min,  0.000 sec (  0.469%)
 model hessian                  ...        0 min,  0.000 sec (  1.299%)
 ANC generation                 ...        0 min,  0.000 sec (  0.461%)
 coordinate transformation      ...        0 min,  0.000 sec (  0.182%)
 single point calculation       ...        0 min,  0.008 sec ( 91.559%)
 optimization log               ...        0 min,  0.000 sec (  2.339%)
 hessian update                 ...        0 min,  0.000 sec (  0.189%)
 rational function              ...        0 min,  0.000 sec (  1.772%)

================
 final structure:
================
$coord
        2.60369368367747        0.00135035781881       -0.00381263369225      C
       -0.17142543361161       -0.00015259954412       -0.01010229022846      N
       -1.21051978486886       -2.02730774170903        0.00308422328823      O
       -1.21266515130166        2.02590598186112        0.00293202154758      O
        3.24065215971555        0.00343368664525        1.95575574842917      H
        3.28687464321726        1.70229253120063       -0.93370023837364      H
        3.28873102873284       -1.70039716954177       -0.93084460495505      H
$end

 Bond Distances (Angstroems)
 ---------------------------
C1-N2=1.4685         C1-H5=1.0904         C1-H6=1.0877         C1-H7=1.0877         N2-C1=1.4685         N2-O3=1.2055         
N2-O4=1.2055         O3-N2=1.2055         O4-N2=1.2055         H5-C1=1.0904         H6-C1=1.0877         H7-C1=1.0877         
 C  H  Rav=1.0886 sigma=0.0013  Rmin=1.0877  Rmax=1.0904     3
 N  C  Rav=1.4685 sigma=0.0000  Rmin=1.4685  Rmax=1.4685     1
 O  N  Rav=1.2055 sigma=0.0000  Rmin=1.2055  Rmax=1.2055     2

 selected bond angles (degree)
 --------------------
H5-C1-N2=108.14                H6-C1-N2=109.38                H6-C1-H5=109.07                H7-C1-N2=109.38                
H7-C1-H5=109.07                H7-C1-H6=111.74                O3-N2-C1=117.17                O4-N2-C1=117.17                
O4-N2-O3=125.66                

 selected dihedral angles (degree)
 ---------------------------------
O3-N2-C1-H5=270.39            O3-N2-C1-H6=151.73            O3-N2-C1-H7= 29.05            O4-N2-C1-H5= 89.51            
O4-N2-C1-H6=330.85            O4-N2-C1-H7=208.18            
           -------------------------------------------------
          |                Final Singlepoint                |
           -------------------------------------------------

          ...................................................
          :                      SETUP                      :
          :.................................................:
          :  # basis functions                  19          :
          :  # atomic orbitals                  19          :
          :  # shells                           11          :
          :  # electrons                        24          :
          :  max. iterations                   250          :
          :  Hamiltonian                  GFN2-xTB          :
          :  restarted?                      false          :
          :  GBSA solvation                  false          :
          :  PC potential                    false          :
          :  electronic temp.          300.0000000     K    :
          :  accuracy                    1.0000000          :
          :  -> integral cutoff          0.2500000E+02      :
          :  -> integral neglect         0.1000000E-07      :
          :  -> SCF convergence          0.1000000E-05 Eh   :
          :  -> wf. convergence          0.1000000E-03 e    :
          :  Broyden damping             0.4000000          :
          :  net charge                          0          :
          :  unpaired electrons                  0          :
          ...................................................

 iter      E             dE          RMSdq      gap      omega  full diag
   1    -14.7215375 -0.147215E+02  0.293E-05    3.81       0.0  T
   2    -14.7215375 -0.285993E-12  0.178E-05    3.81    2124.4  T
   3    -14.7215375 -0.639488E-13  0.489E-06    3.81    7736.5  T

   *** convergence criteria satisfied after 3 iterations ***

         #    Occupation            Energy/Eh            Energy/eV
      -------------------------------------------------------------
         1        2.0000           -0.7881105             -21.4456
       ...           ...                  ...                  ...
         6        2.0000           -0.6084926             -16.5579
         7        2.0000           -0.6001231             -16.3302
         8        2.0000           -0.5308495             -14.4452
         9        2.0000           -0.5289715             -14.3940
        10        2.0000           -0.4838288             -13.1657
        11        2.0000           -0.4636502             -12.6166
        12        2.0000           -0.4530259             -12.3275 (HOMO)
        13                         -0.3130753              -8.5192 (LUMO)
        14                         -0.0269420              -0.7331
        15                          0.1098582               2.9894
        16                          0.1558530               4.2410
        17                          0.1639811               4.4622
       ...                                ...                  ...
        19                          0.4501296              12.2487
      -------------------------------------------------------------
                  HL-Gap            0.1399505 Eh            3.8082 eV
             Fermi-level           -0.3830506 Eh          -10.4233 eV

 SCC (total)                   0 d,  0 h,  0 min,  0.001 sec
 SCC setup                      ...        0 min,  0.000 sec (  3.262%)
 Dispersion                     ...        0 min,  0.000 sec (  0.815%)
 classical contributions        ...        0 min,  0.000 sec (  0.372%)
 integral evaluation            ...        0 min,  0.000 sec ( 24.079%)
 iterations                     ...        0 min,  0.000 sec ( 18.847%)
 molecular gradient             ...        0 min,  0.000 sec ( 48.198%)
 printout                       ...        0 min,  0.000 sec (  3.712%)

         :::::::::::::::::::::::::::::::::::::::::::::::::::::
         ::                     SUMMARY                     ::
         :::::::::::::::::::::::::::::::::::::::::::::::::::::
         :: total energy             -14.622853925235 Eh    ::
         :: gradient norm              0.000009132258 Eh/a0 ::
         :: HOMO-LUMO gap              3.808248212378 eV    ::
         ::.................................................::
         :: SCC energy               -14.721537262975 Eh    ::
         :: -> isotropic ES            0.048486269574 Eh    ::
         :: -> anisotropic ES          0.009041018749 Eh    ::
         :: -> anisotropic XC         -0.002077286212 Eh    ::
         :: -> dispersion             -0.002396867703 Eh    ::
         :: repulsion energy           0.098683337740 Eh    ::
         :: add. restraining           0.000000000000 Eh    ::
         :: total charge               0.000000000000 e     ::
         :::::::::::::::::::::::::::::::::::::::::::::::::::::

           ------------------------------------------------- 
          |                Numerical Hessian                |
           ------------------------------------------------- 
step length          :   0.00500
SCC accuracy         :   0.30000
Hessian scale factor :   1.00000
frozen atoms in %    :   0.00000    0
RMS gradient         :   0.00001
estimated CPU  time      0.00 min
estimated wall time      0.00 min

writing file <hessian>, containing the non-mass-weighted Hessian matrix in atomic units (Eₕ/Bohr²).

 projected vibrational frequencies (cm⁻¹)
eigval :       -0.00     0.00     0.00     0.00     0.00     0.00
eigval :       35.60   477.89   609.95   672.09   932.96  1059.39
eigval :     1088.69  1353.72  1375.19  1418.50  1422.86  1710.93
eigval :     3023.58  3051.48  3064.27
           -------------------------------------------------
          |                Property Printout                |
           -------------------------------------------------

    * Orbital Energies and Occupations

         #    Occupation            Energy/Eh            Energy/eV
      -------------------------------------------------------------
         1        2.0000           -0.7881105             -21.4456
         2        2.0000           -0.7670704             -20.8730
         3        2.0000           -0.7143194             -19.4376
         4        2.0000           -0.6620695             -18.0158
         5        2.0000           -0.6360401             -17.3075
         6        2.0000           -0.6084926             -16.5579
         7        2.0000           -0.6001232             -16.3302
         8        2.0000           -0.5308495             -14.4452
         9        2.0000           -0.5289715             -14.3940
        10        2.0000           -0.4838289             -13.1657
        11        2.0000           -0.4636502             -12.6166
        12        2.0000           -0.4530259             -12.3275 (HOMO)
        13                         -0.3130754              -8.5192 (LUMO)
        14                         -0.0269420              -0.7331
        15                          0.1098582               2.9894
        16                          0.1558529               4.2410
        17                          0.1639811               4.4622
        18                          0.2365550               6.4370
        19                          0.4501296              12.2486
      -------------------------------------------------------------
                  HL-Gap            0.1399505 Eh            3.8082 eV
             Fermi-level           -0.3830507 Eh          -10.4233 eV

     #   Z          covCN         q      C6AA      α(0)
     1   6          3.689    -0.132    23.234     6.899
     2   7          2.752     0.567    13.295     5.415
     3   8          0.929    -0.373    21.119     6.163
     4   8          0.929    -0.373    21.119     6.163
     5   1          0.924     0.106     1.728     2.056
     6   1          0.925     0.102     1.766     2.078
     7   1          0.925     0.102     1.766     2.078

 Mol. C6AA /au·bohr⁶  :        465.475627
 Mol. C8AA /au·bohr⁸  :       9590.954942
 Mol. α(0) /au        :         30.852737


Wiberg/Mayer (AO) data.
largest (>0.10) Wiberg bond orders for each atom

 ---------------------------------------------------------------------------
     #   Z sym  total        # sym  WBO       # sym  WBO       # sym  WBO
 ---------------------------------------------------------------------------
     1   6      3.960 --     7      0.974     6      0.974     5      0.951
                             2      0.944
     2   7      3.919 --     3      1.484     4      1.484     1      0.944
     3   8      1.951 --     2      1.484     4      0.377
     4   8      1.951 --     2      1.484     3      0.377
     5   1      0.989 --     1      0.951
     6   1      0.990 --     1      0.974
     7   1      0.990 --     1      0.974
 ---------------------------------------------------------------------------

Topologies differ in total number of bonds
Writing topology from bond orders to xtbtopo.mol

molecular dipole:
                 x           y           z       tot (Debye)
 q only:        1.480       0.001       0.010
   full:        1.607       0.001       0.028       4.085
molecular quadrupole (traceless):
                xx          xy          yy          xz          yz          zz
 q only:        2.298       0.003      -3.443       0.081       0.000       1.145
  q+dip:        1.919       0.004      -4.762       0.165       0.000       2.844
   full:        1.781       0.004      -4.912       0.171       0.000       3.131

           -------------------------------------------------
          |                Geometry Summary                 |
           -------------------------------------------------

      molecular mass/u    :       61.0400712
   center of mass at/Å    :       -0.0000359      -0.0000258       0.0000078
  moments of inertia/u·Å² :        0.4000710E+02   0.4670693E+02   0.8357249E+02
rotational constants/cm⁻¹ :        0.4213660E+00   0.3609236E+00   0.2017127E+00

 * 6 selected distances

     #   Z          #   Z                                           value/Å
     1   6          2   7                                         1.4685339 (max)
     2   7          3   8                                         1.2054617
     2   7          4   8                                         1.2054634
     1   6          5   1                                         1.0903657
     1   6          6   1                                         1.0876661
     1   6          7   1                                         1.0876632 (min)

 * 3 distinct bonds (by element types)

   Z      Z             #   av. dist./Å        max./Å        min./Å
   1 H    6 C           3     1.0885650     1.0903657     1.0876632
   6 C    7 N           1     1.4685339     1.4685339     1.4685339
   7 N    8 O           2     1.2054626     1.2054634     1.2054617

           -------------------------------------------------
          |               Frequency Printout                |
           -------------------------------------------------
 projected vibrational frequencies (cm⁻¹)
eigval :       -0.00     0.00     0.00     0.00     0.00     0.00
Molecule has the following symmetry elements: (sigma) 
It seems to be the Cs point group
eigval :       35.60   477.89   609.95   672.09   932.96  1059.39
eigval :     1088.69  1353.72  1375.19  1418.50  1422.86  1710.93
eigval :     3023.58  3051.48  3064.27
 reduced masses (amu)
    1:     12.03    2:      9.56    3:      5.62    4:      6.39    5:      7.67    6:      3.33
    7:      1.09    8:      3.01    9:      3.34   10:      7.34   11:      7.58   12:      1.58
   13:      1.45   14:      1.51   15:      3.17   16:      1.14   17:      1.06   18:     12.86
   19:      1.08   20:      1.04   21:      1.10
 IR intensities (km·mol⁻¹)
    1:      2.93    2:      2.83    3:      2.19    4:      5.14    5:      1.20    6:      8.88
    7:      0.37    8:      0.20    9:     19.36   10:     30.79   11:     59.89   12:     20.92
   13:      0.14   14:    145.04   15:    120.08   16:     23.18   17:     24.08   18:    519.12
   19:      0.22   20:      0.03   21:      1.41
 Raman intensities (Ä⁴*amu⁻¹)
    1:      0.00    2:      0.00    3:      0.00    4:      0.00    5:      0.00    6:      0.00
    7:      0.00    8:      0.00    9:      0.00   10:      0.00   11:      0.00   12:      0.00
   13:      0.00   14:      0.00   15:      0.00   16:      0.00   17:      0.00   18:      0.00
   19:      0.00   20:      0.00   21:      0.00
 output can be read by thermo (or use thermo option).
 writing <g98.out> molden fake output.
 recommended (thermochemical) frequency scaling factor: 1.0
           -------------------------------------------------
          |             Thermodynamic Functions             |
           -------------------------------------------------

cs  symmetry found (for desy threshold:  0.10E+00) used in thermo

          ...................................................
          :                      SETUP                      :
          :.................................................:
          :  # frequencies                          15      :
          :  # imaginary freq.                       0      :
          :  linear?                             false      :
          :  only rotor calc.                    false      :
          :  symmetry                               cs      :
          :  rotational number                       1      :
          :  scaling factor                  1.0000000      :
          :  rotor cutoff                    0.0000000 cm⁻¹ :
          :  imag. cutoff                 -100.0000000 cm⁻¹ :
          :.................................................:

    mode    ω/cm⁻¹     T·S(HO)/kcal·mol⁻¹    T·S(FR)/kcal·mol⁻¹   T·S(vib)
   ------------------------------------------------------------------------
       1     35.60    -1.63688 (100.00%)    -1.15473 (  0.00%)    -1.63688
   ------------------------------------------------------------------------

   temp. (K)  partition function   enthalpy   heat capacity  entropy
                                   cal/mol     cal/K/mol   cal/K/mol   J/K/mol
 298.15  VIB   7.95                  954.577      6.710      7.320
         ROT  0.302E+05              888.727      2.981     23.479
         INT  0.240E+06             1843.305      9.691     30.800
         TR   0.146E+26             1481.212      4.968     38.247
         TOT                        3324.5172    14.6593    69.0462   288.8892

       T/K    H(0)-H(T)+PV         H(T)/Eh          T*S/Eh         G(T)/Eh
   ------------------------------------------------------------------------
    298.15    0.529796E-02    0.538163E-01    0.328061E-01    0.210102E-01
   ------------------------------------------------------------------------

         :::::::::::::::::::::::::::::::::::::::::::::::::::::
         ::                  THERMODYNAMIC                  ::
         :::::::::::::::::::::::::::::::::::::::::::::::::::::
         :: total free energy         -14.601843697355 Eh   ::
         ::.................................................::
         :: total energy              -14.622853925235 Eh   ::
         :: zero point energy           0.048518344117 Eh   ::
         :: G(RRHO) w/o ZPVE           -0.027508116236 Eh   ::
         :: G(RRHO) contrib.            0.021010227881 Eh   ::
         :::::::::::::::::::::::::::::::::::::::::::::::::::::

optimized geometry written to: xtbopt.coord


           -------------------------------------------------
          | TOTAL ENERGY              -14.622853925235 Eh   |
          | TOTAL ENTHALPY            -14.569037625776 Eh   |
          | TOTAL FREE ENERGY         -14.601843697355 Eh   |
          | GRADIENT NORM               0.000009146505 Eh/α |
          | HOMO-LUMO GAP               3.808248133305 eV   |
           -------------------------------------------------

------------------------------------------------------------------------
 * finished run on 2025/04/09 at 02:42:47.281     
------------------------------------------------------------------------
 total:
 * wall-time:     0 d,  0 h,  0 min,  0.058 sec
 *  cpu-time:     0 d,  0 h,  0 min,  0.057 sec
 * ratio c/w:     0.984 speedup
 SCF:
 * wall-time:     0 d,  0 h,  0 min,  0.002 sec
 *  cpu-time:     0 d,  0 h,  0 min,  0.002 sec
 * ratio c/w:     0.966 speedup
 ANC optimizer:
 * wall-time:     0 d,  0 h,  0 min,  0.010 sec
 *  cpu-time:     0 d,  0 h,  0 min,  0.010 sec
 * ratio c/w:     0.984 speedup
 analytical hessian:
 * wall-time:     0 d,  0 h,  0 min,  0.043 sec
 *  cpu-time:     0 d,  0 h,  0 min,  0.042 sec
 * ratio c/w:     0.986 speedup

