      -----------------------------------------------------------      
     |                   =====================                   |     
     |                           x T B                           |     
     |                   =====================                   |     
     |                         S. Grimme                         |     
     |          Mulliken Center for Theoretical Chemistry        |     
     |                    University of Bonn                     |     
      -----------------------------------------------------------      

   * xtb version 6.7.1 (41059b4) compiled by 'michael@archlinux' on 2025-03-24

   xtb is free software: you can redistribute it and/or modify it under
   the terms of the GNU Lesser General Public License as published by
   the Free Software Foundation, either version 3 of the License, or
   (at your option) any later version.
   
   xtb is distributed in the hope that it will be useful,
   but WITHOUT ANY WARRANTY; without even the implied warranty of
   MERCHANTABILITY or FITNESS FOR A PARTICULAR PURPOSE.  See the
   GNU Lesser General Public License for more details.
   
   Cite this work as:
   * C. Bannwarth, E. Caldeweyher, S. Ehlert, A. Hansen, P. Pracht,
     J. Seibert, S. Spicher, S. Grimme, WIREs Comput. Mol. Sci., 2020, 11,
     e01493. DOI: 10.1002/wcms.1493
   
   for GFN2-xTB:
   * C. Bannwarth, S. Ehlert and S. Grimme., J. Chem. Theory Comput., 2019,
     15, 1652-1671. DOI: 10.1021/acs.jctc.8b01176
   for GFN1-xTB:
   * S. Grimme, C. Bannwarth, P. Shushkov, J. Chem. Theory Comput., 2017,
     13, 1989-2009. DOI: 10.1021/acs.jctc.7b00118
   for GFN0-xTB:
   * P. Pracht, E. Caldeweyher, S. Ehlert, S. Grimme, ChemRxiv, 2019, preprint.
     DOI: 10.26434/chemrxiv.8326202.v1
   for GFN-FF:
   * S. Spicher and S. Grimme, Angew. Chem. Int. Ed., 2020, 59, 15665-15673.
     DOI: 10.1002/anie.202004239
   
   for ALPB and GBSA implicit solvation:
   * S. Ehlert, M. Stahn, S. Spicher, S. Grimme, J. Chem. Theory Comput.,
     2021, 17, 4250-4261. DOI: 10.1021/acs.jctc.1c00471
   
   for ddCOSMO and CPCM-X implicit solvation:
   * M. Stahn, S. Ehlert, S. Grimme, J. Phys. Chem. A,
     2023, XX, XXXX-XXXX. DOI: 10.1021/acs.jpca.3c04382
   
   for DFT-D4:
   * E. Caldeweyher, C. Bannwarth and S. Grimme, J. Chem. Phys., 2017,
     147, 034112. DOI: 10.1063/1.4993215
   * E. Caldeweyher, S. Ehlert, A. Hansen, H. Neugebauer, S. Spicher,
     C. Bannwarth and S. Grimme, J. Chem. Phys., 2019, 150, 154122.
     DOI: 10.1063/1.5090222
   * E. Caldeweyher, J.-M. Mewes, S. Ehlert and S. Grimme, Phys. Chem. Chem. Phys.
     2020, 22, 8499-8512. DOI: 10.1039/D0CP00502A
   
   for sTDA-xTB:
   * S. Grimme and C. Bannwarth, J. Chem. Phys., 2016, 145, 054103.
     DOI: 10.1063/1.4959605
   
   in the mass-spec context:
   * V. Asgeirsson, C. Bauer and S. Grimme, Chem. Sci., 2017, 8, 4879.
     DOI: 10.1039/c7sc00601b
   * J. Koopman and S. Grimme, ACS Omega 2019, 4, 12, 15120-15133.
     DOI: 10.1021/acsomega.9b02011
   
   for metadynamics refer to:
   * S. Grimme, J. Chem. Theory Comput., 2019, 155, 2847-2862
     DOI: 10.1021/acs.jctc.9b00143
   
   for SPH calculations refer to:
   * S. Spicher and S. Grimme, J. Chem. Theory Comput., 2021, 17, 1701-1714
     DOI: 10.1021/acs.jctc.0c01306
   
   for ONIOM refer to:
   * C. Plett, A. Katbashev, S. Ehlert, S. Grimme, M. Bursch,
     Phys. Chem. Chem. Phys., 2023, 25, 17860-17868. DOI: 10.1039/D3CP02178E
   
   for DIPRO refer to:
   * J. Kohn, N. Gildemeister, S. Grimme, D. Fazzi, A. Hansen,
     J. Chem. Phys., 2023, just accepted.
   
   for PTB refer to:
   * S. Grimme, M. Mueller, A. Hansen, J. Chem. Phys., 2023, 158, 124111.
     DOI: 10.1063/5.0137838
   
   with help from (in alphabetical order)
   P. Atkinson, C. Bannwarth, F. Bohle, G. Brandenburg, E. Caldeweyher
   M. Checinski, S. Dohm, S. Ehlert, S. Ehrlich, I. Gerasimov, C. Hölzer
   A. Katbashev, J. Kohn, J. Koopman, C. Lavigne, S. Lehtola, F. März, M. Müller,
   F. Musil, H. Neugebauer, J. Pisarek, C. Plett, P. Pracht, F. Pultar,
   J. Seibert, P. Shushkov, S. Spicher, M. Stahn, M. Steiner, T. Strunk,
   J. Stückrath, T. Rose, and J. Unsleber
   
 * started run on 2025/04/09 at 04:19:16.119     
   ID    Z sym.   atoms
    1    6 C      1, 2
    2   17 Cl     3-7
    3    1 H      8

           -------------------------------------------------
          |                Calculation Setup                |
           -------------------------------------------------

          program call               : /usr/bin/xtb xtb_opt.coord --opt normal --orca -I xtb_opt-xcontrol-inp
          coordinate file            : xtb_opt.coord
          omp threads                :                    16

           -------------------------------------------------
          |                   Orca driver                   |
           -------------------------------------------------
orca executable           : /home/michael/Documents/CHEM4561/orca_avx2/orca
orca input file           : xtb_opt.inp
orca input line           : 
orca parallel             : true
orca number of threads    : 16
                         * ORCA takes the control...
  ------------------------------------------------------------------------

                                 *****************
                                 * O   R   C   A *
                                 *****************

                                            #,                                       
                                            ###                                      
                                            ####                                     
                                            #####                                    
                                            ######                                   
                                           ########,                                 
                                     ,,################,,,,,                         
                               ,,#################################,,                 
                          ,,##########################################,,             
                       ,#########################################, ''#####,          
                    ,#############################################,,   '####,        
                  ,##################################################,,,,####,       
                ,###########''''           ''''###############################       
              ,#####''   ,,,,##########,,,,          '''####'''          '####       
            ,##' ,,,,###########################,,,                        '##       
           ' ,,###''''                  '''############,,,                           
         ,,##''                                '''############,,,,        ,,,,,,###''
      ,#''                                            '''#######################'''  
     '                                                          ''''####''''         
             ,#######,   #######,   ,#######,      ##                                
            ,#'     '#,  ##    ##  ,#'     '#,    #''#        ,####,   ,####,        
            ##       ##  ##   ,#'  ##            #'  '#       #'       #'  '#        
            ##       ##  #######   ##           ,######,      #####,   #    #        
            '#,     ,#'  ##    ##  '#,     ,#' ,#      #,     #,   #   #,  ,#        
             '#######'   ##     ##  '#######'  #'      '#     '####' # '####'        



                #########################################################
                #                        -***-                          #
                #          Department of theory and spectroscopy        #
                #                                                       #
                #                      Frank Neese                      #
                #                                                       #
                #     Directorship, Architecture, Infrastructure        #
                #                    SHARK, DRIVERS                     #
                #        Core code/Algorithms in most modules           #
                #                                                       #
                #        Max Planck Institute fuer Kohlenforschung      #
                #                Kaiser Wilhelm Platz 1                 #
                #                 D-45470 Muelheim/Ruhr                 #
                #                      Germany                          #
                #                                                       #
                #                  All rights reserved                  #
                #                        -***-                          #
                #########################################################


                         Program Version 6.0.1  -  RELEASE   -


 With contributions from (in alphabetic order):
[Max-Planck-Institut fuer Kohlenforschung]                               
  Daniel Aravena         : Magnetic Suceptibility                        
  Michael Atanasov       : Ab Initio Ligand Field Theory (pilot matlab implementation)
  Alexander A. Auer      : GIAO ZORA, VPT2 properties, NMR spectrum      
  Ute Becker             : All parallelization in ORCA, NUMFREQ, NUMCALC 
  Giovanni Bistoni       : ED, misc. LED, open-shell LED, HFLD           
  Martin Brehm           : Molecular dynamics                            
  Dmytro Bykov           : pre 5.0 version of the SCF Hessian            
  Marcos Casanova-Páez   : Triplet and SCS-CIS(D). UHF-(DLPNO)-IP/EA/STEOM-CCSD. UHF-CVS-IP/STEOM-CCSD   
  Vijay G. Chilkuri      : MRCI spin determinant printing, contributions to CSF-ICE 
  Pauline Colinet        : FMM embedding                                 
  Dipayan Datta          : RHF DLPNO-CCSD density                        
  Achintya Kumar Dutta   : EOM-CC, STEOM-CC                              
  Nicolas Foglia         : Exact transition moments, OPA infrastructure, MCD improvements    
  Dmitry Ganyushin       : Spin-Orbit,Spin-Spin,Magnetic field MRCI      
  Miquel Garcia-Rates    : C-PCM and meta-GGA Hessian, CCSD/C-PCM, Gaussian charge scheme 
  Tiago L. C. Gouveia    : GS-ROHF, GS-ROCIS                             
  Yang Guo               : DLPNO-NEVPT2, F12-NEVPT2, CIM, IAO-localization        
  Andreas Hansen         : Spin unrestricted coupled pair/coupled cluster methods 
  Ingolf Harden          : AUTO-CI MPn and infrastructure                
  Benjamin Helmich-Paris : MC-RPA, TRAH-(SCF,CASSCF), AVAS, COSX integrals, SCF dyn. polar. 
  Lee Huntington         : MR-EOM, pCC                                   
  Robert Izsak           : Overlap fitted RIJCOSX, COSX-SCS-MP3, EOM     
  Riya Kayal             : Wick's Theorem for AUTO-CI, AUTO-CI UHF-CCSDT 
  Emily Kempfer          : AUTO-CI, RHF CISDT and CCSDT                  
  Christian Kollmar      : KDIIS, OOCD, Brueckner-CCSD(T), CCSD density, CASPT2, CASPT2-K, improved NEVPT2 
  Axel Koslowski         : Symmetry handling                             
  Simone Kossmann        : meta-GGA functionals, TD-DFT gradient, OOMP2, (MP2 Hessian; deprecated post 5.0) 
  Lucas Lang             : DCDCAS                                        
  Marvin Lechner         : AUTO-CI (C++ implementation), FIC-MRCC        
  Spencer Leger          : CASSCF response                               
  Dagmar Lenk            : GEPOL surface, SMD, ORCA-2-JSON               
  Dimitrios Liakos       : Extrapolation schemes; Compound Job, initial MDCI parallelization 
  Dimitrios Manganas     : Further ROCIS development; embedding schemes. LFT, Crystal Embedding 
  Dimitrios Pantazis     : SARC Basis sets                               
  Anastasios Papadopoulos: AUTO-CI, single reference methods and gradients 
  Taras Petrenko         : pre 6.0 DFT Hessian and TD-DFT gradient, (ASA, deprecated), ECA, 1-Electron XAS/XES, NRVS 
  Peter Pinski           : DLPNO-MP2, DLPNO-MP2 Gradient                 
  Christoph Reimann      : Effective Core Potentials                     
  Marius Retegan         : Local ZFS, SOC                                
  Christoph Riplinger    : Optimizer, TS searches, QM/MM, DLPNO-CCSD(T), (RO)-DLPNO pert. Triples 
  Michael Roemelt        : Original ROCIS implementation                 
  Masaaki Saitow         : Open-shell DLPNO-CCSD energy and density      
  Barbara Sandhoefer     : DKH picture change effects                    
  Kantharuban Sivalingam : CASSCF convergence/infrastructure, NEVPT2 and variants, FIC-MRCI 
  Bernardo de Souza      : ESD, SOC TD-DFT                               
  Georgi L. Stoychev     : AutoAux, RI-MP2 NMR, DLPNO-MP2 response, X2C  
  Van Anh Tran           : RI-MP2 g-tensors                              
  Willem Van den Heuvel  : Paramagnetic NMR                              
  Zikuan Wang            : NOTCH, Electric field optimization            
  Frank Wennmohs         : Technical directorship and infrastructure     
  Hang Xu                : AUTO-CI-Response properties                   
                                                                         
[FACCTs GmbH]                                                            
  Markus Bursch, Miquel Garcia-Rates, Christoph Riplinger, Bernardo de Souza, Georgi L. Stoychev 
                                                                 
  APM, Basis sets (HGBS, AHGBS, def-TZVP (Ac-Lr), def2-XVPD (La-Lu)), CI-OPT, improved COSX, DLPNO-Multilevel,           
  DOCKER, DRACO, updates on ESD, GOAT, IRC, LR-CPCM, MBIS, meta-GGA TD-DFT gradient, ML-optimized integration grids, 
  MM, NACMEs, nearIR, NEB, NEB-TS, NL-DFT gradient (VV10), 2- and 3-layer-ONIOM, interface openCOSMO-RS, QMMM,   
  Crystal-QMMM, SF, symmetry and pop. for TD-DFT, r2SCAN hybrids, SOLVATOR                                   
                                                                         
[Other institutions]                                                     
  V. Asgeirsson          : NEB                                           
  Christoph Bannwarth    : sTDA-DFT, sTD-DFT, PBEh-3c, B97-3c, D3        
  Sebastian Ehlert       : rSCAN, r2SCAN, r2SCAN-3c, D4, dhf basis sets  
  Marvin Friede          : D4 for Fr, Ra, Ac-Lr                          
  Lars Goerigk           : TD-DFT with DH, B97 family of functionals     
  Stefan Grimme          : VdW corrections, initial TS optimization, DFT functionals, gCP, sTDA/sTD-DF 
  Waldemar Hujo          : DFT-NL                                        
  H. Jonsson             : NEB                                           
  Holger Kruse           : gCP                                           
  Marcel Mueller         : wB97X-3c, vDZP basis set                      
  Hagen Neugebauer       : wr2SCAN                                       
  Tobias Risthaus        : range-separated hybrid DFT                    
  Lukas Wittmann         : regularized MP2, r2SCAN double-hybrids, wr2SCAN        
                                                                         
We gratefully acknowledge several colleagues who have allowed us to      
interface, adapt or use parts of their codes:                            
  Ed Valeev, F. Pavosevic, A. Kumar             : LibInt (2-el integral package), F12 methods 
  Garnet Chan, S. Sharma, J. Yang, R. Olivares  : DMRG                   
  Ulf Ekstrom                                   : XCFun DFT Library      
  Mihaly Kallay                                 : mrcc  (arbitrary order and MRCC methods)
  Frank Weinhold                                : gennbo (NPA and NBO analysis)           
  Simon Mueller                                 : openCOSMO-RS                            
  Christopher J. Cramer and Donald G. Truhlar   : smd solvation model                     
  S Lehtola, MJT Oliveira, MAL Marques          : LibXC Library                           
  Liviu Ungur et al                             : ANISO software                          


 Your calculation uses the libint2 library for the computation of 2-el integrals
 For citations please refer to: http://libint.valeyev.net

 Your ORCA version has been built with support for libXC version: 6.2.2
 For citations please refer to: https://libxc.gitlab.io

 This ORCA versions uses:
   CBLAS   interface :  Fast vector & matrix operations
   LAPACKE interface :  Fast linear algebra routines
   SCALAPACK package :  Parallel linear algebra routines
   Shared memory     :  Shared parallel matrices
   BLAS/LAPACK       :  OpenBLAS 0.3.27  USE64BITINT DYNAMIC_ARCH NO_AFFINITY Zen SINGLE_THREADED
        Core in use  :  Zen
   Copyright (c) 2011-2014, The OpenBLAS Project




***************************************
The coordinates will be read from file: xtb_opt.xyz
***************************************


Your calculation utilizes the geometrical counterpoise correction gCP
Please cite in your paper:
H.Kruse, S. Grimme J.Chem.Phys., 136, (2012), 154101 
   

Your calculation utilizes the atom-pairwise dispersion correction
based on EEQ partial charges (D4)


================================================================================

----- Orbital basis set information -----
Your calculation utilizes the basis: def2-mTZVPP
   Stefan Grimme, Andreas Hansen, Sebastian Ehlert, and Jan-Michael Mewes 
   J. Chem. Phys. 154, 064103 (2021). DOI: 10.1063/5.0040021

----- AuxJ basis set information -----
Your calculation utilizes the auxiliary basis: def2/J
   F. Weigend, Phys. Chem. Chem. Phys. 8, 1057 (2006).

================================================================================
                                        WARNINGS
                       Please study these warnings very carefully!
================================================================================

WARNING: Old DensityContainer found on disk!
         Will remove this file - 
         If you want to keep old densities, please start your calculation with a different basename. 



WARNING: SCAN, rSCAN, or r2SCAN functional requested.
  ===> : libXC variant has now been activated.



================================================================================
                                       INPUT FILE
================================================================================
NAME = xtb_opt.inp
|  1> ! r2scan-3c def2/J RI DEFGRID2 scfconv7 ENGRAD tightSCF miniprint
|  2> * xyzfile 0 1 xtb_opt.xyz
|  3> 
|  4>                          ****END OF INPUT****
================================================================================

                     *******************************
                     * Energy+Gradient Calculation *
                     *******************************

---------------------------------
CARTESIAN COORDINATES (ANGSTROEM)
---------------------------------
  C     -0.783863    0.000012    0.668175
  C      0.593975   -0.000211    0.019097
  Cl     1.484111   -1.442871    0.547793
  Cl     1.484561    1.442145    0.548516
  Cl     0.464058    0.000463   -1.743406
  Cl    -1.674045    1.451422    0.182174
  Cl    -1.674603   -1.451095    0.182111
  H     -0.694758    0.000149    1.757809

----------------------------
CARTESIAN COORDINATES (A.U.)
----------------------------
  NO LB      ZA    FRAG     MASS         X           Y           Z
   0 C     6.0000    0    12.011   -1.481287    0.000023    1.262667
   1 C     6.0000    0    12.011    1.122451   -0.000399    0.036089
   2 Cl   17.0000    0    35.453    2.804563   -2.726631    1.035178
   3 Cl   17.0000    0    35.453    2.805414    2.725258    1.036545
   4 Cl   17.0000    0    35.453    0.876943    0.000874   -3.294559
   5 Cl   17.0000    0    35.453   -3.163486    2.742790    0.344260
   6 Cl   17.0000    0    35.453   -3.164541   -2.742172    0.344139
   7 H     1.0000    0     1.008   -1.312902    0.000282    3.321777

------------------------------------------------------------------------------
                   ___                                                        
                  /   \      - P O W E R E D   B Y -                         
                 /     \                                                     
                 |  |  |   _    _      __       _____    __    __             
                 |  |  |  | |  | |    /  \     |  _  \  |  |  /  |          
                  \  \/   | |  | |   /    \    | | | |  |  | /  /          
                 / \  \   | |__| |  /  /\  \   | |_| |  |  |/  /          
                |  |  |   |  __  | /  /__\  \  |    /   |      \           
                |  |  |   | |  | | |   __   |  |    \   |  |\   \          
                \     /   | |  | | |  |  |  |  | |\  \  |  | \   \       
                 \___/    |_|  |_| |__|  |__|  |_| \__\ |__|  \__/        
                                                                              
                      - O R C A' S   B I G   F R I E N D -                    
                                      &                                       
                       - I N T E G R A L  F E E D E R -                       
                                                                              
 v1 FN, 2020, v2 2021, v3 2022-2024                                           
------------------------------------------------------------------------------


----------------------
SHARK INTEGRAL PACKAGE
----------------------

Number of atoms                             ...      8
Number of basis functions                   ...    178
Number of shells                            ...     76
Maximum angular momentum                    ...      2
Integral batch strategy                     ... SHARK/LIBINT Hybrid
RI-J (if used) integral strategy            ... SPLIT-RIJ (Revised 2003 algorithm where possible)
Printlevel                                  ...      1
Contraction scheme used                     ... SEGMENTED contraction
Prescreening option                         ... SCHWARTZ
   Thresh                                   ... 3.000e-11
   Tcut                                     ... 1.000e-12
   Tpresel                                  ... 1.000e-12 
Coulomb Range Separation                    ... NOT USED
Exchange Range Separation                   ... NOT USED
Multipole approximations                    ... NOT USED
Finite Nucleus Model                        ... NOT USED
CABS basis                                  ... NOT available
Auxiliary Coulomb fitting basis             ... AVAILABLE
   # of basis functions in Aux-J            ...    364
   # of shells in Aux-J                     ...    120
   Maximum angular momentum in Aux-J        ...      4
Auxiliary J/K fitting basis                 ... NOT available
Auxiliary Correlation fitting basis         ... NOT available
Auxiliary 'external' fitting basis          ... NOT available

Checking pre-screening integrals            ... done (  0.0 sec) Dimension = 76
Check shell pair data                       ... done (  0.0 sec)
Shell pair information
Shell pair cut-off parameter TPreSel        ...   1.0e-12
Total number of shell pairs                 ...      2926
Shell pairs after pre-screening             ...      2632
Total number of primitive shell pairs       ...     14108
Primitive shell pairs kept                  ...      8403
          la=0 lb=0:    557 shell pairs
          la=1 lb=0:    884 shell pairs
          la=1 lb=1:    361 shell pairs
          la=2 lb=0:    432 shell pairs
          la=2 lb=1:    320 shell pairs
          la=2 lb=2:     78 shell pairs

Calculating one electron integrals          ... done (  0.0 sec)
Calculating RI/J V-Matrix + Cholesky decomp.... done (  0.0 sec)
Calculating Nuclear repulsion               ... done (  0.0 sec) ENN=    759.155573161665 Eh

Diagonalization of the overlap matrix:
Smallest eigenvalue                        ... 4.832e-04
Time for diagonalization                   ...    0.002 sec
Threshold for overlap eigenvalues          ... 1.000e-07
Number of eigenvalues below threshold      ... 0
Time for construction of square roots      ...    0.001 sec
Total time needed                          ...    0.003 sec

-------------------
DFT GRID GENERATION
-------------------

General Integration Accuracy     IntAcc      ... 4.388
Radial Grid Type                 RadialGrid  ... OptM3 with GC (2021)
Angular Grid (max. ang.)         AngularGrid ... 4 (Lebedev-302)
Angular grid pruning method      GridPruning ... 4 (adaptive)
Weight generation scheme         WeightScheme... mBecke (2022)
Basis function cutoff            BFCut       ... 1.0000e-11
Integration weight cutoff        WCut        ... 1.0000e-14
Partially contracted basis set               ... off
Rotationally invariant grid construction     ... off
Angular grids for H and He will be reduced by one unit

Total number of grid points                  ...    51943
Total number of batches                      ...      817
Average number of points per batch           ...       63
Average number of grid points per atom       ...     6493
Initializing property integral containers    ... done (  0.0 sec)

SHARK setup successfully completed in   0.3 seconds

Maximum memory used throughout the entire STARTUP-calculation: 25.8 MB
Occupation numbers will be reassigned to an Aufbau configuration
             **** ENERGY FILE WAS UPDATED (xtb_opt.en.tmp) ****
Finished Guess after   0.0 sec
Maximum memory used throughout the entire GUESS-calculation: 13.0 MB
----------------------------------------D-I-I-S--------------------------------------------
Iteration    Energy (Eh)           Delta-E    RMSDP     MaxDP     DIISErr   Damp  Time(sec)
-------------------------------------------------------------------------------------------
               ***  Starting incremental Fock matrix formation  ***
                              *** Initializing SOSCF ***
---------------------------------------S-O-S-C-F--------------------------------------
Iteration    Energy (Eh)           Delta-E    RMSDP     MaxDP     MaxGrad    Time(sec)
--------------------------------------------------------------------------------------
    1    -2377.6682535054137588     0.00e+00  3.12e-06  8.38e-05  1.14e-05     0.7
               *** Restarting incremental Fock matrix formation ***
    2    -2377.6682535207737601    -1.54e-08  3.34e-06  7.14e-05  3.23e-05     0.7
    3    -2377.6682534769597623     4.38e-08  2.21e-06  5.75e-05  7.78e-05     0.5
                 **** Energy Check signals convergence ****

               *****************************************************
               *                     SUCCESS                       *
               *           SCF CONVERGED AFTER   3 CYCLES          *
               *****************************************************

             **** ENERGY FILE WAS UPDATED (xtb_opt.en.tmp) ****

----------------
TOTAL SCF ENERGY
----------------

Total Energy       :      -2377.66825347695976 Eh          -64699.64244 eV

Components:
Nuclear Repulsion  :        759.15557316166496 Eh           20657.67336 eV
Electronic Energy  :      -3136.82382663862472 Eh          -85357.31580 eV
One Electron Energy:      -4793.27812841913055 Eh         -130431.72890 eV
Two Electron Energy:       1656.45430178050583 Eh           45074.41309 eV

Virial components:
Potential Energy   :      -4749.84117842827436 Eh         -129249.74940 eV
Kinetic Energy     :       2372.17292495131460 Eh           64550.10695 eV
Virial Ratio       :          2.00231658007215

DFT components:
N(Alpha)           :       48.999999416498 electrons
N(Beta)            :       48.999999416498 electrons
N(Total)           :       97.999998832995 electrons
E(X)               :     -148.509030225912 Eh       
E(C)               :       -3.761897428217 Eh       
E(XC)              :     -152.270927654129 Eh       

---------------
SCF CONVERGENCE
---------------

  Last Energy change         ...   -4.3814e-08  Tolerance :   1.0000e-07
  Last MAX-Density change    ...    5.7485e-05  Tolerance :   1.0000e-07
  Last RMS-Density change    ...    2.2106e-06  Tolerance :   5.0000e-09
  Last DIIS Error            ...    7.4688e-05  Tolerance :   1.0000e-07
  Last Orbital Gradient      ...    7.7806e-05  Tolerance :   1.0000e-04
  Last Orbital Rotation      ...    5.6588e-05  Tolerance :   1.0000e-04


----------------
ORBITAL ENERGIES
----------------

  NO   OCC          E(Eh)            E(eV) 
   0   2.0000    -101.250610     -2755.1692 
   1   2.0000    -101.250577     -2755.1683 
   2   2.0000    -101.246991     -2755.0707 
   3   2.0000    -101.242176     -2754.9397 
   4   2.0000    -101.242167     -2754.9394 
   5   2.0000     -10.250194      -278.9220 
   6   2.0000     -10.199212      -277.5347 
   7   2.0000      -9.406666      -255.9684 
   8   2.0000      -9.406631      -255.9674 
   9   2.0000      -9.403068      -255.8705 
  10   2.0000      -9.398211      -255.7383 
  11   2.0000      -9.398205      -255.7382 
  12   2.0000      -7.153814      -194.6652 
  13   2.0000      -7.153780      -194.6642 
  14   2.0000      -7.150273      -194.5688 
  15   2.0000      -7.145225      -194.4314 
  16   2.0000      -7.145219      -194.4313 
  17   2.0000      -7.142349      -194.3532 
  18   2.0000      -7.142315      -194.3523 
  19   2.0000      -7.142091      -194.3462 
  20   2.0000      -7.142056      -194.3452 
  21   2.0000      -7.138589      -194.2509 
  22   2.0000      -7.138581      -194.2507 
  23   2.0000      -7.133907      -194.1235 
  24   2.0000      -7.133901      -194.1233 
  25   2.0000      -7.133748      -194.1191 
  26   2.0000      -7.133742      -194.1190 
  27   2.0000      -0.953379       -25.9428 
  28   2.0000      -0.878066       -23.8934 
  29   2.0000      -0.826105       -22.4794 
  30   2.0000      -0.817914       -22.2566 
  31   2.0000      -0.801922       -21.8214 
  32   2.0000      -0.693304       -18.8658 
  33   2.0000      -0.585294       -15.9267 
  34   2.0000      -0.508709       -13.8427 
  35   2.0000      -0.489442       -13.3184 
  36   2.0000      -0.486171       -13.2294 
  37   2.0000      -0.440774       -11.9941 
  38   2.0000      -0.430180       -11.7058 
  39   2.0000      -0.347388        -9.4529 
  40   2.0000      -0.343725        -9.3532 
  41   2.0000      -0.327776        -8.9192 
  42   2.0000      -0.323984        -8.8161 
  43   2.0000      -0.319469        -8.6932 
  44   2.0000      -0.311774        -8.4838 
  45   2.0000      -0.307704        -8.3730 
  46   2.0000      -0.295512        -8.0413 
  47   2.0000      -0.291258        -7.9255 
  48   2.0000      -0.281744        -7.6666 
  49   0.0000      -0.070774        -1.9259 
  50   0.0000      -0.058272        -1.5857 
  51   0.0000      -0.057833        -1.5737 
  52   0.0000      -0.014089        -0.3834 
  53   0.0000       0.016478         0.4484 
  54   0.0000       0.074402         2.0246 
  55   0.0000       0.089253         2.4287 
  56   0.0000       0.146239         3.9794 
  57   0.0000       0.179516         4.8849 
  58   0.0000       0.181479         4.9383 
  59   0.0000       0.212313         5.7773 
*Only the first 10 virtual orbitals were printed.
Total SCF time: 0 days 0 hours 0 min 1 sec 
Finished LeanSCF after   1.9 sec

Maximum memory used throughout the entire LEANSCF-calculation: 17.9 MB


-------------------------------------------------------------------------------
                          DFT DISPERSION CORRECTION                            
                                                                               
                                DFTD4 V3.4.0                                   
-------------------------------------------------------------------------------
-------------------------   ----------------
Dispersion correction           -0.004215567
-------------------------   ----------------

------------------   -----------------
gCP correction             0.011121996
------------------   -----------------

-------------------------   --------------------
FINAL SINGLE POINT ENERGY     -2377.661347047780
-------------------------   --------------------

------------------------------------------------------------------------------
                         ORCA SCF GRADIENT CALCULATION
------------------------------------------------------------------------------

Nuc. rep. gradient        (SHARK) ... done (  0.0 sec)
HCore & Overlap gradient  (SHARK) ... done (  0.1 sec)
Split-RIJ-J gradient      (SHARK) ... done (  0.7 sec)
XC gradient                       ... done (  1.9 sec)
Dispersion correction             ... done (  0.0 sec)

-------------------
DISPERSION GRADIENT
-------------------

   1   C   :   -0.000009121    0.000000001    0.000009253
   2   C   :    0.000000864    0.000000005   -0.000001593
   3   Cl  :    0.000085790   -0.000076252    0.000022460
   4   Cl  :    0.000085805    0.000076204    0.000022497
   5   Cl  :    0.000032616    0.000000027   -0.000094039
   6   Cl  :   -0.000089471    0.000075344    0.000008895
   7   Cl  :   -0.000089512   -0.000075336    0.000008896
   8   H   :   -0.000016971    0.000000005    0.000023630

Difference to translation invariance:
           :    0.0000000000   -0.0000000000    0.0000000000

Difference to rotation invariance:
           :    0.0000000000    0.0000000000   -0.0000000000

Norm of the Dispersion gradient    ...    0.0002565304
RMS gradient                       ...    0.0000523640
MAX gradient                       ...    0.0000940391
gCP correction                   ... done

------------------
CARTESIAN GRADIENT
------------------

   1   C   :    0.006761017   -0.000000204   -0.003744340
   2   C   :   -0.008410068   -0.000050736    0.004173443
   3   Cl  :   -0.005254188    0.007471110   -0.004682188
   4   Cl  :   -0.005248585   -0.007436742   -0.004686269
   5   Cl  :   -0.001015727    0.000017201    0.010283778
   6   Cl  :    0.007741764   -0.008480919   -0.000987711
   7   Cl  :    0.007722201    0.008458651   -0.000997979
   8   H   :   -0.002296413    0.000021640    0.000641267

Difference to translation invariance:
           :   -0.0000000000    0.0000000000   -0.0000000000

Difference to rotation invariance:
           :    0.0000004220   -0.0000167571   -0.0000013022

Norm of the Cartesian gradient     ...    0.0271206293
RMS gradient                       ...    0.0055359753
MAX gradient                       ...    0.0102837782

-------
TIMINGS
-------

Total SCF gradient time     ....        2.689 sec

Densities                   ....       0.000 sec  (  0.0%)
One electron gradient       ....       0.064 sec  (  2.4%)
RI-J Coulomb gradient       ....       0.679 sec  ( 25.3%)
XC gradient                 ....       1.924 sec  ( 71.6%)

Maximum memory used throughout the entire SCFGRAD-calculation: 33.1 MB

------------------------------------------------------------------------------
                              ORCA PROPERTY CALCULATIONS
------------------------------------------------------------------------------

GBWName                                 ... xtb_opt.gbw
Number of atoms                         ...      8
Number of basis functions               ...    178
Max core memory                         ...   1024 MB

Electric properties:
Dipole moment                           ... YES
Quadrupole moment                       ...  NO
Static polarizability (Dipole/Dipole)   ...  NO
Static polarizability (Dipole/Quad.)    ...  NO
Static polarizability (Quad./Quad.)     ...  NO
Static polarizability (Velocity)        ...  NO

Atomic electric properties:
Dipole moment                           ...  NO
Quadrupole moment                       ...  NO
Static polarizability                   ...  NO

Choice of electric origin               ... Center of mass
Position of electric origin             ...    -0.000001     0.000000     0.000002

General magnetic properties:
Magnetizability                         ...  NO

EPR properties:
g-Tensor (aka g-matrix)                 ...  NO
Zero-Field splitting spin-orbit         ...  NO
Zero-field splitting spin-spin          ...  NO
Hyperfine couplings                     ...  NO (   0 nuclei)
Quadrupole couplings                    ...  NO (   0 nuclei)
Contact density                         ...  NO (   0 nuclei)

NMR properties:
Chemical shifts                         ...  NO (   0 nuclei)
Spin-rotation constants                 ...  NO (   0 nuclei)
Spin-spin couplings                     ...  NO (   0 nuclei,    0 pairs)

Choice of magnetic origin               ... GIAO
Position of magnetic origin             ...     0.000000     0.000000     0.000000

Properties with geometric perturbations:
SCF Hessian                             ...  NO
IR spectrum                             ...  NO
VCD spectrum                            ...  NO
X-ray spectroscopy properties:
SCF XES/XAS/RIXS spectra                ...  NO


-------------
DIPOLE MOMENT
-------------

Method             : SCF
Type of density    : Electron Density
Multiplicity       :   1
Irrep              :   0
Energy             : -2377.6682534769597623 Eh
Relativity type    : 
Basis              : AO
                                X                 Y                 Z
Electronic contribution:      0.801445829      -0.000325862      -1.651807490
Nuclear contribution   :     -0.764664121       0.000055390       2.028731537
                        -----------------------------------------
Total Dipole Moment    :      0.036781708      -0.000270471       0.376924047
                        -----------------------------------------
Magnitude (a.u.)       :      0.378714543
Magnitude (Debye)      :      0.962615867



--------------------
Rotational spectrum 
--------------------
 
Rotational constants in cm-1:             0.038595             0.032756             0.025100 
Rotational constants in MHz :          1157.059167           982.015057           752.478335 

Dipole components along the rotational axes: 
x,y,z [a.u.] :    -0.036782    -0.000270     0.376924 
x,y,z [Debye]:    -0.093491    -0.000687     0.958065 

 

Dipole moment calculation done in   0.0 sec 

Maximum memory used throughout the entire PROP-calculation: 11.4 MB

--------------------------------
SUGGESTED CITATIONS FOR THIS RUN
--------------------------------

Below you find a list of papers that are relevant to this ORCA run
We neither can nor want to force you to cite these papers, but we appreciate if you do
You receive ORCA, which is the product of decades of hard work by many enthusiastic individuals, for free
The only thing we kindly ask in return is that you cite our papers,
We deeply appreciate it, if you show your appreciation for ORCA by not just citing the generic ORCA reference.

Please note that relegating all ORCA citations to the supporting information does *not* help us.
SI sections are not indexed - citations you put there will not count into any citation statistics
But we need these citations in order to attract the funding resources that allow us to do what we are doing

Therefore, if you are a happy ORCA user, please consider citing a few of the papers listed below in the main body of your paper

In addition to the list printed below, the program has created the file xtb_opt.bibtex that contains the list in bibtex format
You can import this file easily into all common literature databanks and citation aid programs


List of essential papers. We consider these as the minimum necessary citations

  1. Neese,F.
     Software update: the ORCA program system, version 5.0
     WIRES Comput. Molec. Sci., 2022 12(1)e1606
     doi.org/10.1002/wcms.1606
  2. Grimme,S.; Hansen,A.; Ehlert,S.; Mewes,J.
     r2SCAN-3c: A 'Swiss army knife' composite electronic-structure method
     J. Chem. Phys., 2021 154 064103
     doi.org/10.1063/5.0040021

List of papers to cite with high priority. The work reported in these papers was absolutely
necessary for this run to complete.
Our perspective: the developers of density functionals and basis sets usually get cited in chemistry papers
Good! But without the algorithms to do something with them, the functionals or basis sets would not do anything.
Hence, in our opinion, the algorithm design and method developments papers are equally worthy of getting cited

  1. Neese,F.
     An improvement of the resolution of the identity approximation for the formation of the Coulomb matrix
     J. Comp. Chem., 2003 24(14)1740-1747
     doi.org/10.1002/jcc.10318
  2. Neese,F.
     The SHARK Integral Generation and Digestion System
     J. Comp. Chem., 2022  1-16
     doi.org/10.1002/jcc.26942
  3. Lehtola,S.; Steigemann,C.; Oliveira,M.; Marques,M.
     Recent developments in Libxc - A comprehensive library of functionals for density functional theory
     Software X, 2018 7 
     doi.org/10.1016/j.softx.2017.11.002
  4. Caldeweyher,E.; Bannwarth,C.; Grimme,S.
     Extension of the D3 dispersion coefficient model
     J. Chem. Phys., 2017 147 034112
     doi.org/10.1063/1.4993215
  5. Caldeweyher,E.; Ehlert,S.; Hansen,A.; Neugebauer,H.; Spicher,S.; Bannwarth,C.; Grimme,S.
     A generally applicable atomic-charge dependent London dispersion correction
     J. Chem. Phys., 2019 150 154122
     doi.org/10.1063/1.5090222
  6. Caldeweyher,E.; Mewes,J.; Ehlert,S.; Grimme,S.
     Extension and evaluation of the D4 London-dispersion model for periodic systems
     Phys. Chem. Chem. Phys., 2020 22(16)8499-8512
     doi.org/10.1039/D0CP00502A
  7. Wittmann,L.; Gordiy,I.; Friede,M.; Helmich-Paris,B.; Grimme,S.; Hansen,A.; Bursch,M.
     Extension of the D3 and D4 London Dispersion Corrections to the full Actinides Series
     Phys. Chem. Chem. Phys., 2024 26(32)21379-21394
     doi.org/https://doi.org/10.1039/D4CP01514B 

List of suggested additional citations. These are papers that are important in the 'surrounding' of 
of this run, or papers that preceded the highly important papers. If you like your results we are grateful for a citation.

  1. Neese,F.
     The ORCA program system
     WIRES Comput. Molec. Sci., 2012 2(1)73-78
     doi.org/10.1002/wcms.81
  2. Neese,F.
     Software update: the ORCA program system, version 4.0
     WIRES Comput. Molec. Sci., 2018 8(1)1-6
     doi.org/10.1002/wcms.1327
  3. Neese,F.; Wennmohs,F.; Becker,U.; Riplinger,C.
     The ORCA quantum chemistry program package
     J. Chem. Phys., 2020 152 Art. No. L224108
     doi.org/10.1063/5.0004608

List of optional additional citations

  1. Neese,F.
     Approximate second-order SCF convergence for spin unrestricted wavefunctions
     Chem. Phys. Lett., 2000 325(1-3)93-98
     doi.org/10.1016/s0009-2614(00)00662-x

Timings for individual modules:

Sum of individual times          ...        5.094 sec (=   0.085 min)
Startup calculation              ...        0.322 sec (=   0.005 min)   6.3 %
SCF iterations                   ...        2.012 sec (=   0.034 min)  39.5 %
Property calculations            ...        0.035 sec (=   0.001 min)   0.7 %
SCF Gradient evaluation          ...        2.726 sec (=   0.045 min)  53.5 %
                             ****ORCA TERMINATED NORMALLY****
TOTAL RUN TIME: 0 days 0 hours 0 minutes 5 seconds 164 msec
  ------------------------------------------------------------------------
          * successful ORCA run, taking over control again...

         :::::::::::::::::::::::::::::::::::::::::::::::::::::
         ::                  ORCA SUMMARY                   ::
         :::::::::::::::::::::::::::::::::::::::::::::::::::::
         :: total energy           -2377.661347047780 Eh    ::
         :: gradient norm              0.027120629256 Eh/a0 ::
         :: HOMO-LUMO gap              0.000000000000 eV    ::
         :::::::::::::::::::::::::::::::::::::::::::::::::::::

      ----------------------------------------------------------- 
     |                       L-ANC optimizer                     |
      ----------------------------------------------------------- 
          low memory version by Sebastian Ehlert

          ...................................................
          :                      SETUP                      :
          :.................................................:
          :   energy convergence        0.5000000E-05 Eh    :
          :   grad. convergence         0.1000000E-02 Eh/a0 :
          :   optimization log               true           :
          :   writing optlog all                1     steps :
          :   Hessian reset                    20     steps :
          :   maximium step len.        1.0000000     a0    :
          :   LBFGS images                     20           :
          ...................................................
 * calculating model hessian...
Using Lindh-Hessian (1995)
 Shifting diagonal of input Hessian by    1.0000000000000000E-002
 Lowest  eigenvalues of input Hessian
    0.000000    0.000000    0.000000    0.000000    0.000000    0.000000
    0.015060    0.022093    0.024998    0.035839    0.051165    0.054603
    0.064668    0.082931    0.099020    0.120215    0.129314    0.356988
 Highest eigenvalues
    0.636905    1.048677    1.073386    1.149051    1.150408    1.176808


........................................................................
.............................. CYCLE    1 ..............................
........................................................................
                         * ORCA takes the control...
  ------------------------------------------------------------------------

                                 *****************
                                 * O   R   C   A *
                                 *****************

                                            #,                                       
                                            ###                                      
                                            ####                                     
                                            #####                                    
                                            ######                                   
                                           ########,                                 
                                     ,,################,,,,,                         
                               ,,#################################,,                 
                          ,,##########################################,,             
                       ,#########################################, ''#####,          
                    ,#############################################,,   '####,        
                  ,##################################################,,,,####,       
                ,###########''''           ''''###############################       
              ,#####''   ,,,,##########,,,,          '''####'''          '####       
            ,##' ,,,,###########################,,,                        '##       
           ' ,,###''''                  '''############,,,                           
         ,,##''                                '''############,,,,        ,,,,,,###''
      ,#''                                            '''#######################'''  
     '                                                          ''''####''''         
             ,#######,   #######,   ,#######,      ##                                
            ,#'     '#,  ##    ##  ,#'     '#,    #''#        ,####,   ,####,        
            ##       ##  ##   ,#'  ##            #'  '#       #'       #'  '#        
            ##       ##  #######   ##           ,######,      #####,   #    #        
            '#,     ,#'  ##    ##  '#,     ,#' ,#      #,     #,   #   #,  ,#        
             '#######'   ##     ##  '#######'  #'      '#     '####' # '####'        



                #########################################################
                #                        -***-                          #
                #          Department of theory and spectroscopy        #
                #                                                       #
                #                      Frank Neese                      #
                #                                                       #
                #     Directorship, Architecture, Infrastructure        #
                #                    SHARK, DRIVERS                     #
                #        Core code/Algorithms in most modules           #
                #                                                       #
                #        Max Planck Institute fuer Kohlenforschung      #
                #                Kaiser Wilhelm Platz 1                 #
                #                 D-45470 Muelheim/Ruhr                 #
                #                      Germany                          #
                #                                                       #
                #                  All rights reserved                  #
                #                        -***-                          #
                #########################################################


                         Program Version 6.0.1  -  RELEASE   -


 With contributions from (in alphabetic order):
[Max-Planck-Institut fuer Kohlenforschung]                               
  Daniel Aravena         : Magnetic Suceptibility                        
  Michael Atanasov       : Ab Initio Ligand Field Theory (pilot matlab implementation)
  Alexander A. Auer      : GIAO ZORA, VPT2 properties, NMR spectrum      
  Ute Becker             : All parallelization in ORCA, NUMFREQ, NUMCALC 
  Giovanni Bistoni       : ED, misc. LED, open-shell LED, HFLD           
  Martin Brehm           : Molecular dynamics                            
  Dmytro Bykov           : pre 5.0 version of the SCF Hessian            
  Marcos Casanova-Páez   : Triplet and SCS-CIS(D). UHF-(DLPNO)-IP/EA/STEOM-CCSD. UHF-CVS-IP/STEOM-CCSD   
  Vijay G. Chilkuri      : MRCI spin determinant printing, contributions to CSF-ICE 
  Pauline Colinet        : FMM embedding                                 
  Dipayan Datta          : RHF DLPNO-CCSD density                        
  Achintya Kumar Dutta   : EOM-CC, STEOM-CC                              
  Nicolas Foglia         : Exact transition moments, OPA infrastructure, MCD improvements    
  Dmitry Ganyushin       : Spin-Orbit,Spin-Spin,Magnetic field MRCI      
  Miquel Garcia-Rates    : C-PCM and meta-GGA Hessian, CCSD/C-PCM, Gaussian charge scheme 
  Tiago L. C. Gouveia    : GS-ROHF, GS-ROCIS                             
  Yang Guo               : DLPNO-NEVPT2, F12-NEVPT2, CIM, IAO-localization        
  Andreas Hansen         : Spin unrestricted coupled pair/coupled cluster methods 
  Ingolf Harden          : AUTO-CI MPn and infrastructure                
  Benjamin Helmich-Paris : MC-RPA, TRAH-(SCF,CASSCF), AVAS, COSX integrals, SCF dyn. polar. 
  Lee Huntington         : MR-EOM, pCC                                   
  Robert Izsak           : Overlap fitted RIJCOSX, COSX-SCS-MP3, EOM     
  Riya Kayal             : Wick's Theorem for AUTO-CI, AUTO-CI UHF-CCSDT 
  Emily Kempfer          : AUTO-CI, RHF CISDT and CCSDT                  
  Christian Kollmar      : KDIIS, OOCD, Brueckner-CCSD(T), CCSD density, CASPT2, CASPT2-K, improved NEVPT2 
  Axel Koslowski         : Symmetry handling                             
  Simone Kossmann        : meta-GGA functionals, TD-DFT gradient, OOMP2, (MP2 Hessian; deprecated post 5.0) 
  Lucas Lang             : DCDCAS                                        
  Marvin Lechner         : AUTO-CI (C++ implementation), FIC-MRCC        
  Spencer Leger          : CASSCF response                               
  Dagmar Lenk            : GEPOL surface, SMD, ORCA-2-JSON               
  Dimitrios Liakos       : Extrapolation schemes; Compound Job, initial MDCI parallelization 
  Dimitrios Manganas     : Further ROCIS development; embedding schemes. LFT, Crystal Embedding 
  Dimitrios Pantazis     : SARC Basis sets                               
  Anastasios Papadopoulos: AUTO-CI, single reference methods and gradients 
  Taras Petrenko         : pre 6.0 DFT Hessian and TD-DFT gradient, (ASA, deprecated), ECA, 1-Electron XAS/XES, NRVS 
  Peter Pinski           : DLPNO-MP2, DLPNO-MP2 Gradient                 
  Christoph Reimann      : Effective Core Potentials                     
  Marius Retegan         : Local ZFS, SOC                                
  Christoph Riplinger    : Optimizer, TS searches, QM/MM, DLPNO-CCSD(T), (RO)-DLPNO pert. Triples 
  Michael Roemelt        : Original ROCIS implementation                 
  Masaaki Saitow         : Open-shell DLPNO-CCSD energy and density      
  Barbara Sandhoefer     : DKH picture change effects                    
  Kantharuban Sivalingam : CASSCF convergence/infrastructure, NEVPT2 and variants, FIC-MRCI 
  Bernardo de Souza      : ESD, SOC TD-DFT                               
  Georgi L. Stoychev     : AutoAux, RI-MP2 NMR, DLPNO-MP2 response, X2C  
  Van Anh Tran           : RI-MP2 g-tensors                              
  Willem Van den Heuvel  : Paramagnetic NMR                              
  Zikuan Wang            : NOTCH, Electric field optimization            
  Frank Wennmohs         : Technical directorship and infrastructure     
  Hang Xu                : AUTO-CI-Response properties                   
                                                                         
[FACCTs GmbH]                                                            
  Markus Bursch, Miquel Garcia-Rates, Christoph Riplinger, Bernardo de Souza, Georgi L. Stoychev 
                                                                 
  APM, Basis sets (HGBS, AHGBS, def-TZVP (Ac-Lr), def2-XVPD (La-Lu)), CI-OPT, improved COSX, DLPNO-Multilevel,           
  DOCKER, DRACO, updates on ESD, GOAT, IRC, LR-CPCM, MBIS, meta-GGA TD-DFT gradient, ML-optimized integration grids, 
  MM, NACMEs, nearIR, NEB, NEB-TS, NL-DFT gradient (VV10), 2- and 3-layer-ONIOM, interface openCOSMO-RS, QMMM,   
  Crystal-QMMM, SF, symmetry and pop. for TD-DFT, r2SCAN hybrids, SOLVATOR                                   
                                                                         
[Other institutions]                                                     
  V. Asgeirsson          : NEB                                           
  Christoph Bannwarth    : sTDA-DFT, sTD-DFT, PBEh-3c, B97-3c, D3        
  Sebastian Ehlert       : rSCAN, r2SCAN, r2SCAN-3c, D4, dhf basis sets  
  Marvin Friede          : D4 for Fr, Ra, Ac-Lr                          
  Lars Goerigk           : TD-DFT with DH, B97 family of functionals     
  Stefan Grimme          : VdW corrections, initial TS optimization, DFT functionals, gCP, sTDA/sTD-DF 
  Waldemar Hujo          : DFT-NL                                        
  H. Jonsson             : NEB                                           
  Holger Kruse           : gCP                                           
  Marcel Mueller         : wB97X-3c, vDZP basis set                      
  Hagen Neugebauer       : wr2SCAN                                       
  Tobias Risthaus        : range-separated hybrid DFT                    
  Lukas Wittmann         : regularized MP2, r2SCAN double-hybrids, wr2SCAN        
                                                                         
We gratefully acknowledge several colleagues who have allowed us to      
interface, adapt or use parts of their codes:                            
  Ed Valeev, F. Pavosevic, A. Kumar             : LibInt (2-el integral package), F12 methods 
  Garnet Chan, S. Sharma, J. Yang, R. Olivares  : DMRG                   
  Ulf Ekstrom                                   : XCFun DFT Library      
  Mihaly Kallay                                 : mrcc  (arbitrary order and MRCC methods)
  Frank Weinhold                                : gennbo (NPA and NBO analysis)           
  Simon Mueller                                 : openCOSMO-RS                            
  Christopher J. Cramer and Donald G. Truhlar   : smd solvation model                     
  S Lehtola, MJT Oliveira, MAL Marques          : LibXC Library                           
  Liviu Ungur et al                             : ANISO software                          


 Your calculation uses the libint2 library for the computation of 2-el integrals
 For citations please refer to: http://libint.valeyev.net

 Your ORCA version has been built with support for libXC version: 6.2.2
 For citations please refer to: https://libxc.gitlab.io

 This ORCA versions uses:
   CBLAS   interface :  Fast vector & matrix operations
   LAPACKE interface :  Fast linear algebra routines
   SCALAPACK package :  Parallel linear algebra routines
   Shared memory     :  Shared parallel matrices
   BLAS/LAPACK       :  OpenBLAS 0.3.27  USE64BITINT DYNAMIC_ARCH NO_AFFINITY Zen SINGLE_THREADED
        Core in use  :  Zen
   Copyright (c) 2011-2014, The OpenBLAS Project




***************************************
The coordinates will be read from file: xtb_opt.xyz
***************************************


Your calculation utilizes the geometrical counterpoise correction gCP
Please cite in your paper:
H.Kruse, S. Grimme J.Chem.Phys., 136, (2012), 154101 
   

Your calculation utilizes the atom-pairwise dispersion correction
based on EEQ partial charges (D4)


================================================================================

----- Orbital basis set information -----
Your calculation utilizes the basis: def2-mTZVPP
   Stefan Grimme, Andreas Hansen, Sebastian Ehlert, and Jan-Michael Mewes 
   J. Chem. Phys. 154, 064103 (2021). DOI: 10.1063/5.0040021

----- AuxJ basis set information -----
Your calculation utilizes the auxiliary basis: def2/J
   F. Weigend, Phys. Chem. Chem. Phys. 8, 1057 (2006).

================================================================================
                                        WARNINGS
                       Please study these warnings very carefully!
================================================================================

WARNING: Old DensityContainer found on disk!
         Will remove this file - 
         If you want to keep old densities, please start your calculation with a different basename. 



WARNING: SCAN, rSCAN, or r2SCAN functional requested.
  ===> : libXC variant has now been activated.



================================================================================
                                       INPUT FILE
================================================================================
NAME = xtb_opt.inp
|  1> ! r2scan-3c def2/J RI DEFGRID2 scfconv7 ENGRAD tightSCF miniprint
|  2> * xyzfile 0 1 xtb_opt.xyz
|  3> 
|  4>                          ****END OF INPUT****
================================================================================

                     *******************************
                     * Energy+Gradient Calculation *
                     *******************************

---------------------------------
CARTESIAN COORDINATES (ANGSTROEM)
---------------------------------
  C     -0.798080    0.000103    0.637723
  C      0.607603   -0.000090   -0.007682
  Cl     1.496647   -1.441507    0.566787
  Cl     1.497322    1.440821    0.567522
  Cl     0.533260    0.000234   -1.785876
  Cl    -1.734456    1.463724    0.229737
  Cl    -1.734704   -1.463292    0.229485
  H     -0.668154    0.000018    1.724574

----------------------------
CARTESIAN COORDINATES (A.U.)
----------------------------
  NO LB      ZA    FRAG     MASS         X           Y           Z
   0 C     6.0000    0    12.011   -1.508152    0.000194    1.205122
   1 C     6.0000    0    12.011    1.148203   -0.000170   -0.014516
   2 Cl   17.0000    0    35.453    2.828253   -2.724054    1.071071
   3 Cl   17.0000    0    35.453    2.829528    2.722757    1.072461
   4 Cl   17.0000    0    35.453    1.007715    0.000442   -3.374816
   5 Cl   17.0000    0    35.453   -3.277647    2.766038    0.434139
   6 Cl   17.0000    0    35.453   -3.278115   -2.765221    0.433664
   7 H     1.0000    0     1.008   -1.262629    0.000035    3.258972

------------------------------------------------------------------------------
                   ___                                                        
                  /   \      - P O W E R E D   B Y -                         
                 /     \                                                     
                 |  |  |   _    _      __       _____    __    __             
                 |  |  |  | |  | |    /  \     |  _  \  |  |  /  |          
                  \  \/   | |  | |   /    \    | | | |  |  | /  /          
                 / \  \   | |__| |  /  /\  \   | |_| |  |  |/  /          
                |  |  |   |  __  | /  /__\  \  |    /   |      \           
                |  |  |   | |  | | |   __   |  |    \   |  |\   \          
                \     /   | |  | | |  |  |  |  | |\  \  |  | \   \       
                 \___/    |_|  |_| |__|  |__|  |_| \__\ |__|  \__/        
                                                                              
                      - O R C A' S   B I G   F R I E N D -                    
                                      &                                       
                       - I N T E G R A L  F E E D E R -                       
                                                                              
 v1 FN, 2020, v2 2021, v3 2022-2024                                           
------------------------------------------------------------------------------


----------------------
SHARK INTEGRAL PACKAGE
----------------------

Number of atoms                             ...      8
Number of basis functions                   ...    178
Number of shells                            ...     76
Maximum angular momentum                    ...      2
Integral batch strategy                     ... SHARK/LIBINT Hybrid
RI-J (if used) integral strategy            ... SPLIT-RIJ (Revised 2003 algorithm where possible)
Printlevel                                  ...      1
Contraction scheme used                     ... SEGMENTED contraction
Prescreening option                         ... SCHWARTZ
   Thresh                                   ... 3.000e-11
   Tcut                                     ... 1.000e-12
   Tpresel                                  ... 1.000e-12 
Coulomb Range Separation                    ... NOT USED
Exchange Range Separation                   ... NOT USED
Multipole approximations                    ... NOT USED
Finite Nucleus Model                        ... NOT USED
CABS basis                                  ... NOT available
Auxiliary Coulomb fitting basis             ... AVAILABLE
   # of basis functions in Aux-J            ...    364
   # of shells in Aux-J                     ...    120
   Maximum angular momentum in Aux-J        ...      4
Auxiliary J/K fitting basis                 ... NOT available
Auxiliary Correlation fitting basis         ... NOT available
Auxiliary 'external' fitting basis          ... NOT available

Checking pre-screening integrals            ... done (  0.0 sec) Dimension = 76
Check shell pair data                       ... done (  0.0 sec)
Shell pair information
Shell pair cut-off parameter TPreSel        ...   1.0e-12
Total number of shell pairs                 ...      2926
Shell pairs after pre-screening             ...      2622
Total number of primitive shell pairs       ...     14108
Primitive shell pairs kept                  ...      8367
          la=0 lb=0:    553 shell pairs
          la=1 lb=0:    886 shell pairs
          la=1 lb=1:    357 shell pairs
          la=2 lb=0:    428 shell pairs
          la=2 lb=1:    320 shell pairs
          la=2 lb=2:     78 shell pairs

Calculating one electron integrals          ... done (  0.0 sec)
Calculating RI/J V-Matrix + Cholesky decomp.... done (  0.0 sec)
Calculating Nuclear repulsion               ... done (  0.0 sec) ENN=    747.631136114030 Eh

Diagonalization of the overlap matrix:
Smallest eigenvalue                        ... 5.361e-04
Time for diagonalization                   ...    0.002 sec
Threshold for overlap eigenvalues          ... 1.000e-07
Number of eigenvalues below threshold      ... 0
Time for construction of square roots      ...    0.001 sec
Total time needed                          ...    0.004 sec

-------------------
DFT GRID GENERATION
-------------------

General Integration Accuracy     IntAcc      ... 4.388
Radial Grid Type                 RadialGrid  ... OptM3 with GC (2021)
Angular Grid (max. ang.)         AngularGrid ... 4 (Lebedev-302)
Angular grid pruning method      GridPruning ... 4 (adaptive)
Weight generation scheme         WeightScheme... mBecke (2022)
Basis function cutoff            BFCut       ... 1.0000e-11
Integration weight cutoff        WCut        ... 1.0000e-14
Partially contracted basis set               ... off
Rotationally invariant grid construction     ... off
Angular grids for H and He will be reduced by one unit

Total number of grid points                  ...    51968
Total number of batches                      ...      816
Average number of points per batch           ...       63
Average number of grid points per atom       ...     6496
Initializing property integral containers    ... done (  0.0 sec)

SHARK setup successfully completed in   0.3 seconds

Maximum memory used throughout the entire STARTUP-calculation: 25.8 MB
Occupation numbers will be reassigned to an Aufbau configuration
             **** ENERGY FILE WAS UPDATED (xtb_opt.en.tmp) ****
Finished Guess after   0.0 sec
Maximum memory used throughout the entire GUESS-calculation: 13.0 MB
----------------------------------------D-I-I-S--------------------------------------------
Iteration    Energy (Eh)           Delta-E    RMSDP     MaxDP     DIISErr   Damp  Time(sec)
-------------------------------------------------------------------------------------------
               ***  Starting incremental Fock matrix formation  ***
    1    -2377.6665708519822147     0.00e+00  2.28e-04  4.89e-03  1.49e-02  0.700   0.7
    2    -2377.6674536522746166    -8.83e-04  2.12e-04  4.34e-03  1.03e-02  0.700   0.6
                               ***Turning on AO-DIIS***
    3    -2377.6681190897129454    -6.65e-04  1.62e-04  2.84e-03  7.54e-03  0.700   0.6
    4    -2377.6685835063663035    -4.64e-04  4.05e-04  7.60e-03  5.27e-03  0.000   0.5
                              *** Initializing SOSCF ***
---------------------------------------S-O-S-C-F--------------------------------------
Iteration    Energy (Eh)           Delta-E    RMSDP     MaxDP     MaxGrad    Time(sec)
--------------------------------------------------------------------------------------
    5    -2377.6696943352271774    -1.11e-03  3.09e-05  5.98e-04  9.73e-04     0.6
               *** Restarting incremental Fock matrix formation ***
    6    -2377.6696986988208664    -4.36e-06  2.65e-05  5.16e-04  2.18e-04     0.7
    7    -2377.6696959392688768     2.76e-06  1.69e-05  4.12e-04  5.90e-04     0.5
    8    -2377.6696996091041001    -3.67e-06  4.92e-06  1.01e-04  2.91e-05     0.5
    9    -2377.6696995702686763     3.88e-08  2.59e-06  5.10e-05  4.94e-05     0.5
                 **** Energy Check signals convergence ****

               *****************************************************
               *                     SUCCESS                       *
               *           SCF CONVERGED AFTER   9 CYCLES          *
               *****************************************************

             **** ENERGY FILE WAS UPDATED (xtb_opt.en.tmp) ****

----------------
TOTAL SCF ENERGY
----------------

Total Energy       :      -2377.66969957026868 Eh          -64699.68179 eV

Components:
Nuclear Repulsion  :        747.63113611402980 Eh           20344.07749 eV
Electronic Energy  :      -3125.30083568429836 Eh          -85043.75928 eV
One Electron Energy:      -4770.19844447549349 Eh         -129803.69877 eV
Two Electron Energy:       1644.89760879119490 Eh           44759.93949 eV

Virial components:
Potential Energy   :      -4749.64876536826978 Eh         -129244.51357 eV
Kinetic Energy     :       2371.97906579800110 Eh           64544.83178 eV
Virial Ratio       :          2.00239910792398

DFT components:
N(Alpha)           :       48.999996030608 electrons
N(Beta)            :       48.999996030608 electrons
N(Total)           :       97.999992061215 electrons
E(X)               :     -148.468185301168 Eh       
E(C)               :       -3.756803315885 Eh       
E(XC)              :     -152.224988617053 Eh       

---------------
SCF CONVERGENCE
---------------

  Last Energy change         ...   -3.8835e-08  Tolerance :   1.0000e-07
  Last MAX-Density change    ...    5.1000e-05  Tolerance :   1.0000e-07
  Last RMS-Density change    ...    2.5923e-06  Tolerance :   5.0000e-09
  Last DIIS Error            ...    9.7309e-04  Tolerance :   1.0000e-07
  Last Orbital Gradient      ...    4.9352e-05  Tolerance :   1.0000e-04
  Last Orbital Rotation      ...    3.6829e-05  Tolerance :   1.0000e-04


----------------
ORBITAL ENERGIES
----------------

  NO   OCC          E(Eh)            E(eV) 
   0   2.0000    -101.252280     -2755.2146 
   1   2.0000    -101.252269     -2755.2143 
   2   2.0000    -101.250641     -2755.1700 
   3   2.0000    -101.243832     -2754.9847 
   4   2.0000    -101.243826     -2754.9846 
   5   2.0000     -10.254889      -279.0497 
   6   2.0000     -10.202335      -277.6196 
   7   2.0000      -9.407963      -256.0037 
   8   2.0000      -9.407950      -256.0033 
   9   2.0000      -9.406143      -255.9542 
  10   2.0000      -9.399345      -255.7692 
  11   2.0000      -9.399340      -255.7690 
  12   2.0000      -7.155177      -194.7023 
  13   2.0000      -7.155164      -194.7019 
  14   2.0000      -7.153399      -194.6539 
  15   2.0000      -7.146436      -194.4644 
  16   2.0000      -7.146431      -194.4643 
  17   2.0000      -7.143673      -194.3892 
  18   2.0000      -7.143660      -194.3889 
  19   2.0000      -7.143397      -194.3817 
  20   2.0000      -7.143384      -194.3814 
  21   2.0000      -7.141726      -194.3362 
  22   2.0000      -7.141692      -194.3353 
  23   2.0000      -7.135084      -194.1555 
  24   2.0000      -7.135079      -194.1554 
  25   2.0000      -7.134897      -194.1504 
  26   2.0000      -7.134892      -194.1503 
  27   2.0000      -0.945245       -25.7214 
  28   2.0000      -0.875464       -23.8226 
  29   2.0000      -0.822822       -22.3901 
  30   2.0000      -0.818257       -22.2659 
  31   2.0000      -0.801597       -21.8126 
  32   2.0000      -0.692618       -18.8471 
  33   2.0000      -0.585443       -15.9307 
  34   2.0000      -0.503459       -13.6998 
  35   2.0000      -0.485932       -13.2229 
  36   2.0000      -0.484303       -13.1786 
  37   2.0000      -0.439737       -11.9659 
  38   2.0000      -0.429154       -11.6779 
  39   2.0000      -0.347191        -9.4476 
  40   2.0000      -0.342266        -9.3135 
  41   2.0000      -0.330094        -8.9823 
  42   2.0000      -0.322015        -8.7625 
  43   2.0000      -0.320713        -8.7271 
  44   2.0000      -0.309880        -8.4323 
  45   2.0000      -0.308890        -8.4053 
  46   2.0000      -0.298444        -8.1211 
  47   2.0000      -0.294406        -8.0112 
  48   2.0000      -0.284052        -7.7295 
  49   0.0000      -0.077478        -2.1083 
  50   0.0000      -0.063906        -1.7390 
  51   0.0000      -0.063290        -1.7222 
  52   0.0000      -0.019545        -0.5318 
  53   0.0000       0.013074         0.3558 
  54   0.0000       0.068490         1.8637 
  55   0.0000       0.088400         2.4055 
  56   0.0000       0.147472         4.0129 
  57   0.0000       0.180582         4.9139 
  58   0.0000       0.180670         4.9163 
  59   0.0000       0.210558         5.7296 
*Only the first 10 virtual orbitals were printed.
Total SCF time: 0 days 0 hours 0 min 5 sec 
Finished LeanSCF after   5.2 sec

Maximum memory used throughout the entire LEANSCF-calculation: 17.9 MB


-------------------------------------------------------------------------------
                          DFT DISPERSION CORRECTION                            
                                                                               
                                DFTD4 V3.4.0                                   
-------------------------------------------------------------------------------
-------------------------   ----------------
Dispersion correction           -0.004173451
-------------------------   ----------------

------------------   -----------------
gCP correction             0.010736539
------------------   -----------------

-------------------------   --------------------
FINAL SINGLE POINT ENERGY     -2377.663136482578
-------------------------   --------------------

------------------------------------------------------------------------------
                         ORCA SCF GRADIENT CALCULATION
------------------------------------------------------------------------------

Nuc. rep. gradient        (SHARK) ... done (  0.0 sec)
HCore & Overlap gradient  (SHARK) ... done (  0.1 sec)
Split-RIJ-J gradient      (SHARK) ... done (  0.7 sec)
XC gradient                       ... done (  1.9 sec)
Dispersion correction             ... done (  0.0 sec)

-------------------
DISPERSION GRADIENT
-------------------

   1   C   :   -0.000005851   -0.000000002    0.000008675
   2   C   :    0.000003733   -0.000000002   -0.000001113
   3   Cl  :    0.000085982   -0.000074029    0.000022640
   4   Cl  :    0.000086026    0.000073991    0.000022679
   5   Cl  :    0.000040779    0.000000010   -0.000100583
   6   Cl  :   -0.000096988    0.000077883    0.000012714
   7   Cl  :   -0.000096983   -0.000077852    0.000012700
   8   H   :   -0.000016699    0.000000002    0.000022289

Difference to translation invariance:
           :    0.0000000000    0.0000000000    0.0000000000

Difference to rotation invariance:
           :    0.0000000000    0.0000000000    0.0000000000

Norm of the Dispersion gradient    ...    0.0002659278
RMS gradient                       ...    0.0000542823
MAX gradient                       ...    0.0001005831
gCP correction                   ... done

------------------
CARTESIAN GRADIENT
------------------

   1   C   :    0.002688400    0.000004327   -0.008023182
   2   C   :   -0.001155971   -0.000025171    0.002925667
   3   Cl  :   -0.000157835    0.004369628   -0.000896438
   4   Cl  :   -0.000128956   -0.004339182   -0.000870420
   5   Cl  :    0.001484358   -0.000011908    0.000449717
   6   Cl  :   -0.000621683   -0.001604972    0.002540004
   7   Cl  :   -0.000603541    0.001605282    0.002538040
   8   H   :   -0.001504772    0.000001996    0.001336611

Difference to translation invariance:
           :    0.0000000000    0.0000000000    0.0000000000

Difference to rotation invariance:
           :   -0.0000005192   -0.0000773306   -0.0000006245

Norm of the Cartesian gradient     ...    0.0120943693
RMS gradient                       ...    0.0024687528
MAX gradient                       ...    0.0080231816

-------
TIMINGS
-------

Total SCF gradient time     ....        2.663 sec

Densities                   ....       0.000 sec  (  0.0%)
One electron gradient       ....       0.063 sec  (  2.4%)
RI-J Coulomb gradient       ....       0.667 sec  ( 25.1%)
XC gradient                 ....       1.911 sec  ( 71.8%)

Maximum memory used throughout the entire SCFGRAD-calculation: 33.1 MB

------------------------------------------------------------------------------
                              ORCA PROPERTY CALCULATIONS
------------------------------------------------------------------------------

GBWName                                 ... xtb_opt.gbw
Number of atoms                         ...      8
Number of basis functions               ...    178
Max core memory                         ...   1024 MB

Electric properties:
Dipole moment                           ... YES
Quadrupole moment                       ...  NO
Static polarizability (Dipole/Dipole)   ...  NO
Static polarizability (Dipole/Quad.)    ...  NO
Static polarizability (Quad./Quad.)     ...  NO
Static polarizability (Velocity)        ...  NO

Atomic electric properties:
Dipole moment                           ...  NO
Quadrupole moment                       ...  NO
Static polarizability                   ...  NO

Choice of electric origin               ... Center of mass
Position of electric origin             ...    -0.008432    -0.000005     0.023228

General magnetic properties:
Magnetizability                         ...  NO

EPR properties:
g-Tensor (aka g-matrix)                 ...  NO
Zero-Field splitting spin-orbit         ...  NO
Zero-field splitting spin-spin          ...  NO
Hyperfine couplings                     ...  NO (   0 nuclei)
Quadrupole couplings                    ...  NO (   0 nuclei)
Contact density                         ...  NO (   0 nuclei)

NMR properties:
Chemical shifts                         ...  NO (   0 nuclei)
Spin-rotation constants                 ...  NO (   0 nuclei)
Spin-spin couplings                     ...  NO (   0 nuclei,    0 pairs)

Choice of magnetic origin               ... GIAO
Position of magnetic origin             ...     0.000000     0.000000     0.000000

Properties with geometric perturbations:
SCF Hessian                             ...  NO
IR spectrum                             ...  NO
VCD spectrum                            ...  NO
X-ray spectroscopy properties:
SCF XES/XAS/RIXS spectra                ...  NO


-------------
DIPOLE MOMENT
-------------

Method             : SCF
Type of density    : Electron Density
Multiplicity       :   1
Irrep              :   0
Energy             : -2377.6696995702686763 Eh
Relativity type    : 
Basis              : AO
                                X                 Y                 Z
Electronic contribution:      0.798818762      -0.000224943      -1.595671973
Nuclear contribution   :     -0.730544497       0.000028775       1.947080818
                        -----------------------------------------
Total Dipole Moment    :      0.068274265      -0.000196167       0.351408845
                        -----------------------------------------
Magnitude (a.u.)       :      0.357979874
Magnitude (Debye)      :      0.909912529



--------------------
Rotational spectrum 
--------------------
 
Rotational constants in cm-1:             0.037774             0.031084             0.024279 
Rotational constants in MHz :          1132.441696           931.883378           727.872358 

Dipole components along the rotational axes: 
x,y,z [a.u.] :    -0.055296    -0.000128     0.353683 
x,y,z [Debye]:    -0.140551    -0.000325     0.898992 

 

Dipole moment calculation done in   0.0 sec 

Maximum memory used throughout the entire PROP-calculation: 11.4 MB

--------------------------------
SUGGESTED CITATIONS FOR THIS RUN
--------------------------------

Below you find a list of papers that are relevant to this ORCA run
We neither can nor want to force you to cite these papers, but we appreciate if you do
You receive ORCA, which is the product of decades of hard work by many enthusiastic individuals, for free
The only thing we kindly ask in return is that you cite our papers,
We deeply appreciate it, if you show your appreciation for ORCA by not just citing the generic ORCA reference.

[...]
    1    -2377.6698899603411519     0.00e+00  1.45e-06  2.77e-05  6.26e-06     0.7
               *** Restarting incremental Fock matrix formation ***
    2    -2377.6698899594402974     9.01e-10  2.30e-06  5.66e-05  2.24e-05     0.7
                  *** Gradient check signals convergence ***

               *****************************************************
               *                     SUCCESS                       *
               *           SCF CONVERGED AFTER   2 CYCLES          *
               *****************************************************

             **** ENERGY FILE WAS UPDATED (xtb_opt.en.tmp) ****

----------------
TOTAL SCF ENERGY
----------------

Total Energy       :      -2377.66988995944030 Eh          -64699.68697 eV

Components:
Nuclear Repulsion  :        747.56882007860577 Eh           20342.38178 eV
Electronic Energy  :      -3125.23871003804607 Eh          -85042.06876 eV
One Electron Energy:      -4770.10170662751170 Eh         -129801.06640 eV
Two Electron Energy:       1644.86299658946564 Eh           44758.99764 eV

Virial components:
Potential Energy   :      -4749.60727573047552 Eh         -129243.38458 eV
Kinetic Energy     :       2371.93738577103568 Eh           64543.69761 eV
Virial Ratio       :          2.00241680249352

DFT components:
N(Alpha)           :       48.999995952448 electrons
N(Beta)            :       48.999995952448 electrons
N(Total)           :       97.999991904897 electrons
E(X)               :     -148.459431034656 Eh       
E(C)               :       -3.756167414692 Eh       
E(XC)              :     -152.215598449348 Eh       

---------------
SCF CONVERGENCE
---------------

  Last Energy change         ...   -9.0085e-10  Tolerance :   1.0000e-07
  Last MAX-Density change    ...    5.6590e-05  Tolerance :   1.0000e-07
  Last RMS-Density change    ...    2.3033e-06  Tolerance :   5.0000e-09
  Last DIIS Error            ...    3.9333e-05  Tolerance :   1.0000e-07
  Last Orbital Gradient      ...    2.2379e-05  Tolerance :   1.0000e-04
  Last Orbital Rotation      ...    5.3158e-05  Tolerance :   1.0000e-04


----------------
ORBITAL ENERGIES
----------------

  NO   OCC          E(Eh)            E(eV) 
   0   2.0000    -101.252237     -2755.2134 
   1   2.0000    -101.252233     -2755.2133 
   2   2.0000    -101.250999     -2755.1797 
   3   2.0000    -101.243806     -2754.9840 
   4   2.0000    -101.243802     -2754.9839 
   5   2.0000     -10.255618      -279.0696 
   6   2.0000     -10.202942      -277.6362 
   7   2.0000      -9.407733      -255.9974 
   8   2.0000      -9.407728      -255.9973 
   9   2.0000      -9.406469      -255.9630 
  10   2.0000      -9.399261      -255.7669 
  11   2.0000      -9.399258      -255.7668 
  12   2.0000      -7.154960      -194.6964 
  13   2.0000      -7.154956      -194.6962 
  14   2.0000      -7.153736      -194.6631 
  15   2.0000      -7.146356      -194.4622 
  16   2.0000      -7.146356      -194.4622 
  17   2.0000      -7.143448      -194.3831 
  18   2.0000      -7.143443      -194.3830 
  19   2.0000      -7.143197      -194.3763 
  20   2.0000      -7.143192      -194.3761 
  21   2.0000      -7.142047      -194.3450 
  22   2.0000      -7.142015      -194.3441 
  23   2.0000      -7.134999      -194.1532 
  24   2.0000      -7.134999      -194.1532 
  25   2.0000      -7.134822      -194.1484 
  26   2.0000      -7.134821      -194.1484 
  27   2.0000      -0.943152       -25.6645 
  28   2.0000      -0.873503       -23.7692 
  29   2.0000      -0.822346       -22.3772 
  30   2.0000      -0.817858       -22.2551 
  31   2.0000      -0.801041       -21.7974 
  32   2.0000      -0.691590       -18.8191 
  33   2.0000      -0.585621       -15.9356 
  34   2.0000      -0.502636       -13.6774 
  35   2.0000      -0.485052       -13.1989 
  36   2.0000      -0.482613       -13.1326 
  37   2.0000      -0.439656       -11.9636 
  38   2.0000      -0.428672       -11.6648 
  39   2.0000      -0.346668        -9.4333 
  40   2.0000      -0.342220        -9.3123 
  41   2.0000      -0.328455        -8.9377 
  42   2.0000      -0.322889        -8.7863 
  43   2.0000      -0.319941        -8.7060 
  44   2.0000      -0.310829        -8.4581 
  45   2.0000      -0.308698        -8.4001 
  46   2.0000      -0.298410        -8.1201 
  47   2.0000      -0.294553        -8.0152 
  48   2.0000      -0.284092        -7.7305 
  49   0.0000      -0.080228        -2.1831 
  50   0.0000      -0.064061        -1.7432 
  51   0.0000      -0.063826        -1.7368 
  52   0.0000      -0.019979        -0.5437 
  53   0.0000       0.010351         0.2817 
  54   0.0000       0.066609         1.8125 
  55   0.0000       0.089057         2.4234 
  56   0.0000       0.147118         4.0033 
  57   0.0000       0.180442         4.9101 
  58   0.0000       0.181427         4.9369 
  59   0.0000       0.210586         5.7303 
*Only the first 10 virtual orbitals were printed.
Total SCF time: 0 days 0 hours 0 min 1 sec 
Finished LeanSCF after   1.4 sec

Maximum memory used throughout the entire LEANSCF-calculation: 17.8 MB


-------------------------------------------------------------------------------
                          DFT DISPERSION CORRECTION                            
                                                                               
                                DFTD4 V3.4.0                                   
-------------------------------------------------------------------------------
-------------------------   ----------------
Dispersion correction           -0.004176731
-------------------------   ----------------

------------------   -----------------
gCP correction             0.010587137
------------------   -----------------

-------------------------   --------------------
FINAL SINGLE POINT ENERGY     -2377.663479552643
-------------------------   --------------------

------------------------------------------------------------------------------
                         ORCA SCF GRADIENT CALCULATION
------------------------------------------------------------------------------

Nuc. rep. gradient        (SHARK) ... done (  0.0 sec)
HCore & Overlap gradient  (SHARK) ... done (  0.1 sec)
Split-RIJ-J gradient      (SHARK) ... done (  0.7 sec)
XC gradient                       ... done (  2.0 sec)
Dispersion correction             ... done (  0.0 sec)

-------------------
DISPERSION GRADIENT
-------------------

   1   C   :   -0.000005359   -0.000000001    0.000008219
   2   C   :    0.000002196    0.000000001   -0.000000511
   3   Cl  :    0.000085498   -0.000074861    0.000022864
   4   Cl  :    0.000085522    0.000074825    0.000022887
   5   Cl  :    0.000038617    0.000000009   -0.000099315
   6   Cl  :   -0.000094951    0.000077359    0.000011569
   7   Cl  :   -0.000094978   -0.000077332    0.000011548
   8   H   :   -0.000016544   -0.000000001    0.000022740

Difference to translation invariance:
           :    0.0000000000   -0.0000000000    0.0000000000

Difference to rotation invariance:
           :    0.0000000000    0.0000000000    0.0000000000

Norm of the Dispersion gradient    ...    0.0002634168
RMS gradient                       ...    0.0000537697
MAX gradient                       ...    0.0000993146
gCP correction                   ... done

------------------
CARTESIAN GRADIENT
------------------

   1   C   :   -0.000029183    0.000000530   -0.000056221
   2   C   :    0.000290154   -0.000006128    0.000302378
   3   Cl  :   -0.000050702    0.000042938   -0.000025462
   4   Cl  :   -0.000048239   -0.000037575   -0.000023615
   5   Cl  :   -0.000071299    0.000000513   -0.000228351
   6   Cl  :   -0.000023202   -0.000002221    0.000022490
   7   Cl  :   -0.000024154    0.000001598    0.000022563
   8   H   :   -0.000043376    0.000000345   -0.000013783

Difference to translation invariance:
           :    0.0000000000    0.0000000000    0.0000000000

Difference to rotation invariance:
           :   -0.0000007818   -0.0000093725   -0.0000000406

Norm of the Cartesian gradient     ...    0.0005004750
RMS gradient                       ...    0.0001021590
MAX gradient                       ...    0.0003023784

-------
TIMINGS
-------

Total SCF gradient time     ....        2.722 sec

Densities                   ....       0.000 sec  (  0.0%)
One electron gradient       ....       0.062 sec  (  2.3%)
RI-J Coulomb gradient       ....       0.667 sec  ( 24.5%)
XC gradient                 ....       1.972 sec  ( 72.5%)

Maximum memory used throughout the entire SCFGRAD-calculation: 33.1 MB

------------------------------------------------------------------------------
                              ORCA PROPERTY CALCULATIONS
------------------------------------------------------------------------------

GBWName                                 ... xtb_opt.gbw
Number of atoms                         ...      8
Number of basis functions               ...    178
Max core memory                         ...   1024 MB

Electric properties:
Dipole moment                           ... YES
Quadrupole moment                       ...  NO
Static polarizability (Dipole/Dipole)   ...  NO
Static polarizability (Dipole/Quad.)    ...  NO
Static polarizability (Quad./Quad.)     ...  NO
Static polarizability (Velocity)        ...  NO

Atomic electric properties:
Dipole moment                           ...  NO
Quadrupole moment                       ...  NO
Static polarizability                   ...  NO

Choice of electric origin               ... Center of mass
Position of electric origin             ...    -0.009510     0.000048     0.015602

General magnetic properties:
Magnetizability                         ...  NO

EPR properties:
g-Tensor (aka g-matrix)                 ...  NO
Zero-Field splitting spin-orbit         ...  NO
Zero-field splitting spin-spin          ...  NO
Hyperfine couplings                     ...  NO (   0 nuclei)
Quadrupole couplings                    ...  NO (   0 nuclei)
Contact density                         ...  NO (   0 nuclei)

NMR properties:
Chemical shifts                         ...  NO (   0 nuclei)
Spin-rotation constants                 ...  NO (   0 nuclei)
Spin-spin couplings                     ...  NO (   0 nuclei,    0 pairs)

Choice of magnetic origin               ... GIAO
Position of magnetic origin             ...     0.000000     0.000000     0.000000

Properties with geometric perturbations:
SCF Hessian                             ...  NO
IR spectrum                             ...  NO
VCD spectrum                            ...  NO
X-ray spectroscopy properties:
SCF XES/XAS/RIXS spectra                ...  NO


-------------
DIPOLE MOMENT
-------------

Method             : SCF
Type of density    : Electron Density
Multiplicity       :   1
Irrep              :   0
Energy             : -2377.6698899594402974 Eh
Relativity type    : 
Basis              : AO
                                X                 Y                 Z
Electronic contribution:      0.782730834       0.000075082      -1.625628743
Nuclear contribution   :     -0.726227310      -0.000173679       1.974128604
                        -----------------------------------------
Total Dipole Moment    :      0.056503523      -0.000098597       0.348499860
                        -----------------------------------------
Magnitude (a.u.)       :      0.353050719
Magnitude (Debye)      :      0.897383613



--------------------
Rotational spectrum 
--------------------
 
Rotational constants in cm-1:             0.037531             0.031396             0.024317 
Rotational constants in MHz :          1125.145906           941.241049           729.011833 

Dipole components along the rotational axes: 
x,y,z [a.u.] :    -0.048201    -0.000040     0.349745 
x,y,z [Debye]:    -0.122517    -0.000101     0.888981 

 

Dipole moment calculation done in   0.0 sec 

Maximum memory used throughout the entire PROP-calculation: 11.4 MB

--------------------------------
SUGGESTED CITATIONS FOR THIS RUN
--------------------------------

Below you find a list of papers that are relevant to this ORCA run
We neither can nor want to force you to cite these papers, but we appreciate if you do
You receive ORCA, which is the product of decades of hard work by many enthusiastic individuals, for free
The only thing we kindly ask in return is that you cite our papers,
We deeply appreciate it, if you show your appreciation for ORCA by not just citing the generic ORCA reference.

Please note that relegating all ORCA citations to the supporting information does *not* help us.
SI sections are not indexed - citations you put there will not count into any citation statistics
But we need these citations in order to attract the funding resources that allow us to do what we are doing

Therefore, if you are a happy ORCA user, please consider citing a few of the papers listed below in the main body of your paper

In addition to the list printed below, the program has created the file xtb_opt.bibtex that contains the list in bibtex format
You can import this file easily into all common literature databanks and citation aid programs


List of essential papers. We consider these as the minimum necessary citations

  1. Neese,F.
     Software update: the ORCA program system, version 5.0
     WIRES Comput. Molec. Sci., 2022 12(1)e1606
     doi.org/10.1002/wcms.1606
  2. Grimme,S.; Hansen,A.; Ehlert,S.; Mewes,J.
     r2SCAN-3c: A 'Swiss army knife' composite electronic-structure method
     J. Chem. Phys., 2021 154 064103
     doi.org/10.1063/5.0040021

List of papers to cite with high priority. The work reported in these papers was absolutely
necessary for this run to complete.
Our perspective: the developers of density functionals and basis sets usually get cited in chemistry papers
Good! But without the algorithms to do something with them, the functionals or basis sets would not do anything.
Hence, in our opinion, the algorithm design and method developments papers are equally worthy of getting cited

  1. Neese,F.
     An improvement of the resolution of the identity approximation for the formation of the Coulomb matrix
     J. Comp. Chem., 2003 24(14)1740-1747
     doi.org/10.1002/jcc.10318
  2. Neese,F.
     The SHARK Integral Generation and Digestion System
     J. Comp. Chem., 2022  1-16
     doi.org/10.1002/jcc.26942
  3. Lehtola,S.; Steigemann,C.; Oliveira,M.; Marques,M.
     Recent developments in Libxc - A comprehensive library of functionals for density functional theory
     Software X, 2018 7 
     doi.org/10.1016/j.softx.2017.11.002
  4. Caldeweyher,E.; Bannwarth,C.; Grimme,S.
     Extension of the D3 dispersion coefficient model
     J. Chem. Phys., 2017 147 034112
     doi.org/10.1063/1.4993215
  5. Caldeweyher,E.; Ehlert,S.; Hansen,A.; Neugebauer,H.; Spicher,S.; Bannwarth,C.; Grimme,S.
     A generally applicable atomic-charge dependent London dispersion correction
     J. Chem. Phys., 2019 150 154122
     doi.org/10.1063/1.5090222
  6. Caldeweyher,E.; Mewes,J.; Ehlert,S.; Grimme,S.
     Extension and evaluation of the D4 London-dispersion model for periodic systems
     Phys. Chem. Chem. Phys., 2020 22(16)8499-8512
     doi.org/10.1039/D0CP00502A
  7. Wittmann,L.; Gordiy,I.; Friede,M.; Helmich-Paris,B.; Grimme,S.; Hansen,A.; Bursch,M.
     Extension of the D3 and D4 London Dispersion Corrections to the full Actinides Series
     Phys. Chem. Chem. Phys., 2024 26(32)21379-21394
     doi.org/https://doi.org/10.1039/D4CP01514B 

List of suggested additional citations. These are papers that are important in the 'surrounding' of 
of this run, or papers that preceded the highly important papers. If you like your results we are grateful for a citation.

  1. Neese,F.
     The ORCA program system
     WIRES Comput. Molec. Sci., 2012 2(1)73-78
     doi.org/10.1002/wcms.81
  2. Neese,F.
     Software update: the ORCA program system, version 4.0
     WIRES Comput. Molec. Sci., 2018 8(1)1-6
     doi.org/10.1002/wcms.1327
  3. Neese,F.; Wennmohs,F.; Becker,U.; Riplinger,C.
     The ORCA quantum chemistry program package
     J. Chem. Phys., 2020 152 Art. No. L224108
     doi.org/10.1063/5.0004608

List of optional additional citations

  1. Neese,F.
     Approximate second-order SCF convergence for spin unrestricted wavefunctions
     Chem. Phys. Lett., 2000 325(1-3)93-98
     doi.org/10.1016/s0009-2614(00)00662-x

Timings for individual modules:

Sum of individual times          ...        4.555 sec (=   0.076 min)
Startup calculation              ...        0.311 sec (=   0.005 min)   6.8 %
SCF iterations                   ...        1.454 sec (=   0.024 min)  31.9 %
Property calculations            ...        0.033 sec (=   0.001 min)   0.7 %
SCF Gradient evaluation          ...        2.757 sec (=   0.046 min)  60.5 %
                             ****ORCA TERMINATED NORMALLY****
TOTAL RUN TIME: 0 days 0 hours 0 minutes 4 seconds 620 msec
  ------------------------------------------------------------------------
          * successful ORCA run, taking over control again...

         :::::::::::::::::::::::::::::::::::::::::::::::::::::
         ::                  ORCA SUMMARY                   ::
         :::::::::::::::::::::::::::::::::::::::::::::::::::::
         :: total energy           -2377.663479552643 Eh    ::
         :: gradient norm              0.000500474963 Eh/a0 ::
         :: HOMO-LUMO gap              0.000000000000 eV    ::
         :::::::::::::::::::::::::::::::::::::::::::::::::::::

           -------------------------------------------------
          |                Property Printout                |
           -------------------------------------------------
           -------------------------------------------------
          |                Geometry Summary                 |
           -------------------------------------------------

      molecular mass/u    :      202.2941004
   center of mass at/Å    :       -0.0050322       0.0000252       0.0082551
  moments of inertia/u·Å² :        0.4491670E+03   0.5369275E+03   0.6932377E+03
rotational constants/cm⁻¹ :        0.3753088E-01   0.3139648E-01   0.2431725E-01

 * 6 selected distances

     #   Z          #   Z                                           value/Å
     2   6          3  17                                         1.7963795
     2   6          4  17                                         1.7964110 (max)
     2   6          5  17                                         1.7789707
     1   6          6  17                                         1.7879739
     1   6          7  17                                         1.7879760
     1   6          8   1                                         1.0923701 (min)

 * 2 distinct bonds (by element types)

   Z      Z             #   av. dist./Å        max./Å        min./Å
   1 H    6 C           1     1.0923701     1.0923701     1.0923701
   6 C   17 Cl          5     1.7895422     1.7964110     1.7789707


optimized geometry written to: xtbopt.coord


           -------------------------------------------------
          | TOTAL ENERGY            -2377.663479552643 Eh   |
          | GRADIENT NORM               0.000500474963 Eh/α |
           -------------------------------------------------

------------------------------------------------------------------------
 * finished run on 2025/04/09 at 04:19:59.760     
------------------------------------------------------------------------
 total:
 * wall-time:     0 d,  0 h,  0 min, 43.641 sec
 *  cpu-time:     0 d,  0 h,  0 min,  0.086 sec
 * ratio c/w:     0.002 speedup
 SCF:
 * wall-time:     0 d,  0 h,  0 min,  5.178 sec
 *  cpu-time:     0 d,  0 h,  0 min,  0.069 sec
 * ratio c/w:     0.013 speedup
 ANC optimizer:
 * wall-time:     0 d,  0 h,  0 min, 38.460 sec
 *  cpu-time:     0 d,  0 h,  0 min,  0.003 sec
 * ratio c/w:     0.000 speedup

