14
 energy: -307.632698239962 gnorm: 0.002634875117 xtb: 6.7.1 (41059b4)
C           -1.96488646622066        1.20867927603370       -0.21029000611860
C           -1.48601029588719       -0.18744754119976        0.18759000574910
C           -0.02549556908455       -0.46934217343831       -0.07219699284335
O            0.42547749895125       -1.54025618000857       -0.40441764501419
O            0.74470464057806        0.62428762140868        0.15506520858403
C            2.15893770971452        0.41846200796423       -0.03243304571904
H           -3.04221375425671        1.29531245220335       -0.04500549460625
H           -1.46334454752331        1.98194964554349        0.37443763048719
H           -1.76763544126612        1.40422361843664       -1.26824759040750
H           -2.04780851797266       -0.97076103742426       -0.32666517165543
H           -1.64125999398629       -0.34397172983261        1.26349461798794
H            2.38139089949915        0.26013169074058       -1.09197826782877
H            2.50116377467890       -0.45009596923910        0.53746801544543
H            2.63787686917696        1.33075758996232        0.32569716173690
14
 energy: -307.632719936613 gnorm: 0.001723486990 xtb: 6.7.1 (41059b4)
C           -1.96351593766180        1.20856442460042       -0.20944431614215
C           -1.48615400052243       -0.18781314160040        0.18843197611248
C           -0.02535195987926       -0.47051639991796       -0.06962627712234
O            0.42462726182995       -1.53923651508023       -0.41158885408993
O            0.74410697193206        0.62301851291681        0.15775500680553
C            2.15902306392676        0.41915938362538       -0.03172810956266
H           -3.04069284785796        1.29698209781878       -0.04352646280573
H           -1.46041096968996        1.98187435805551        0.37400144218344
H           -1.76737403615839        1.40316168777311       -1.26771231836443
H           -2.04736563227154       -0.96937051339961       -0.32938136478369
H           -1.64462373959013       -0.34717995197514        1.26349556137333
H            2.37937223195180        0.25391470088740       -1.09021229941045
H            2.50265929385552       -0.44481434522909        0.54264036067475
H            2.63659726668291        1.33418499449666        0.31941388036965
14
 energy: -307.632756944542 gnorm: 0.003429146791 xtb: 6.7.1 (41059b4)
C           -1.95939829890431        1.20800067444783       -0.20603751242348
C           -1.48672286920387       -0.18952454663020        0.19029055680044
C           -0.02607635401480       -0.46987396299646       -0.07487594709176
O            0.42244106385617       -1.53396924811169       -0.43711264342530
O            0.74186249532287        0.61941183598340        0.16682103261441
C            2.15897970672101        0.42023617142382       -0.02691846403701
H           -3.03538148817290        1.30272688009292       -0.03428432623476
H           -1.44869060187034        1.98122460165702        0.37128905368399
H           -1.76957127806655        1.39841327773737       -1.26613125160094
H           -2.04682395171199       -0.96666173230540       -0.33617127159829
H           -1.65184895393321       -0.35654957473507        1.26338712998286
H            2.37243475868053        0.22849801475920       -1.08168665771000
H            2.50836479090106       -0.42649230738946        0.56621020232322
H            2.63132877579831        1.34648875647740        0.29773825236582
14
 energy: -307.632779276473 gnorm: 0.002748036590 xtb: 6.7.1 (41059b4)
C           -1.95976468108208        1.20832180531799       -0.20475841163072
C           -1.48698390803809       -0.19037146595740        0.18785220587524
C           -0.02586683690260       -0.46903208344676       -0.07758628377935
O            0.42288142009659       -1.53040545414229       -0.44626424889264
O            0.74197434920978        0.61811890855631        0.17221014537555
C            2.15891977428606        0.41940403430057       -0.02481056700548
H           -3.03478796067126        1.30527842848754       -0.02860519698549
H           -1.44502017478109        1.97981993542042        0.37123016856013
H           -1.77319959789539        1.39883730041903       -1.26549943395292
H           -2.04712936319766       -0.96653397038971       -0.33989572743182
H           -1.65127469559000       -0.35896106278830        1.26062689742534
H            2.36896237304522        0.21454735892042       -1.07808343341218
H            2.51283587773097       -0.41874960522258        0.57924145595538
H            2.62935176811693        1.35165437813708        0.28686055121063
14
 energy: -307.632798002786 gnorm: 0.003313463086 xtb: 6.7.1 (41059b4)
C           -1.96199512658562        1.20984349004398       -0.20098060845003
C           -1.48766581280139       -0.19302423191491        0.17817641061890
C           -0.02561666849419       -0.46572607515617       -0.09030809790461
O            0.42429658791505       -1.51712856931494       -0.48266391466467
O            0.74312795916494        0.61325359769152        0.19277333988034
C            2.15879482947283        0.41635241122559       -0.01543685988612
H           -3.03327572553119        1.31199150415369       -0.00649661569860
H           -1.43315145086127        1.97468369067951        0.37102128159498
H           -1.79055963478116        1.40415553060474       -1.26397088990168
H           -2.04819423582574       -0.96614446883742       -0.35282561615692
H           -1.64622292384517       -0.36705062018131        1.25055777106561
H            2.35644478534180        0.15883113544682       -1.06139751535041
H            2.53030381789849       -0.38773813119517        0.62952802357901
H            2.62461421459528        1.36962771836842        0.24454145725482
14
 energy: -307.632812771785 gnorm: 0.001188654885 xtb: 6.7.1 (41059b4)
C           -1.96258895605307        1.20956325171843       -0.20287436238133
C           -1.48714620318994       -0.19162391843470        0.18046075717571
C           -0.02574098342335       -0.46643860704601       -0.08706997692647
O            0.42398826637076       -1.52142579017081       -0.46932364208512
O            0.74369538023971        0.61499297187328        0.18541671138156
C            2.15902386731278        0.41687960503672       -0.01836540365397
H           -3.03500223351674        1.30802625011249       -0.01379902298927
H           -1.43940298243364        1.97667788313270        0.37095646200696
H           -1.78690594707283        1.40376316318891       -1.26495832178391
H           -2.04801629130739       -0.96682413327732       -0.34713979534574
H           -1.64522729636104       -0.36208965877124        1.25361285877603
H            2.36207937374625        0.17840702410348       -1.06565927174934
H            2.52470637197991       -0.39884246633767        0.61095635659477
H            2.62743751882209        1.36086175939455        0.26030498959384
14
 energy: -307.632816063348 gnorm: 0.000376511967 xtb: 6.7.1 (41059b4)
C           -1.96341969810987        1.20987017706422       -0.20256552285416
C           -1.48659966383494       -0.19127900197292        0.17945963955846
C           -0.02559531584129       -0.46602033836184       -0.08893652971240
O            0.42409768515516       -1.52008629104316       -0.47483308509733
O            0.74452440740079        0.61482026404139        0.18600496653166
C            2.15924973055642        0.41631158438861       -0.01696627302274
H           -3.03565872202107        1.30673311610474       -0.01168324709045
H           -1.44030432337902        1.97687308518849        0.37143342013967
H           -1.78990562644972        1.40550756124868       -1.26469315593101
H           -2.04780054643784       -0.96658216639210       -0.34765036660965
H           -1.64335470581316       -0.36183196328666        1.25291297009370
H            2.36211149735932        0.17112684078600       -1.06280749413748
H            2.52568069939814       -0.39548104920777        0.61703057184551
H            2.62787482924741        1.36196519483305        0.25581253401325
14
 energy: -307.632816063348 gnorm: 0.000376511967 xtb: 6.7.1 (41059b4)
C           -1.96341969810987        1.20987017706422       -0.20256552285416
C           -1.48659966383494       -0.19127900197292        0.17945963955846
C           -0.02559531584129       -0.46602033836184       -0.08893652971240
O            0.42409768515516       -1.52008629104316       -0.47483308509733
O            0.74452440740079        0.61482026404139        0.18600496653166
C            2.15924973055642        0.41631158438861       -0.01696627302274
H           -3.03565872202107        1.30673311610474       -0.01168324709045
H           -1.44030432337902        1.97687308518849        0.37143342013967
H           -1.78990562644972        1.40550756124868       -1.26469315593101
H           -2.04780054643784       -0.96658216639210       -0.34765036660965
H           -1.64335470581316       -0.36183196328666        1.25291297009370
H            2.36211149735932        0.17112684078600       -1.06280749413748
H            2.52568069939814       -0.39548104920777        0.61703057184551
H            2.62787482924741        1.36196519483305        0.25581253401325
