20
 energy: -572.561020079699 gnorm: 0.043671874614 xtb: 6.7.1 (41059b4)
C            0.83505838407004        1.39489358631811       -0.56858510645196
C            1.59522583250689        0.16201380157179       -0.05693722902523
H            2.55415468713181        0.09489912364205       -0.60100357446632
C            0.76927234354089       -1.11314908729327       -0.33944678795042
H            1.21645429333904       -1.96029874586866        0.21178445759385
C           -0.67262809779806       -0.91795852750677        0.16480121697303
H           -1.27818811646640       -1.78266995878995       -0.11941624385292
C           -1.26666232636129        0.35865456005893       -0.46764173850722
H           -1.27770491846618        0.27439616122159       -1.56373920579293
O           -0.47022618290837        1.46268419204815       -0.06497076142879
O           -2.55883910753389        0.57087387105297       -0.05101066372260
O           -0.72941039322322       -0.81315766646033        1.56162954199200
O            0.70503459641242       -1.39340044851745       -1.71438522505969
O            1.83026238191104        0.33954080255046        1.32097581538536
H            0.82237173946441        1.36843829930639       -1.66754278453893
H            1.33586442839196        2.29938039261892       -0.22080492699784
H           -2.57311281734021        0.49774588642056        0.91513660400552
H           -0.22317764399890       -0.02032302330901        1.80914796080168
H            1.59013412440463       -1.58163351840086       -2.04757726980734
H            2.23152629768885       -0.45666056480236        1.68908857574848
20
 energy: -572.562767435211 gnorm: 0.021791755810 xtb: 6.7.1 (41059b4)
C            0.84569423277396        1.39486680950535       -0.57159468962573
C            1.60275564213894        0.16555528707351       -0.06416667453586
H            2.55592494625703        0.09438084383360       -0.62027845451530
C            0.77184056481157       -1.11152607886426       -0.32410852289784
H            1.21471456999065       -1.95766277064006        0.23291091203504
C           -0.67634589981788       -0.91601923691338        0.16074432771260
H           -1.27990461683186       -1.77853478600808       -0.14037884363902
C           -1.27313160596801        0.35739759289002       -0.46848289609504
H           -1.28366602259421        0.28662001045114       -1.56642971443067
O           -0.46970230336190        1.46434712975552       -0.05783301512671
O           -2.57038849066415        0.57869962606535       -0.04986680282800
O           -0.74955466065605       -0.82710695799889        1.56870579083068
O            0.69873497731691       -1.38948451946404       -1.71069558042330
O            1.84453554149095        0.36042602314660        1.32171277911097
H            0.83451752930160        1.36569779209676       -1.67234362427291
H            1.35894900674339        2.30042882316079       -0.23848775211541
H           -2.58259733778849        0.47380419263903        0.91332244467872
H           -0.21949057415079       -0.05507265644016        1.82825319539960
H            1.58274746863097       -1.57963414793151       -2.04366832907869
H            2.22977519167132       -0.44291500318797        1.69218721534469
20
 energy: -572.563368439357 gnorm: 0.005430703554 xtb: 6.7.1 (41059b4)
C            0.85623812038387        1.39672499273063       -0.58102847067929
C            1.60221818042776        0.17080549979003       -0.06901708645532
H            2.55399785652167        0.08990245272986       -0.62679239315996
C            0.76923341622912       -1.10506621764105       -0.31345305374841
H            1.20654973801709       -1.94945201098267        0.24894992321498
C           -0.68188969491249       -0.91235126636211        0.15447759887612
H           -1.27697365342151       -1.77716496623710       -0.16072505221225
C           -1.27214664500461        0.36236571906373       -0.46701522639209
H           -1.28736711968759        0.30039693659208       -1.56519030242910
O           -0.46393547456598        1.47669050491173       -0.05336482945594
O           -2.57245971096675        0.58602444124347       -0.04149838570052
O           -0.77329621132056       -0.83738973768648        1.57284784158515
O            0.69686195997407       -1.39189864026352       -1.70968058945361
O            1.85123807979166        0.37556331060126        1.32584935539683
H            0.83606881203766        1.36530535804032       -1.68259568821900
H            1.37884409995079        2.30314967818124       -0.26069582564466
H           -2.58081328540970        0.43621720091804        0.91776728697059
H           -0.21674589376023       -0.08715030586153        1.84261450356772
H            1.58300474217633       -1.58420357641242       -2.03532789933555
H            2.22677958457646       -0.43420264400213        1.69337934930247
20
 energy: -572.563453600143 gnorm: 0.003606302018 xtb: 6.7.1 (41059b4)
C            0.85797152128900        1.39636298244493       -0.58446428691518
C            1.60109666145700        0.17151457083610       -0.07104334387459
H            2.55616851252807        0.08774990517271       -0.62162829977968
C            0.76857477163643       -1.10265431822489       -0.31202360670209
H            1.20434622079662       -1.94622904010007        0.25161271989768
C           -0.68244262664548       -0.90763620612863        0.14994197829416
H           -1.27554589538954       -1.77222241706277       -0.16788171824945
C           -1.27351137664121        0.36709012594381       -0.46604106640531
H           -1.29185434269490        0.30803604931451       -1.56389606605720
O           -0.46201115481721        1.48175189010114       -0.05339303125010
O           -2.57218053975496        0.58980272639550       -0.03355268532825
O           -0.77803558784641       -0.83736440161406        1.57039947439384
O            0.69998545966867       -1.39579217227697       -1.70932128897105
O            1.84558695029481        0.37603076234063        1.32702253075669
H            0.83302991110886        1.36180297421787       -1.68548500072620
H            1.38154674180686        2.30330400590087       -0.26807718555372
H           -2.57731937712716        0.41901500915239        0.92230871114421
H           -0.21440598813675       -0.09416080400833        1.84313942387160
H            1.58809066458325       -1.58959455804465       -2.02932792189216
H            2.22631610254016       -0.43254065432550        1.69121163455545
20
 energy: -572.563514455412 gnorm: 0.003521144476 xtb: 6.7.1 (41059b4)
C            0.85947751809757        1.39616942083947       -0.58936025959551
C            1.59884341456515        0.17211747534116       -0.07161359182484
H            2.55889053753855        0.08699582228942       -0.61196137539455
C            0.76697559918310       -1.09958483049812       -0.31262325352160
H            1.19978797784936       -1.94236328902460        0.25347651483989
C           -0.68363942541398       -0.90333984715152        0.14456228249995
H           -1.27623142392583       -1.76635043181673       -0.17657173557524
C           -1.27418033420797        0.37334677424370       -0.46458354707605
H           -1.29837501574057        0.31820263180789       -1.56240448697840
O           -0.45858461880584        1.48719397797198       -0.05499785158193
O           -2.56874170737785        0.59456086300777       -0.02147176121518
O           -0.78319424190096       -0.83810402539441        1.56599667989188
O            0.70436960046239       -1.40013427916407       -1.70974640942155
O            1.83437026317417        0.37594280520844        1.32970843996051
H            0.82963098800516        1.35506966372706       -1.68963772012328
H            1.38391269524898        2.30385608873870       -0.27834710628180
H           -2.56963495166458        0.39814810375751        0.92907557904317
H           -0.21179509046729       -0.10283153462267        1.84250299720389
H            1.59492970127900       -1.59658362225399       -2.02200746803481
H            2.22859470357262       -0.42804574374915        1.68950504849639
20
 energy: -572.563541484110 gnorm: 0.002664882565 xtb: 6.7.1 (41059b4)
C            0.85974392782709        1.39568118188601       -0.59269776806625
C            1.59736454663105        0.17222672842446       -0.07050646294733
H            2.56054811275446        0.08709552766090       -0.60471992473329
C            0.76640931088064       -1.09897814377697       -0.31347250959745
H            1.19695718188181       -1.94152185972821        0.25462123215492
C           -0.68455295259924       -0.90144464120202        0.14097202192585
H           -1.27788381357227       -1.76254599124864       -0.18366110519390
C           -1.27503359477136        0.37778408832556       -0.46353851304745
H           -1.30388769849163        0.32500220074905       -1.56154677303497
O           -0.45631825108713        1.48994557126816       -0.05668840955560
O           -2.56598017906993        0.59925317857463       -0.01282787828991
O           -0.78649779162912       -0.84048026950995        1.56218268834470
O            0.70750997342896       -1.40144992464137       -1.70998773776205
O            1.82513756448794        0.37659248586406        1.33231175401062
H            0.82814998488830        1.34871029081479       -1.69264317116716
H            1.38540149245735        2.30410617062001       -0.28658279810610
H           -2.56441704410667        0.38696891354981        0.93377060812578
H           -0.20960887307459       -0.11075521397949        1.84252387200303
H            1.59898186723577       -1.60035924305688       -2.01801054888646
H            2.23338193190831       -0.42156535532675        1.69000239648877
20
 energy: -572.563560051166 gnorm: 0.001388870958 xtb: 6.7.1 (41059b4)
C            0.85979874131693        1.39484002655536       -0.59550050678480
C            1.59670370163552        0.17232919880366       -0.06849658574506
H            2.56204633060042        0.08733058350771       -0.59878069475365
C            0.76581701497357       -1.09902544431784       -0.31432198934204
H            1.19434489136383       -1.94166149285286        0.25549301442278
C           -0.68600380053710       -0.90110238184861        0.13847313951199
H           -1.28020401689710       -1.76019610350901       -0.19068563426953
C           -1.27580043416896        0.38133686383151       -0.46266462037199
H           -1.30901931604411        0.32981196059082       -1.56086499031022
O           -0.45439444869424        1.49169753087153       -0.05857635940059
O           -2.56361175333972        0.60416828810787       -0.00583368554987
O           -0.79005652911786       -0.84499777702209        1.55909856777444
O            0.70991002732847       -1.40052712476158       -1.71026151558793
O            1.81740303682367        0.37838697585342        1.33499575996037
H            0.82806722481087        1.34208042049666       -1.69537108867379
H            1.38729499510269        2.30403828066669       -0.29472033912148
H           -2.56068933054884        0.38087643761195        0.93752294027274
H           -0.20850704154261       -0.12046275829515        1.84387985640122
H            1.60141103971156       -1.60230149540842       -2.01593434904905
H            2.24089473646162       -0.41235665717405        1.69204997911698
20
 energy: -572.563567705508 gnorm: 0.001270051289 xtb: 6.7.1 (41059b4)
C            0.86013583157562        1.39397452568799       -0.59773305349245
C            1.59619211412085        0.17255624463244       -0.06599343359502
H            2.56276010168484        0.08697907427348       -0.59419902159965
C            0.76538495712069       -1.09978529448080       -0.31461096988917
H            1.19225513184036       -1.94283226495299        0.25620706634236
C           -0.68761199030248       -0.90139202459102        0.13671264316204
H           -1.28213407376891       -1.75865141969150       -0.19761936396773
C           -1.27647402653935        0.38409441455085       -0.46207089575945
H           -1.31327593159927        0.33259034024984       -1.56033885159931
O           -0.45283125183758        1.49295627918105       -0.06033085337898
O           -2.56230624980075        0.60914528482699       -0.00096835408678
O           -0.79385782108030       -0.85076111447375        1.55683823693626
O            0.71133222297719       -1.39812543022192       -1.71046982929865
O            1.81136751350499        0.38098560793218        1.33760603308731
H            0.82916215056251        1.33605423979242       -1.69769547984775
H            1.38964174906475        2.30392978626332       -0.30218591189029
H           -2.55906108234492        0.37845340759831        0.94050775185297
H           -0.20785636439949       -0.13172630883302        1.84647985495343
H            1.60208005880203       -1.60325602013463       -2.01570721258651
H            2.25050132881105       -0.40092439246222        1.69507241220758
20
 energy: -572.563570166918 gnorm: 0.000809726377 xtb: 6.7.1 (41059b4)
C            0.86029913959292        1.39380710477097       -0.59715587106462
C            1.59648825486665        0.17258525020954       -0.06596413719866
H            2.56272029829080        0.08668033275362       -0.59478906936752
C            0.76523779132539       -1.09965210309503       -0.31436245896793
H            1.19257704067922       -1.94286154881669        0.25565960424610
C           -0.68773795897338       -0.90180220637062        0.13727848818039
H           -1.28190786467274       -1.75923596715850       -0.19687363006368
C           -1.27629981835659        0.38313327204352       -0.46232166974876
H           -1.31231310732986        0.33083516407790       -1.56048622717775
O           -0.45334411638354        1.49253304164249       -0.06033383588964
O           -2.56308010642635        0.60826199073274       -0.00278337696091
O           -0.79397036114080       -0.85094716262212        1.55747223992477
O            0.71052193999311       -1.39735123721121       -1.71052951780120
O            1.81237531223121        0.38093703267916        1.33741515816597
H            0.82963455288397        1.33688568088646       -1.69710722948834
H            1.38931228234552        2.30368521557895       -0.30071949769397
H           -2.56023960924301        0.38198844541707        0.93969526253070
H           -0.20780425914575       -0.13229244895617        1.84703598666533
H            1.60088717242623       -1.60288553589796       -2.01675111847033
H            2.25204777591032       -0.40003938323150        1.69512163366951
20
 energy: -572.563570166918 gnorm: 0.000809726377 xtb: 6.7.1 (41059b4)
C            0.86029913959292        1.39380710477097       -0.59715587106462
C            1.59648825486665        0.17258525020954       -0.06596413719866
H            2.56272029829080        0.08668033275362       -0.59478906936752
C            0.76523779132539       -1.09965210309503       -0.31436245896793
H            1.19257704067922       -1.94286154881669        0.25565960424610
C           -0.68773795897338       -0.90180220637062        0.13727848818039
H           -1.28190786467274       -1.75923596715850       -0.19687363006368
C           -1.27629981835659        0.38313327204352       -0.46232166974876
H           -1.31231310732986        0.33083516407790       -1.56048622717775
O           -0.45334411638354        1.49253304164249       -0.06033383588964
O           -2.56308010642635        0.60826199073274       -0.00278337696091
O           -0.79397036114080       -0.85094716262212        1.55747223992477
O            0.71052193999311       -1.39735123721121       -1.71052951780120
O            1.81237531223121        0.38093703267916        1.33741515816597
H            0.82963455288397        1.33688568088646       -1.69710722948834
H            1.38931228234552        2.30368521557895       -0.30071949769397
H           -2.56023960924301        0.38198844541707        0.93969526253070
H           -0.20780425914575       -0.13229244895617        1.84703598666533
H            1.60088717242623       -1.60288553589796       -2.01675111847033
H            2.25204777591032       -0.40003938323150        1.69512163366951
