
                                 *****************
                                 * O   R   C   A *
                                 *****************

                                            #,                                       
                                            ###                                      
                                            ####                                     
                                            #####                                    
                                            ######                                   
                                           ########,                                 
                                     ,,################,,,,,                         
                               ,,#################################,,                 
                          ,,##########################################,,             
                       ,#########################################, ''#####,          
                    ,#############################################,,   '####,        
                  ,##################################################,,,,####,       
                ,###########''''           ''''###############################       
              ,#####''   ,,,,##########,,,,          '''####'''          '####       
            ,##' ,,,,###########################,,,                        '##       
           ' ,,###''''                  '''############,,,                           
         ,,##''                                '''############,,,,        ,,,,,,###''
      ,#''                                            '''#######################'''  
     '                                                          ''''####''''         
             ,#######,   #######,   ,#######,      ##                                
            ,#'     '#,  ##    ##  ,#'     '#,    #''#        ,####,   ,####,        
            ##       ##  ##   ,#'  ##            #'  '#       #'       #'  '#        
            ##       ##  #######   ##           ,######,      #####,   #    #        
            '#,     ,#'  ##    ##  '#,     ,#' ,#      #,     #,   #   #,  ,#        
             '#######'   ##     ##  '#######'  #'      '#     '####' # '####'        



                #########################################################
                #                        -***-                          #
                #          Department of theory and spectroscopy        #
                #                                                       #
                #                      Frank Neese                      #
                #                                                       #
                #     Directorship, Architecture, Infrastructure        #
                #                    SHARK, DRIVERS                     #
                #        Core code/Algorithms in most modules           #
                #                                                       #
                #        Max Planck Institute fuer Kohlenforschung      #
                #                Kaiser Wilhelm Platz 1                 #
                #                 D-45470 Muelheim/Ruhr                 #
                #                      Germany                          #
                #                                                       #
                #                  All rights reserved                  #
                #                        -***-                          #
                #########################################################


                         Program Version 6.0.1  -  RELEASE   -


 With contributions from (in alphabetic order):
[Max-Planck-Institut fuer Kohlenforschung]                               
  Daniel Aravena         : Magnetic Suceptibility                        
  Michael Atanasov       : Ab Initio Ligand Field Theory (pilot matlab implementation)
  Alexander A. Auer      : GIAO ZORA, VPT2 properties, NMR spectrum      
  Ute Becker             : All parallelization in ORCA, NUMFREQ, NUMCALC 
  Giovanni Bistoni       : ED, misc. LED, open-shell LED, HFLD           
  Martin Brehm           : Molecular dynamics                            
  Dmytro Bykov           : pre 5.0 version of the SCF Hessian            
  Marcos Casanova-Páez   : Triplet and SCS-CIS(D). UHF-(DLPNO)-IP/EA/STEOM-CCSD. UHF-CVS-IP/STEOM-CCSD   
  Vijay G. Chilkuri      : MRCI spin determinant printing, contributions to CSF-ICE 
  Pauline Colinet        : FMM embedding                                 
  Dipayan Datta          : RHF DLPNO-CCSD density                        
  Achintya Kumar Dutta   : EOM-CC, STEOM-CC                              
  Nicolas Foglia         : Exact transition moments, OPA infrastructure, MCD improvements    
  Dmitry Ganyushin       : Spin-Orbit,Spin-Spin,Magnetic field MRCI      
  Miquel Garcia-Rates    : C-PCM and meta-GGA Hessian, CCSD/C-PCM, Gaussian charge scheme 
  Tiago L. C. Gouveia    : GS-ROHF, GS-ROCIS                             
  Yang Guo               : DLPNO-NEVPT2, F12-NEVPT2, CIM, IAO-localization        
  Andreas Hansen         : Spin unrestricted coupled pair/coupled cluster methods 
  Ingolf Harden          : AUTO-CI MPn and infrastructure                
  Benjamin Helmich-Paris : MC-RPA, TRAH-(SCF,CASSCF), AVAS, COSX integrals, SCF dyn. polar. 
  Lee Huntington         : MR-EOM, pCC                                   
  Robert Izsak           : Overlap fitted RIJCOSX, COSX-SCS-MP3, EOM     
  Riya Kayal             : Wick's Theorem for AUTO-CI, AUTO-CI UHF-CCSDT 
  Emily Kempfer          : AUTO-CI, RHF CISDT and CCSDT                  
  Christian Kollmar      : KDIIS, OOCD, Brueckner-CCSD(T), CCSD density, CASPT2, CASPT2-K, improved NEVPT2 
  Axel Koslowski         : Symmetry handling                             
  Simone Kossmann        : meta-GGA functionals, TD-DFT gradient, OOMP2, (MP2 Hessian; deprecated post 5.0) 
  Lucas Lang             : DCDCAS                                        
  Marvin Lechner         : AUTO-CI (C++ implementation), FIC-MRCC        
  Spencer Leger          : CASSCF response                               
  Dagmar Lenk            : GEPOL surface, SMD, ORCA-2-JSON               
  Dimitrios Liakos       : Extrapolation schemes; Compound Job, initial MDCI parallelization 
  Dimitrios Manganas     : Further ROCIS development; embedding schemes. LFT, Crystal Embedding 
  Dimitrios Pantazis     : SARC Basis sets                               
  Anastasios Papadopoulos: AUTO-CI, single reference methods and gradients 
  Taras Petrenko         : pre 6.0 DFT Hessian and TD-DFT gradient, (ASA, deprecated), ECA, 1-Electron XAS/XES, NRVS 
  Peter Pinski           : DLPNO-MP2, DLPNO-MP2 Gradient                 
  Christoph Reimann      : Effective Core Potentials                     
  Marius Retegan         : Local ZFS, SOC                                
  Christoph Riplinger    : Optimizer, TS searches, QM/MM, DLPNO-CCSD(T), (RO)-DLPNO pert. Triples 
  Michael Roemelt        : Original ROCIS implementation                 
  Masaaki Saitow         : Open-shell DLPNO-CCSD energy and density      
  Barbara Sandhoefer     : DKH picture change effects                    
  Kantharuban Sivalingam : CASSCF convergence/infrastructure, NEVPT2 and variants, FIC-MRCI 
  Bernardo de Souza      : ESD, SOC TD-DFT                               
  Georgi L. Stoychev     : AutoAux, RI-MP2 NMR, DLPNO-MP2 response, X2C  
  Van Anh Tran           : RI-MP2 g-tensors                              
  Willem Van den Heuvel  : Paramagnetic NMR                              
  Zikuan Wang            : NOTCH, Electric field optimization            
  Frank Wennmohs         : Technical directorship and infrastructure     
  Hang Xu                : AUTO-CI-Response properties                   
                                                                         
[FACCTs GmbH]                                                            
  Markus Bursch, Miquel Garcia-Rates, Christoph Riplinger, Bernardo de Souza, Georgi L. Stoychev 
                                                                 
  APM, Basis sets (HGBS, AHGBS, def-TZVP (Ac-Lr), def2-XVPD (La-Lu)), CI-OPT, improved COSX, DLPNO-Multilevel,           
  DOCKER, DRACO, updates on ESD, GOAT, IRC, LR-CPCM, MBIS, meta-GGA TD-DFT gradient, ML-optimized integration grids, 
  MM, NACMEs, nearIR, NEB, NEB-TS, NL-DFT gradient (VV10), 2- and 3-layer-ONIOM, interface openCOSMO-RS, QMMM,   
  Crystal-QMMM, SF, symmetry and pop. for TD-DFT, r2SCAN hybrids, SOLVATOR                                   
                                                                         
[Other institutions]                                                     
  V. Asgeirsson          : NEB                                           
  Christoph Bannwarth    : sTDA-DFT, sTD-DFT, PBEh-3c, B97-3c, D3        
  Sebastian Ehlert       : rSCAN, r2SCAN, r2SCAN-3c, D4, dhf basis sets  
  Marvin Friede          : D4 for Fr, Ra, Ac-Lr                          
  Lars Goerigk           : TD-DFT with DH, B97 family of functionals     
  Stefan Grimme          : VdW corrections, initial TS optimization, DFT functionals, gCP, sTDA/sTD-DF 
  Waldemar Hujo          : DFT-NL                                        
  H. Jonsson             : NEB                                           
  Holger Kruse           : gCP                                           
  Marcel Mueller         : wB97X-3c, vDZP basis set                      
  Hagen Neugebauer       : wr2SCAN                                       
  Tobias Risthaus        : range-separated hybrid DFT                    
  Lukas Wittmann         : regularized MP2, r2SCAN double-hybrids, wr2SCAN        
                                                                         
We gratefully acknowledge several colleagues who have allowed us to      
interface, adapt or use parts of their codes:                            
  Ed Valeev, F. Pavosevic, A. Kumar             : LibInt (2-el integral package), F12 methods 
  Garnet Chan, S. Sharma, J. Yang, R. Olivares  : DMRG                   
  Ulf Ekstrom                                   : XCFun DFT Library      
  Mihaly Kallay                                 : mrcc  (arbitrary order and MRCC methods)
  Frank Weinhold                                : gennbo (NPA and NBO analysis)           
  Simon Mueller                                 : openCOSMO-RS                            
  Christopher J. Cramer and Donald G. Truhlar   : smd solvation model                     
  S Lehtola, MJT Oliveira, MAL Marques          : LibXC Library                           
  Liviu Ungur et al                             : ANISO software                          


 Your calculation uses the libint2 library for the computation of 2-el integrals
 For citations please refer to: http://libint.valeyev.net

 Your ORCA version has been built with support for libXC version: 6.2.2
 For citations please refer to: https://libxc.gitlab.io

 This ORCA versions uses:
   CBLAS   interface :  Fast vector & matrix operations
   LAPACKE interface :  Fast linear algebra routines
   SCALAPACK package :  Parallel linear algebra routines
   Shared memory     :  Shared parallel matrices
   BLAS/LAPACK       :  OpenBLAS 0.3.27  USE64BITINT DYNAMIC_ARCH NO_AFFINITY Zen SINGLE_THREADED
        Core in use  :  Zen
   Copyright (c) 2011-2014, The OpenBLAS Project


Your calculation utilizes the geometrical counterpoise correction gCP
Please cite in your paper:
H.Kruse, S. Grimme J.Chem.Phys., 136, (2012), 154101 
   

Your calculation utilizes the atom-pairwise dispersion correction
based on EEQ partial charges (D4)


================================================================================

----- Orbital basis set information -----
Your calculation utilizes the basis: def2-mTZVPP
   Stefan Grimme, Andreas Hansen, Sebastian Ehlert, and Jan-Michael Mewes 
   J. Chem. Phys. 154, 064103 (2021). DOI: 10.1063/5.0040021

----- AuxJ basis set information -----
Your calculation utilizes the auxiliary basis: def2/J
   F. Weigend, Phys. Chem. Chem. Phys. 8, 1057 (2006).

================================================================================
                                        WARNINGS
                       Please study these warnings very carefully!
================================================================================

WARNING: Old DensityContainer found on disk!
         Will remove this file - 
         If you want to keep old densities, please start your calculation with a different basename. 



WARNING: SCAN, rSCAN, or r2SCAN functional requested.
  ===> : libXC variant has now been activated.



================================================================================
                                       INPUT FILE
================================================================================
NAME = sp.inp
|  1> ! r2scan-3c def2/J RI DEFGRID2 scfconv6 printgap
|  2> %output
|  3>     printlevel normal
|  4> end
|  5> * xyz 0 1
|  6> C -1.2624754685 -0.0001522222 -0.0001233633
|  7> C -0.5730792075 -1.2148433506 -0.0067457993
|  8> C 0.8242873203 -1.2109864464 -0.0157015252
|  9> C 1.5192457758 0.0001759106 5.33888e-05
| 10> C 0.8239990691 1.2111494034 0.0155154292
| 11> C -0.573384243 1.2146977003 0.0063737021
| 12> Cl -1.4126426705 2.7047122518 0.0478455492
| 13> Cl 1.6827864546 2.6870633466 0.0437107103
| 14> Cl 3.224494704 0.0003675026 0.0003959487
| 15> Cl 1.6834280046 -2.686671376 -0.043892579
| 16> Cl -1.4120233863 -2.7050376744 -0.0486191707
| 17> N -2.7232853407 -0.0003090812 0.0003942846
| 18> O -3.2657255915 0.7003279951 -0.8128748496
| 19> O -3.2648161133 -0.7010499959 0.8142411335
| 20> *
| 21> 
| 22>                          ****END OF INPUT****
================================================================================

                       ****************************
                       * Single Point Calculation *
                       ****************************

---------------------------------
CARTESIAN COORDINATES (ANGSTROEM)
---------------------------------
  C     -1.262475   -0.000152   -0.000123
  C     -0.573079   -1.214843   -0.006746
  C      0.824287   -1.210986   -0.015702
  C      1.519246    0.000176    0.000053
  C      0.823999    1.211149    0.015515
  C     -0.573384    1.214698    0.006374
  Cl    -1.412643    2.704712    0.047846
  Cl     1.682786    2.687063    0.043711
  Cl     3.224495    0.000368    0.000396
  Cl     1.683428   -2.686671   -0.043893
  Cl    -1.412023   -2.705038   -0.048619
  N     -2.723285   -0.000309    0.000394
  O     -3.265726    0.700328   -0.812875
  O     -3.264816   -0.701050    0.814241

----------------------------
CARTESIAN COORDINATES (A.U.)
----------------------------
  NO LB      ZA    FRAG     MASS         X           Y           Z
   0 C     6.0000    0    12.011   -2.385733   -0.000288   -0.000233
   1 C     6.0000    0    12.011   -1.082963   -2.295721   -0.012748
   2 C     6.0000    0    12.011    1.557677   -2.288433   -0.029672
   3 C     6.0000    0    12.011    2.870958    0.000332    0.000101
   4 C     6.0000    0    12.011    1.557133    2.288741    0.029320
   5 C     6.0000    0    12.011   -1.083539    2.295446    0.012045
   6 Cl   17.0000    0    35.453   -2.669508    5.111165    0.090415
   7 Cl   17.0000    0    35.453    3.180006    5.077814    0.082601
   8 Cl   17.0000    0    35.453    6.093412    0.000694    0.000748
   9 Cl   17.0000    0    35.453    3.181218   -5.077073   -0.082945
  10 Cl   17.0000    0    35.453   -2.668337   -5.111780   -0.091877
  11 N     7.0000    0    14.007   -5.146263   -0.000584    0.000745
  12 O     8.0000    0    15.999   -6.171327    1.323428   -1.536111
  13 O     8.0000    0    15.999   -6.169608   -1.324792    1.538693

--------------------------------
INTERNAL COORDINATES (ANGSTROEM)
--------------------------------
 C      0   0   0     0.000000000000     0.00000000     0.00000000
 C      1   0   0     1.396705265528     0.00000000     0.00000000
 C      2   1   0     1.397400548788   119.41984619     0.00000000
 C      3   2   1     1.396470453393   119.99754665     0.85362194
 C      4   3   2     1.396446869070   120.29604702   359.55986220
 C      1   2   3     1.396692257843   120.86078088   359.58348213
 Cl     6   1   2     1.710619182025   121.04350058   181.30381288
 Cl     5   4   3     1.707815187631   119.95071407   179.65178025
 Cl     4   3   2     1.705248973371   119.85146600   179.56048846
 Cl     3   2   1     1.707794912272   120.05153759   180.77547612
 Cl     2   1   3     1.710631414730   121.04154060   181.74196590
 N      1   2   3     1.460809972338   119.57060801   179.60083149
 O     12   1   2     1.202722088854   116.78913496   229.56003969
 O     12   1   2     1.202763526497   116.77840404    49.56728938

---------------------------
INTERNAL COORDINATES (A.U.)
---------------------------
 C      0   0   0     0.000000000000     0.00000000     0.00000000
 C      1   0   0     2.639390441653     0.00000000     0.00000000
 C      2   1   0     2.640704336600   119.41984619     0.00000000
 C      3   2   1     2.638946711026   119.99754665     0.85362194
 C      4   3   2     2.638902143114   120.29604702   359.55986220
 C      1   2   3     2.639365860691   120.86078088   359.58348213
 Cl     6   1   2     3.232601773460   121.04350058   181.30381288
 Cl     5   4   3     3.227302991974   119.95071407   179.65178025
 Cl     4   3   2     3.222453549821   119.85146600   179.56048846
 Cl     3   2   1     3.227264677098   120.05153759   180.77547612
 Cl     2   1   3     3.232624889922   121.04154060   181.74196590
 N      1   2   3     2.760530781419   119.57060801   179.60083149
 O     12   1   2     2.272815363151   116.78913496   229.56003969
 O     12   1   2     2.272893668949   116.77840404    49.56728938

---------------------
BASIS SET INFORMATION
---------------------
There are 4 groups of distinct atoms

 Group   1 Type C   : 11s6p1d contracted to 5s3p1d pattern {62111/411/1}
 Group   2 Type Cl  : 14s9p2d contracted to 5s4p2d pattern {73211/6111/11}
 Group   3 Type N   : 11s6p2d contracted to 5s3p2d pattern {62111/411/11}
 Group   4 Type O   : 11s6p2d contracted to 5s3p2d pattern {62111/411/11}

Atom   0C    basis set group =>   1
Atom   1C    basis set group =>   1
Atom   2C    basis set group =>   1
Atom   3C    basis set group =>   1
Atom   4C    basis set group =>   1
Atom   5C    basis set group =>   1
Atom   6Cl   basis set group =>   2
Atom   7Cl   basis set group =>   2
Atom   8Cl   basis set group =>   2
Atom   9Cl   basis set group =>   2
Atom  10Cl   basis set group =>   2
Atom  11N    basis set group =>   3
Atom  12O    basis set group =>   4
Atom  13O    basis set group =>   4
---------------------------------
AUXILIARY/J BASIS SET INFORMATION
---------------------------------
There are 4 groups of distinct atoms

 Group   1 Type C   : 12s5p4d2f1g contracted to 6s4p3d1f1g pattern {711111/2111/211/2/1}
 Group   2 Type Cl  : 14s5p5d2f1g contracted to 8s4p3d1f1g pattern {71111111/2111/311/2/1}
 Group   3 Type N   : 12s5p4d2f1g contracted to 6s4p3d1f1g pattern {711111/2111/211/2/1}
 Group   4 Type O   : 12s5p4d2f1g contracted to 6s4p3d1f1g pattern {711111/2111/211/2/1}

Atom   0C    basis set group =>   1
Atom   1C    basis set group =>   1
Atom   2C    basis set group =>   1
Atom   3C    basis set group =>   1
Atom   4C    basis set group =>   1
Atom   5C    basis set group =>   1
Atom   6Cl   basis set group =>   2
Atom   7Cl   basis set group =>   2
Atom   8Cl   basis set group =>   2
Atom   9Cl   basis set group =>   2
Atom  10Cl   basis set group =>   2
Atom  11N    basis set group =>   3
Atom  12O    basis set group =>   4
Atom  13O    basis set group =>   4

Checking for AutoStart:
The File: sp.gbw exists
Trying to determine its content:
     ... Fine, the file contains calculation information
     ... Fine, the calculation information was read
     ... Fine, the file contains a basis set
     ... Fine, the basis set was read
     ... Fine, the file contains a geometry
     ... Fine, the geometry was read
     ... Fine, the file contains a set of orbitals
     ... Fine, the orbitals can be read
     => possible old guess file was deleted
     => GBW file was renamed to GES file
     => GES file is set as startup file
     => Guess is set to MORead
     ... now leaving AutoStart

------------------------------------------------------------------------------
                             ORCA STARTUP CALCULATIONS
                           -- RI-GTO INTEGRALS CHOSEN --
------------------------------------------------------------------------------
------------------------------------------------------------------------------
                   ___                                                        
                  /   \      - P O W E R E D   B Y -                         
                 /     \                                                     
                 |  |  |   _    _      __       _____    __    __             
                 |  |  |  | |  | |    /  \     |  _  \  |  |  /  |          
                  \  \/   | |  | |   /    \    | | | |  |  | /  /          
                 / \  \   | |__| |  /  /\  \   | |_| |  |  |/  /          
                |  |  |   |  __  | /  /__\  \  |    /   |      \           
                |  |  |   | |  | | |   __   |  |    \   |  |\   \          
                \     /   | |  | | |  |  |  |  | |\  \  |  | \   \       
                 \___/    |_|  |_| |__|  |__|  |_| \__\ |__|  \__/        
                                                                              
                      - O R C A' S   B I G   F R I E N D -                    
                                      &                                       
                       - I N T E G R A L  F E E D E R -                       
                                                                              
 v1 FN, 2020, v2 2021, v3 2022-2024                                           
------------------------------------------------------------------------------


----------------------
SHARK INTEGRAL PACKAGE
----------------------

Number of atoms                             ...     14
Number of basis functions                   ...    321
Number of shells                            ...    139
Maximum angular momentum                    ...      2
Integral batch strategy                     ... SHARK/LIBINT Hybrid
RI-J (if used) integral strategy            ... SPLIT-RIJ (Revised 2003 algorithm where possible)
Printlevel                                  ...      1
Contraction scheme used                     ... SEGMENTED contraction
Prescreening option                         ... SCHWARTZ
   Thresh                                   ... 1.000e-10
   Tcut                                     ... 1.000e-11
   Tpresel                                  ... 1.000e-11 
Coulomb Range Separation                    ... NOT USED
Exchange Range Separation                   ... NOT USED
Multipole approximations                    ... NOT USED
Finite Nucleus Model                        ... NOT USED
CABS basis                                  ... NOT available
Auxiliary Coulomb fitting basis             ... AVAILABLE
   # of basis functions in Aux-J            ...    696
   # of shells in Aux-J                     ...    220
   Maximum angular momentum in Aux-J        ...      4
Auxiliary J/K fitting basis                 ... NOT available
Auxiliary Correlation fitting basis         ... NOT available
Auxiliary 'external' fitting basis          ... NOT available

Checking pre-screening integrals            ... done (  0.0 sec) Dimension = 139
Check shell pair data                       ... done (  0.0 sec)
Shell pair information
Shell pair cut-off parameter TPreSel        ...   1.0e-11
Total number of shell pairs                 ...      9730
Shell pairs after pre-screening             ...      7776
Total number of primitive shell pairs       ...     42593
Primitive shell pairs kept                  ...     21129
          la=0 lb=0:   1732 shell pairs
          la=1 lb=0:   2682 shell pairs
          la=1 lb=1:   1000 shell pairs
          la=2 lb=0:   1219 shell pairs
          la=2 lb=1:    913 shell pairs
          la=2 lb=2:    230 shell pairs

Calculating one electron integrals          ... done (  0.0 sec)
Calculating RI/J V-Matrix + Cholesky decomp.... done (  0.0 sec)
Calculating Nuclear repulsion               ... done (  0.0 sec) ENN=   1503.194095954156 Eh

Diagonalization of the overlap matrix:
Smallest eigenvalue                        ... 6.747e-06
Time for diagonalization                   ...    0.007 sec
Threshold for overlap eigenvalues          ... 1.000e-07
Number of eigenvalues below threshold      ... 0
Time for construction of square roots      ...    0.003 sec
Total time needed                          ...    0.011 sec

-------------------
DFT GRID GENERATION
-------------------

General Integration Accuracy     IntAcc      ... 4.388
Radial Grid Type                 RadialGrid  ... OptM3 with GC (2021)
Angular Grid (max. ang.)         AngularGrid ... 4 (Lebedev-302)
Angular grid pruning method      GridPruning ... 4 (adaptive)
Weight generation scheme         WeightScheme... mBecke (2022)
Basis function cutoff            BFCut       ... 1.0000e-10
Integration weight cutoff        WCut        ... 1.0000e-14
Partially contracted basis set               ... off
Rotationally invariant grid construction     ... off
Angular grids for H and He will be reduced by one unit
Diffuse basis detected: some atoms will have their outermost
                        angular grid increased by 1.

Total number of grid points                  ...    91245
Total number of batches                      ...     1434
Average number of points per batch           ...       63
Average number of grid points per atom       ...     6518
Initializing property integral containers    ... done (  0.0 sec)

SHARK setup successfully completed in   0.7 seconds

Maximum memory used throughout the entire STARTUP-calculation: 49.0 MB
-------------------------------------------------------------------------------
                                 ORCA GUESS
                   Start orbitals & Density for SCF / CASSCF
-------------------------------------------------------------------------------

------------
SCF SETTINGS
------------
Hamiltonian:
 Density Functional     Method          .... DFT(GTOs)
  Functional kind                       .... Exchange
  Functional name                       .... Re-regularized SCAN exchange by Furness et al
  Functional family                     .... MGGA
  Functional refs                              
    [ 0] J. W. Furness, A. D. Kaplan, J. Ning, J. P. Perdew, and J. Sun.,  J. Phys. Chem. Lett. 11, 8208-8215 (2020), doi: 10.1021/acs.jpclett.0c02405
    [ 1] J. W. Furness, A. D. Kaplan, J. Ning, J. P. Perdew, and J. Sun.,  J. Phys. Chem. Lett. 11, 9248-9248 (2020), doi: 10.1021/acs.jpclett.0c03077
  Functional external parameters        .... 6
    Parameter  0 _c1        =  6.670000e-01 : c1 parameter        
    Parameter  1 _c2        =  8.000000e-01 : c2 parameter        
    Parameter  2 _d         =  1.240000e+00 : d parameter         
    Parameter  3 _k1        =  6.500000e-02 : k1 parameter        
    Parameter  4 _eta       =  1.000000e-03 : eta parameter       
    Parameter  5 _dp2       =  3.610000e-01 : dp2 parameter       
  Functional kind                       .... Correlation
  Functional name                       .... Re-regularized SCAN correlation by Furness et al
  Functional family                     .... MGGA
  Functional refs                              
    [ 0] J. W. Furness, A. D. Kaplan, J. Ning, J. P. Perdew, and J. Sun.,  J. Phys. Chem. Lett. 11, 8208-8215 (2020), doi: 10.1021/acs.jpclett.0c02405
    [ 1] J. W. Furness, A. D. Kaplan, J. Ning, J. P. Perdew, and J. Sun.,  J. Phys. Chem. Lett. 11, 9248-9248 (2020), doi: 10.1021/acs.jpclett.0c03077
  Functional external parameters        .... 1
    Parameter  0 _eta       =  1.000000e-03 : Regularization parameter
 Gradients option       PostSCFGGA      .... off
 RI-approximation to the Coulomb term is turned on
   Number of AuxJ basis functions       .... 696


General Settings:
 Integral files         IntName         .... sp
 Hartree-Fock type      HFTyp           .... RHF
 Total Charge           Charge          ....    0
 Multiplicity           Mult            ....    1
 Number of Electrons    NEL             ....  144
 Basis Dimension        Dim             ....  321
 Nuclear Repulsion      ENuc            ....   1503.1940959542 Eh

Convergence Acceleration:
 AO-DIIS                CNVDIIS         .... on
   Start iteration      DIISMaxIt       ....    12
   Startup error        DIISStart       ....  0.200000
   # of expansion vecs  DIISMaxEq       ....     5
   Bias factor          DIISBfac        ....   1.050
   Max. coefficient     DIISMaxC        ....  10.000
 MO-DIIS                CNVKDIIS        .... off
 Trust-Rad. Augm. Hess. CNVTRAH         .... auto
   Auto Start mean grad. ratio tolernc. ....  1.125000
   Auto Start start iteration           ....     1
   Auto Start num. interpolation iter.  ....    10
   Max. Number of Micro iterations      ....    24
   Max. Number of Macro iterations      .... Maxiter - #DIIS iter
   Number of Davidson start vectors     ....     2
   Converg. threshold    (grad. norm)   ....   3.330e-04
   Grad. Scal. Fac. for Micro threshold ....   0.100
   Minimum threshold for Micro iter.    ....   1.000e-02
   NR start threshold (gradient norm)   ....   1.000e-04
   Initial trust radius                 ....   0.400
   Minimum AH scaling param. (alpha)    ....   1.000
   Maximum AH scaling param. (alpha)    .... 1000.000
   Quad. conv. algorithm                .... NR
   White noise on init. David. guess    .... on
   Maximum white noise                  ....   0.010
   Pseudo random numbers                .... off
   Inactive MOs                         .... canonical
   Orbital update algorithm             .... Taylor
   Preconditioner                       .... Diag
   Full preconditioner red. dimension   ....   250
   COSX micro iterations for RIJONX calc.... off
 SOSCF                  CNVSOSCF        .... on
   Start iteration      SOSCFMaxIt      ....   150
   Startup grad/error   SOSCFStart      ....  0.003300
   Hessian update       SOSCFHessUp     .... L-BFGS
 Level Shifting         CNVShift        .... on
   Level shift para.    LevelShift      ....    0.2500
   Turn off err/grad.   ShiftErr        ....    0.0010
 Zerner damping         CNVZerner       .... off
 Static damping         CNVDamp         .... on
   Fraction old density DampFac         ....    0.7000
   Max. Damping (<1)    DampMax         ....    0.9800
   Min. Damping (>=0)   DampMin         ....    0.0000
   Turn off err/grad.   DampErr         ....    0.1000

SCF Procedure:
 Maximum # iterations   MaxIter         ....   125
 SCF integral mode      SCFMode         .... Direct
   Integral package                     .... SHARK and LIBINT hybrid scheme
 Reset frequency        DirectResetFreq ....    20
 Integral Threshold     Thresh          ....  1.000e-10 Eh
 Primitive CutOff       TCut            ....  1.000e-11 Eh

Convergence Tolerance:
 Convergence Check Mode ConvCheckMode   .... Total+1el-Energy
 Convergence forced     ConvForced      .... 0
 Energy Change          TolE            ....  1.000e-06 Eh
 1-El. energy change                    ....  1.000e-03 Eh
 Orbital Gradient       TolG            ....  3.330e-04
 Orbital Rotation angle TolX            ....  3.330e-04
 DIIS Error             TolErr          ....  1.000e-06

---------------------
INITIAL GUESS: MOREAD
---------------------
Guess MOs are being read from file: sp.ges
Input Geometry matches current geometry (good)
Atom 0: N(Shells)= 9 and 6 - projection required
Input basis set needs projection
NBasis(read)= 216
NBasis(calc)= 321
Basis set overlap was calculated
Using GuessMode=FMatrix for the initial guess
C*T matrix was formed
Effective Fockian was calculated
Effective Fockian was diagonalized
Initial density was built
                      ------------------
                      INITIAL GUESS DONE (   0.0 sec)
                      ------------------
             **** ENERGY FILE WAS UPDATED (sp.en.tmp) ****
Finished Guess after   0.1 sec
Maximum memory used throughout the entire GUESS-calculation: 28.3 MB

-------------------------------------------------------------------------------------------
                                      ORCA LEAN-SCF
                              memory conserving SCF solver
-------------------------------------------------------------------------------------------

----------------------------------------D-I-I-S--------------------------------------------
Iteration    Energy (Eh)           Delta-E    RMSDP     MaxDP     DIISErr   Damp  Time(sec)
-------------------------------------------------------------------------------------------
               ***  Starting incremental Fock matrix formation  ***
    1    -2734.2281678876570368     0.00e+00  2.83e-02  1.50e+00  6.38e-01  0.700   2.2
    2    -2734.3210322576996987    -9.29e-02  2.03e-02  1.10e+00  4.48e-01  0.700   1.9
    3    -2734.3865689816620943    -6.55e-02  1.43e-02  7.75e-01  3.14e-01  0.700   1.9
    4    -2734.4325425500219353    -4.60e-02  1.00e-02  5.44e-01  2.20e-01  0.700   1.8
                               ***Turning on AO-DIIS***
    5    -2734.4647708436259563    -3.22e-02  7.07e-03  3.83e-01  1.54e-01  0.700   1.8
    6    -2734.4873531611647195    -2.26e-02  4.96e-03  2.69e-01  1.08e-01  0.700   1.8
    7    -2734.5031784025959496    -1.58e-02  3.47e-03  1.88e-01  7.54e-02  0.700   1.8
    8    -2734.5142641713400735    -1.11e-02  8.10e-03  4.38e-01  5.28e-02  0.000   1.7
                              *** Initializing SOSCF ***
---------------------------------------S-O-S-C-F--------------------------------------
Iteration    Energy (Eh)           Delta-E    RMSDP     MaxDP     MaxGrad    Time(sec)
--------------------------------------------------------------------------------------
    9    -2734.5401555373673546    -2.59e-02  3.40e-05  1.42e-03  1.21e-04     1.8
               *** Restarting incremental Fock matrix formation ***
   10    -2734.5401557403974948    -2.03e-07  9.73e-05  4.77e-03  6.86e-05     2.3
                  *** Gradient check signals convergence ***

               *****************************************************
               *                     SUCCESS                       *
               *           SCF CONVERGED AFTER  10 CYCLES          *
               *****************************************************

             **** ENERGY FILE WAS UPDATED (sp.en.tmp) ****

----------------
TOTAL SCF ENERGY
----------------

Total Energy       :      -2734.54015574039749 Eh          -74410.62060 eV

Components:
Nuclear Repulsion  :       1503.19409595415618 Eh           40903.99087 eV
Electronic Energy  :      -4237.73425169455368 Eh         -115314.61147 eV
One Electron Energy:      -6759.70879598350984 Eh         -183941.02772 eV
Two Electron Energy:       2521.97454428895662 Eh           68626.41625 eV

Virial components:
Potential Energy   :      -5462.46049126055641 Eh         -148641.10674 eV
Kinetic Energy     :       2727.92033552015891 Eh           74230.48613 eV
Virial Ratio       :          2.00242669118084

DFT components:
N(Alpha)           :       72.000034135994 electrons
N(Beta)            :       72.000034135994 electrons
N(Total)           :      144.000068271989 electrons
E(X)               :     -192.218164806804 Eh       
E(C)               :       -5.360732144433 Eh       
E(XC)              :     -197.578896951238 Eh       

---------------
SCF CONVERGENCE
---------------

  Last Energy change         ...    2.0303e-07  Tolerance :   1.0000e-06
  Last MAX-Density change    ...    4.7743e-03  Tolerance :   1.0000e-05
  Last RMS-Density change    ...    9.7344e-05  Tolerance :   1.0000e-06
  Last DIIS Error            ...    1.2097e-04  Tolerance :   1.0000e-06
  Last Orbital Gradient      ...    6.8614e-05  Tolerance :   3.3300e-04
  Last Orbital Rotation      ...    1.7789e-04  Tolerance :   3.3300e-04


----------------
ORBITAL ENERGIES
----------------

  NO   OCC          E(Eh)            E(eV) 
   0   2.0000    -101.261932     -2755.4773 
   1   2.0000    -101.259376     -2755.4077 
   2   2.0000    -101.259373     -2755.4076 
   3   2.0000    -101.258872     -2755.3940 
   4   2.0000    -101.258866     -2755.3938 
   5   2.0000     -19.009359      -517.2710 
   6   2.0000     -19.009236      -517.2676 
   7   2.0000     -14.422794      -392.4642 
   8   2.0000     -10.162732      -276.5420 
   9   2.0000     -10.162725      -276.5418 
  10   2.0000     -10.160779      -276.4888 
  11   2.0000     -10.157483      -276.3992 
  12   2.0000     -10.157453      -276.3983 
  13   2.0000     -10.145914      -276.0844 
  14   2.0000      -9.417753      -256.2701 
  15   2.0000      -9.415160      -256.1995 
  16   2.0000      -9.415156      -256.1994 
  17   2.0000      -9.414538      -256.1826 
  18   2.0000      -9.414532      -256.1824 
  19   2.0000      -7.164484      -194.9555 
  20   2.0000      -7.161929      -194.8860 
  21   2.0000      -7.161925      -194.8859 
  22   2.0000      -7.161436      -194.8726 
  23   2.0000      -7.161430      -194.8724 
  24   2.0000      -7.154133      -194.6739 
  25   2.0000      -7.152872      -194.6396 
  26   2.0000      -7.151448      -194.6008 
  27   2.0000      -7.151445      -194.6007 
  28   2.0000      -7.150797      -194.5831 
  29   2.0000      -7.150791      -194.5829 
  30   2.0000      -7.150334      -194.5705 
  31   2.0000      -7.150331      -194.5704 
  32   2.0000      -7.149635      -194.5515 
  33   2.0000      -7.149629      -194.5513 
  34   2.0000      -1.240379       -33.7524 
  35   2.0000      -1.063738       -28.9458 
  36   2.0000      -0.955568       -26.0023 
  37   2.0000      -0.909316       -24.7438 
  38   2.0000      -0.899220       -24.4690 
  39   2.0000      -0.859422       -23.3861 
  40   2.0000      -0.849308       -23.1108 
  41   2.0000      -0.824727       -22.4420 
  42   2.0000      -0.782822       -21.3017 
  43   2.0000      -0.724610       -19.7176 
  44   2.0000      -0.689062       -18.7503 
  45   2.0000      -0.620178       -16.8759 
  46   2.0000      -0.599868       -16.3232 
  47   2.0000      -0.563574       -15.3356 
  48   2.0000      -0.548250       -14.9186 
  49   2.0000      -0.521204       -14.1827 
  50   2.0000      -0.509732       -13.8705 
  51   2.0000      -0.501017       -13.6334 
  52   2.0000      -0.476050       -12.9540 
  53   2.0000      -0.464234       -12.6324 
  54   2.0000      -0.459478       -12.5030 
  55   2.0000      -0.440850       -11.9961 
  56   2.0000      -0.423997       -11.5375 
  57   2.0000      -0.402088       -10.9414 
  58   2.0000      -0.390059       -10.6140 
  59   2.0000      -0.351044        -9.5524 
  60   2.0000      -0.348045        -9.4708 
  61   2.0000      -0.342400        -9.3172 
  62   2.0000      -0.339722        -9.2443 
  63   2.0000      -0.329091        -8.9550 
  64   2.0000      -0.326094        -8.8735 
  65   2.0000      -0.313110        -8.5202 
  66   2.0000      -0.304077        -8.2744 
  67   2.0000      -0.299128        -8.1397 
  68   2.0000      -0.294214        -8.0060 
  69   2.0000      -0.285634        -7.7725 
  70   2.0000      -0.262233        -7.1357 
  71   2.0000      -0.255430        -6.9506 
  72   0.0000      -0.135478        -3.6865 
  73   0.0000      -0.095094        -2.5876 
  74   0.0000      -0.084101        -2.2885 
  75   0.0000      -0.080822        -2.1993 
  76   0.0000      -0.022815        -0.6208 
  77   0.0000      -0.011187        -0.3044 
  78   0.0000       0.020831         0.5668 
  79   0.0000       0.036588         0.9956 
  80   0.0000       0.046236         1.2581 
  81   0.0000       0.057502         1.5647 
  82   0.0000       0.103697         2.8217 
*Only the first 10 virtual orbitals were printed.

                    ********************************
                    * MULLIKEN POPULATION ANALYSIS *
                    ********************************

-----------------------
MULLIKEN ATOMIC CHARGES
-----------------------
   0 C :    0.528471
   1 C :   -0.223458
   2 C :    0.053295
   3 C :    0.013073
   4 C :    0.053230
   5 C :   -0.223483
   6 Cl:   -0.028086
   7 Cl:   -0.040656
   8 Cl:   -0.030749
   9 Cl:   -0.040643
  10 Cl:   -0.028114
  11 N :    0.323414
  12 O :   -0.177904
  13 O :   -0.178392
Sum of atomic charges:   -0.0000000

--------------------------------
MULLIKEN REDUCED ORBITAL CHARGES
--------------------------------
  0 C s       :     3.126031  s :     3.126031
      pz      :     1.090928  p :     2.295602
      px      :     0.864989
      py      :     0.339685
      dz2     :     0.004728  d :     0.049896
      dxz     :     0.005048
      dyz     :     0.008117
      dx2y2   :     0.018323
      dxy     :     0.013681

  1 C s       :     3.503443  s :     3.503443
      pz      :     1.024144  p :     2.665304
      px      :     0.875178
      py      :     0.765982
      dz2     :     0.004172  d :     0.054711
      dxz     :     0.008238
      dyz     :     0.009065
      dx2y2   :     0.017153
      dxy     :     0.016083

  2 C s       :     3.259445  s :     3.259445
      pz      :     1.063586  p :     2.633363
      px      :     0.810270
      py      :     0.759507
      dz2     :     0.004175  d :     0.053896
      dxz     :     0.007714
      dyz     :     0.008695
      dx2y2   :     0.017049
      dxy     :     0.016263

  3 C s       :     3.274490  s :     3.274490
      pz      :     1.029177  p :     2.657916
      px      :     0.718797
      py      :     0.909942
      dz2     :     0.004173  d :     0.054521
      dxz     :     0.009139
      dyz     :     0.007875
      dx2y2   :     0.015927
      dxy     :     0.017407

  4 C s       :     3.259482  s :     3.259482
      pz      :     1.063592  p :     2.633393
      px      :     0.810339
      py      :     0.759461
      dz2     :     0.004175  d :     0.053895
      dxz     :     0.007713
      dyz     :     0.008695
      dx2y2   :     0.017047
      dxy     :     0.016263

  5 C s       :     3.503318  s :     3.503318
      pz      :     1.024123  p :     2.665453
      px      :     0.875230
      py      :     0.766100
      dz2     :     0.004172  d :     0.054711
      dxz     :     0.008238
      dyz     :     0.009066
      dx2y2   :     0.017154
      dxy     :     0.016082

  6 Cls       :     5.953938  s :     5.953938
      pz      :     3.895666  p :    11.014507
      px      :     3.760624
      py      :     3.358218
      dz2     :     0.006560  d :     0.059641
      dxz     :     0.006077
      dyz     :     0.015215
      dx2y2   :     0.014099
      dxy     :     0.017690

  7 Cls       :     5.949834  s :     5.949834
      pz      :     3.902065  p :    11.030289
      px      :     3.748471
      py      :     3.379752
      dz2     :     0.006817  d :     0.060533
      dxz     :     0.005806
      dyz     :     0.014981
      dx2y2   :     0.014274
      dxy     :     0.018654

  8 Cls       :     5.949732  s :     5.949732
      pz      :     3.894813  p :    11.020361
      px      :     3.190039
      py      :     3.935508
      dz2     :     0.006808  d :     0.060656
      dxz     :     0.019762
      dyz     :     0.001059
      dx2y2   :     0.020684
      dxy     :     0.012344

  9 Cls       :     5.949833  s :     5.949833
      pz      :     3.902060  p :    11.030275
      px      :     3.748308
      py      :     3.379907
      dz2     :     0.006817  d :     0.060535
      dxz     :     0.005811
      dyz     :     0.014978
      dx2y2   :     0.014271
      dxy     :     0.018658

 10 Cls       :     5.953948  s :     5.953948
      pz      :     3.895667  p :    11.014528
      px      :     3.760756
      py      :     3.358105
      dz2     :     0.006560  d :     0.059638
      dxz     :     0.006075
      dyz     :     0.015219
      dx2y2   :     0.014101
      dxy     :     0.017683

 11 N s       :     3.103511  s :     3.103511
      pz      :     0.953103  p :     2.981333
      px      :     1.015582
      py      :     1.012649
      dz2     :     0.159616  d :     0.591742
      dxz     :     0.097861
      dyz     :     0.097479
      dx2y2   :     0.140200
      dxy     :     0.096585

 12 O s       :     3.885573  s :     3.885573
      pz      :     1.298377  p :     4.250014
      px      :     1.644061
      py      :     1.307576
      dz2     :     0.014912  d :     0.042316
      dxz     :     0.007029
      dyz     :     0.004153
      dx2y2   :     0.008182
      dxy     :     0.008040

 13 O s       :     3.885582  s :     3.885582
      pz      :     1.298196  p :     4.250511
      px      :     1.644522
      py      :     1.307793
      dz2     :     0.014922  d :     0.042300
      dxz     :     0.007017
      dyz     :     0.004160
      dx2y2   :     0.008169
      dxy     :     0.008031


------------------------
MULLIKEN OVERLAP CHARGES
------------------------
B(  0-C ,  1-C ) :  -2.4414 B(  0-C ,  2-C ) :   1.5348 B(  0-C ,  3-C ) :  -1.4830 
B(  0-C ,  4-C ) :   1.5345 B(  0-C ,  5-C ) :  -2.4399 B(  0-C ,  6-Cl) :  -0.4755 
B(  0-C , 10-Cl) :  -0.4755 B(  0-C , 11-N ) :   0.4707 B(  0-C , 12-O ) :  -0.0723 
B(  0-C , 13-O ) :  -0.0725 B(  1-C ,  2-C ) :  -2.4186 B(  1-C ,  3-C ) :   1.4087 
B(  1-C ,  4-C ) :  -1.5231 B(  1-C ,  5-C ) :   0.6486 B(  1-C ,  9-Cl) :  -0.3441 
B(  1-C , 10-Cl) :   1.1867 B(  1-C , 11-N ) :  -0.2251 B(  1-C , 13-O ) :   0.1064 
B(  2-C ,  3-C ) :  -2.0411 B(  2-C ,  4-C ) :   1.4237 B(  2-C ,  5-C ) :  -1.5229 
B(  2-C ,  8-Cl) :  -0.3396 B(  2-C ,  9-Cl) :   1.0140 B(  2-C , 10-Cl) :  -0.3494 
B(  2-C , 11-N ) :   0.0793 B(  3-C ,  4-C ) :  -2.0412 B(  3-C ,  5-C ) :   1.4085 
B(  3-C ,  6-Cl) :   0.0552 B(  3-C ,  7-Cl) :  -0.3102 B(  3-C ,  8-Cl) :   1.0499 
B(  3-C ,  9-Cl) :  -0.3101 B(  3-C , 10-Cl) :   0.0552 B(  4-C ,  5-C ) :  -2.4178 
B(  4-C ,  6-Cl) :  -0.3493 B(  4-C ,  7-Cl) :   1.0141 B(  4-C ,  8-Cl) :  -0.3396 
B(  4-C , 11-N ) :   0.0793 B(  5-C ,  6-Cl) :   1.1867 B(  5-C ,  7-Cl) :  -0.3441 
B(  5-C , 11-N ) :  -0.2248 B(  5-C , 12-O ) :   0.1062 B(  6-Cl, 11-N ) :   0.0558 
B(  6-Cl, 12-O ) :  -0.0587 B( 10-Cl, 11-N ) :   0.0558 B( 10-Cl, 13-O ) :  -0.0587 
B( 11-N , 12-O ) :   1.0468 B( 11-N , 13-O ) :   1.0464 B( 12-O , 13-O ) :  -0.1187 



                     *******************************
                     * LOEWDIN POPULATION ANALYSIS *
                     *******************************

----------------------
LOEWDIN ATOMIC CHARGES
----------------------
   0 C :    0.164395
   1 C :   -0.125458
   2 C :   -0.196017
   3 C :   -0.184733
   4 C :   -0.196004
   5 C :   -0.125430
   6 Cl:    0.260856
   7 Cl:    0.205785
   8 Cl:    0.212858
   9 Cl:    0.205802
  10 Cl:    0.260818
  11 N :   -0.509002
  12 O :    0.013321
  13 O :    0.012809

-------------------------------
LOEWDIN REDUCED ORBITAL CHARGES
-------------------------------
  0 C s       :     2.778373  s :     2.778373
      pz      :     0.994353  p :     2.949239
      px      :     0.904265
      py      :     1.050621
      dz2     :     0.009242  d :     0.107993
      dxz     :     0.009963
      dyz     :     0.015084
      dx2y2   :     0.039924
      dxy     :     0.033781

  1 C s       :     2.879097  s :     2.879097
      pz      :     1.023888  p :     3.128703
      px      :     1.062997
      py      :     1.041818
      dz2     :     0.008143  d :     0.117658
      dxz     :     0.014845
      dyz     :     0.016679
      dx2y2   :     0.041504
      dxy     :     0.036487

  2 C s       :     2.890902  s :     2.890902
      pz      :     1.051831  p :     3.187086
      px      :     1.084255
      py      :     1.051001
      dz2     :     0.008590  d :     0.118028
      dxz     :     0.014162
      dyz     :     0.015972
      dx2y2   :     0.041022
      dxy     :     0.038281

  3 C s       :     2.892010  s :     2.892010
      pz      :     1.033481  p :     3.173639
      px      :     1.034612
      py      :     1.105546
      dz2     :     0.008578  d :     0.119085
      dxz     :     0.016747
      dyz     :     0.014516
      dx2y2   :     0.037034
      dxy     :     0.042210

  4 C s       :     2.890903  s :     2.890903
      pz      :     1.051831  p :     3.187076
      px      :     1.084261
      py      :     1.050984
      dz2     :     0.008590  d :     0.118025
      dxz     :     0.014160
      dyz     :     0.015973
      dx2y2   :     0.041019
      dxy     :     0.038283

  5 C s       :     2.879092  s :     2.879092
      pz      :     1.023867  p :     3.128680
      px      :     1.062977
      py      :     1.041836
      dz2     :     0.008143  d :     0.117659
      dxz     :     0.014844
      dyz     :     0.016680
      dx2y2   :     0.041508
      dxy     :     0.036484

  6 Cls       :     5.631391  s :     5.631391
      pz      :     3.867427  p :    10.983637
      px      :     3.728563
      py      :     3.387647
      dz2     :     0.016048  d :     0.124116
      dxz     :     0.009601
      dyz     :     0.026456
      dx2y2   :     0.028907
      dxy     :     0.043104

  7 Cls       :     5.634370  s :     5.634370
      pz      :     3.875603  p :    11.032641
      px      :     3.739734
      py      :     3.417303
      dz2     :     0.016425  d :     0.127204
      dxz     :     0.009836
      dyz     :     0.026700
      dx2y2   :     0.029173
      dxy     :     0.045069

  8 Cls       :     5.633268  s :     5.633268
      pz      :     3.868724  p :    11.026959
      px      :     3.252179
      py      :     3.906056
      dz2     :     0.016561  d :     0.126915
      dxz     :     0.034257
      dyz     :     0.001203
      dx2y2   :     0.052733
      dxy     :     0.022162

  9 Cls       :     5.634359  s :     5.634359
      pz      :     3.875598  p :    11.032631
      px      :     3.739591
      py      :     3.417442
      dz2     :     0.016425  d :     0.127209
      dxz     :     0.009845
      dyz     :     0.026694
      dx2y2   :     0.029161
      dxy     :     0.045083

 10 Cls       :     5.631400  s :     5.631400
      pz      :     3.867424  p :    10.983672
      px      :     3.728692
      py      :     3.387557
      dz2     :     0.016046  d :     0.124110
      dxz     :     0.009597
      dyz     :     0.026462
      dx2y2   :     0.028918
      dxy     :     0.043086

 11 N s       :     2.932789  s :     2.932789
      pz      :     1.097206  p :     3.299044
      px      :     1.118154
      py      :     1.083685
      dz2     :     0.300135  d :     1.277168
      dxz     :     0.265660
      dyz     :     0.228771
      dx2y2   :     0.278069
      dxy     :     0.204533

 12 O s       :     3.455269  s :     3.455269
      pz      :     1.334464  p :     4.259102
      px      :     1.595986
      py      :     1.328652
      dz2     :     0.059285  d :     0.272308
      dxz     :     0.051052
      dyz     :     0.062436
      dx2y2   :     0.044479
      dxy     :     0.055057

 13 O s       :     3.455307  s :     3.455307
      pz      :     1.334401  p :     4.259576
      px      :     1.596320
      py      :     1.328855
      dz2     :     0.059311  d :     0.272308
      dxz     :     0.051065
      dyz     :     0.062491
      dx2y2   :     0.044438
      dxy     :     0.055003


---------------------------------
LOEWDIN BOND ORDERS (THRESH 0.050000)
---------------------------------
B(  0-C ,  1-C ) :   1.2583 B(  0-C ,  2-C ) :   0.0939 B(  0-C ,  3-C ) :   0.0855 
B(  0-C ,  4-C ) :   0.0939 B(  0-C ,  5-C ) :   1.2583 B(  0-C ,  6-Cl) :   0.1427 
B(  0-C , 10-Cl) :   0.1427 B(  0-C , 11-N ) :   1.0279 B(  0-C , 12-O ) :   0.1817 
B(  0-C , 13-O ) :   0.1817 B(  1-C ,  2-C ) :   1.3323 B(  1-C ,  3-C ) :   0.0926 
B(  1-C ,  4-C ) :   0.0896 B(  1-C ,  5-C ) :   0.0875 B(  1-C ,  9-Cl) :   0.1514 
B(  1-C , 10-Cl) :   1.4353 B(  1-C , 11-N ) :   0.1372 B(  2-C ,  3-C ) :   1.3313 
B(  2-C ,  4-C ) :   0.0920 B(  2-C ,  5-C ) :   0.0896 B(  2-C ,  8-Cl) :   0.1518 
B(  2-C ,  9-Cl) :   1.4472 B(  2-C , 10-Cl) :   0.1521 B(  3-C ,  4-C ) :   1.3313 
B(  3-C ,  5-C ) :   0.0926 B(  3-C ,  7-Cl) :   0.1515 B(  3-C ,  8-Cl) :   1.4542 
B(  3-C ,  9-Cl) :   0.1515 B(  4-C ,  5-C ) :   1.3322 B(  4-C ,  6-Cl) :   0.1521 
B(  4-C ,  7-Cl) :   1.4472 B(  4-C ,  8-Cl) :   0.1518 B(  5-C ,  6-Cl) :   1.4353 
B(  5-C ,  7-Cl) :   0.1514 B(  5-C , 11-N ) :   0.1373 B(  6-Cl,  7-Cl) :   0.0634 
B(  6-Cl, 11-N ) :   0.0527 B(  6-Cl, 12-O ) :   0.0882 B(  7-Cl,  8-Cl) :   0.0628 
B(  8-Cl,  9-Cl) :   0.0628 B(  9-Cl, 10-Cl) :   0.0634 B( 10-Cl, 11-N ) :   0.0527 
B( 10-Cl, 13-O ) :   0.0881 B( 11-N , 12-O ) :   2.6549 B( 11-N , 13-O ) :   2.6546 
B( 12-O , 13-O ) :   0.5946 

------------------------------------------
LOEWDIN REDUCED ORBITAL POPULATIONS PER MO
-------------------------------------------
THRESHOLD FOR PRINTING IS 0.1%%
                      0         1         2         3         4         5   
                 -101.26193 -101.25938 -101.25937 -101.25887 -101.25887 -19.00936
                   2.00000   2.00000   2.00000   2.00000   2.00000   2.00000
                  --------  --------  --------  --------  --------  --------
 6 Cl s               0.0       0.0       0.0       0.1      99.9       0.0
 7 Cl s               0.0       0.8      99.2       0.0       0.0       0.0
 8 Cl s             100.0       0.0       0.0       0.0       0.0       0.0
 9 Cl s               0.0      99.2       0.8       0.0       0.0       0.0
10 Cl s               0.0       0.0       0.0      99.9       0.1       0.0
13 O  s               0.0       0.0       0.0       0.0       0.0      99.8

                      6         7         8         9        10        11   
                 -19.00924 -14.42279 -10.16273 -10.16273 -10.16078 -10.15748
                   2.00000   2.00000   2.00000   2.00000   2.00000   2.00000
                  --------  --------  --------  --------  --------  --------
 0 C  py              0.0       0.0       0.1       0.1       0.0       0.0
 1 C  s               0.0       0.0      99.3       0.0       0.0       0.1
 2 C  s               0.0       0.0       0.2       0.0       0.4      55.4
 2 C  px              0.0       0.0       0.1       0.0       0.0       0.0
 2 C  py              0.0       0.0       0.0       0.0       0.1       0.0
 3 C  s               0.0       0.0       0.0       0.0      98.8       0.0
 3 C  py              0.0       0.0       0.0       0.0       0.0       0.2
 4 C  s               0.0       0.0       0.0       0.2       0.4      44.0
 4 C  px              0.0       0.0       0.0       0.1       0.0       0.0
 4 C  py              0.0       0.0       0.0       0.0       0.1       0.0
 5 C  s               0.0       0.0       0.0      99.3       0.0       0.1
11 N  s               0.0      99.4       0.0       0.0       0.0       0.0
12 O  s              99.8       0.0       0.0       0.0       0.0       0.0

                     12        13        14        15        16        17   
                 -10.15745 -10.14591  -9.41775  -9.41516  -9.41516  -9.41454
                   2.00000   2.00000   2.00000   2.00000   2.00000   2.00000
                  --------  --------  --------  --------  --------  --------
 0 C  s               0.0      99.3       0.0       0.0       0.0       0.0
 1 C  py              0.0       0.1       0.0       0.0       0.0       0.1
 2 C  s              43.6       0.0       0.0       0.0       0.0       0.0
 2 C  py              0.0       0.0       0.0       0.1       0.0       0.0
 3 C  s               0.8       0.0       0.0       0.0       0.0       0.0
 3 C  px              0.1       0.0       0.2       0.0       0.0       0.0
 4 C  s              55.0       0.0       0.0       0.0       0.0       0.0
 4 C  py              0.0       0.0       0.0       0.0       0.1       0.0
 7 Cl s               0.0       0.0       0.0       1.0      98.7       0.0
 8 Cl s               0.0       0.0      99.8       0.0       0.0       0.0
 9 Cl s               0.0       0.0       0.0      98.7       1.0       0.0
10 Cl s               0.0       0.0       0.0       0.0       0.0      99.7
11 N  dx2y2           0.0       0.2       0.0       0.0       0.0       0.0

                     18        19        20        21        22        23   
                  -9.41453  -7.16448  -7.16193  -7.16193  -7.16144  -7.16143
                   2.00000   2.00000   2.00000   2.00000   2.00000   2.00000
                  --------  --------  --------  --------  --------  --------
 5 C  py              0.1       0.0       0.0       0.0       0.0       0.0
 6 Cl s              99.7       0.0       0.0       0.0       0.0       0.0
 6 Cl pz              0.0       0.0       0.0       0.0       0.0       0.1
 6 Cl px              0.0       0.0       0.0       0.0       0.0      23.1
 6 Cl py              0.0       0.0       0.0       0.0       0.0      76.8
 7 Cl px              0.0       0.0       0.0      25.3       0.0       0.0
 7 Cl py              0.0       0.0       0.0      74.6       0.0       0.0
 8 Cl px              0.0     100.0       0.0       0.0       0.0       0.0
 9 Cl px              0.0       0.0      25.3       0.0       0.0       0.0
 9 Cl py              0.0       0.0      74.6       0.0       0.0       0.0
10 Cl pz              0.0       0.0       0.0       0.0       0.1       0.0
10 Cl px              0.0       0.0       0.0       0.0      23.0       0.0
10 Cl py              0.0       0.0       0.0       0.0      76.8       0.0

                     24        25        26        27        28        29   
                  -7.15413  -7.15287  -7.15145  -7.15144  -7.15080  -7.15079
                   2.00000   2.00000   2.00000   2.00000   2.00000   2.00000
                  --------  --------  --------  --------  --------  --------
 6 Cl pz              0.0       0.0       0.0       0.0       0.0      97.1
 6 Cl px              0.0       0.0       0.0       0.0       0.0       1.7
 6 Cl py              0.0       0.0       0.0       0.0       0.0       1.2
 7 Cl pz              0.0       0.0       0.0     100.0       0.0       0.0
 8 Cl pz            100.0       0.0       0.0       0.0       0.0       0.0
 8 Cl py              0.0     100.0       0.0       0.0       0.0       0.0
 9 Cl pz              0.0       0.0     100.0       0.0       0.0       0.0
10 Cl pz              0.0       0.0       0.0       0.0      97.1       0.0
10 Cl px              0.0       0.0       0.0       0.0       1.7       0.0
10 Cl py              0.0       0.0       0.0       0.0       1.2       0.0

                     30        31        32        33        34        35   
                  -7.15033  -7.15033  -7.14964  -7.14963  -1.24038  -1.06374
                   2.00000   2.00000   2.00000   2.00000   2.00000   2.00000
                  --------  --------  --------  --------  --------  --------
 0 C  s               0.0       0.0       0.0       0.0       2.1       0.0
 0 C  pz              0.0       0.0       0.0       0.0       0.0       0.4
 0 C  px              0.0       0.0       0.0       0.0       4.0       0.0
 0 C  py              0.0       0.0       0.0       0.0       0.0       0.5
 0 C  dx2y2           0.0       0.0       0.0       0.0       0.1       0.0
 1 C  s               0.0       0.0       0.0       0.0       0.2       0.0
 1 C  px              0.0       0.0       0.0       0.0       0.4       0.1
 1 C  py              0.0       0.0       0.0       0.0       0.1       0.0
 5 C  s               0.0       0.0       0.0       0.0       0.2       0.0
 5 C  px              0.0       0.0       0.0       0.0       0.4       0.1
 5 C  py              0.0       0.0       0.0       0.0       0.1       0.0
 6 Cl pz              0.0       0.0       0.0       2.8       0.0       0.0
 6 Cl px              0.0       0.0       0.0      75.2       0.0       0.0
 6 Cl py              0.0       0.0       0.0      22.0       0.0       0.0
 7 Cl px              0.0      74.7       0.0       0.0       0.0       0.0
 7 Cl py              0.0      25.3       0.0       0.0       0.0       0.0
 9 Cl px             74.7       0.0       0.0       0.0       0.0       0.0
 9 Cl py             25.3       0.0       0.0       0.0       0.0       0.0
10 Cl pz              0.0       0.0       2.8       0.0       0.0       0.0
10 Cl px              0.0       0.0      75.2       0.0       0.0       0.0
10 Cl py              0.0       0.0      22.0       0.0       0.0       0.0
11 N  s               0.0       0.0       0.0       0.0      32.9       0.0
11 N  pz              0.0       0.0       0.0       0.0       0.0      21.2
11 N  px              0.0       0.0       0.0       0.0       2.5       0.0
11 N  py              0.0       0.0       0.0       0.0       0.0      15.9
11 N  dxz             0.0       0.0       0.0       0.0       0.0       2.2
11 N  dyz             0.0       0.0       0.0       0.0       2.2       0.0
11 N  dxy             0.0       0.0       0.0       0.0       0.0       1.6
12 O  s               0.0       0.0       0.0       0.0      17.2      24.6
12 O  pz              0.0       0.0       0.0       0.0       3.7       1.1
12 O  px              0.0       0.0       0.0       0.0       1.0       1.4
12 O  py              0.0       0.0       0.0       0.0       2.8       0.8
12 O  dz2             0.0       0.0       0.0       0.0       0.2       0.1
12 O  dxz             0.0       0.0       0.0       0.0       0.4       0.1
12 O  dyz             0.0       0.0       0.0       0.0       1.4       0.4
12 O  dx2y2           0.0       0.0       0.0       0.0       0.1       0.2
12 O  dxy             0.0       0.0       0.0       0.0       0.3       0.1
13 O  s               0.0       0.0       0.0       0.0      17.2      24.6
13 O  pz              0.0       0.0       0.0       0.0       3.7       1.1
13 O  px              0.0       0.0       0.0       0.0       1.0       1.4
13 O  py              0.0       0.0       0.0       0.0       2.8       0.8
13 O  dz2             0.0       0.0       0.0       0.0       0.2       0.1
13 O  dxz             0.0       0.0       0.0       0.0       0.4       0.1
13 O  dyz             0.0       0.0       0.0       0.0       1.4       0.4
13 O  dx2y2           0.0       0.0       0.0       0.0       0.1       0.2
13 O  dxy             0.0       0.0       0.0       0.0       0.3       0.1

                     36        37        38        39        40        41   
                  -0.95557  -0.90932  -0.89922  -0.85942  -0.84931  -0.82473
                   2.00000   2.00000   2.00000   2.00000   2.00000   2.00000
                  --------  --------  --------  --------  --------  --------
 0 C  s               6.7       0.0       7.2       0.0       2.6       6.7
 0 C  px              1.9       0.0       0.1       0.0       0.0       0.1
 0 C  py              0.0       4.9       0.0       2.8       0.0       0.0
 0 C  dz2             0.1       0.0       0.1       0.0       0.0       0.1
 1 C  s               9.9       7.5       5.3       2.4       0.2       0.2
 1 C  px              0.5       0.1       2.7       3.0       1.4       1.0
 1 C  py              0.1       3.0       0.0       2.0       0.8      11.3
 1 C  dz2             0.1       0.1       0.1       0.0       0.0       0.0
 1 C  dxy             0.0       0.0       0.0       0.1       0.0       0.2
 2 C  s              12.5       7.7       0.9       2.2       1.6       0.7
 2 C  px              0.0       0.1       5.8       3.3       0.4       0.1
 2 C  py              0.3       3.1       0.2       1.9       6.5       1.1
 2 C  dz2             0.2       0.1       0.0       0.0       0.0       0.0
 2 C  dxy             0.0       0.0       0.0       0.1       0.2       0.0
 3 C  s              13.6       0.0       9.2       0.0       2.4       0.2
 3 C  px              0.2       0.0       4.9       0.0       5.8       4.7
 3 C  py              0.0       5.3       0.0       2.8       0.0       0.0
 3 C  dz2             0.2       0.0       0.1       0.0       0.0       0.0
 3 C  dx2y2           0.0       0.0       0.1       0.0       0.3       0.1
 4 C  s              12.5       7.7       0.9       2.2       1.6       0.7
 4 C  px              0.0       0.1       5.8       3.3       0.4       0.1
 4 C  py              0.3       3.1       0.2       1.9       6.5       1.1
 4 C  dz2             0.2       0.1       0.0       0.0       0.0       0.0
 4 C  dxy             0.0       0.0       0.0       0.1       0.2       0.0
 5 C  s               9.9       7.5       5.3       2.4       0.2       0.2
 5 C  px              0.5       0.1       2.7       3.0       1.4       1.0
 5 C  py              0.1       3.0       0.0       2.0       0.8      11.3
 5 C  dz2             0.1       0.1       0.1       0.0       0.0       0.0
 5 C  dxy             0.0       0.0       0.0       0.1       0.0       0.2
 6 Cl s               3.3       9.7       7.3      15.3       0.1      21.3
 6 Cl px              0.3       0.4       0.1       0.1       0.0       0.1
 6 Cl py              0.6       0.7       0.6       0.4       0.0       0.2
 6 Cl dxy             0.1       0.2       0.1       0.1       0.0       0.0
 7 Cl s               4.5      10.2       1.8      15.0      19.1       0.1
 7 Cl px              0.3       0.4       0.0       0.1       0.2       0.0
 7 Cl py              0.9       0.7       0.2       0.4       0.3       0.0
 7 Cl dxy             0.1       0.2       0.0       0.1       0.1       0.0
 8 Cl s               5.3       0.0      18.9       0.0      22.5       6.8
 8 Cl px              1.2       0.0       1.5       0.0       0.5       0.1
 8 Cl py              0.0       0.1       0.0       0.1       0.0       0.0
 8 Cl dz2             0.1       0.0       0.1       0.0       0.0       0.0
 8 Cl dx2y2           0.2       0.0       0.3       0.0       0.1       0.0
 9 Cl s               4.5      10.2       1.8      15.0      19.1       0.1
 9 Cl px              0.3       0.4       0.0       0.1       0.2       0.0
 9 Cl py              0.9       0.7       0.2       0.4       0.3       0.0
 9 Cl dxy             0.1       0.2       0.0       0.1       0.1       0.0
10 Cl s               3.3       9.7       7.3      15.3       0.1      21.3
10 Cl px              0.3       0.4       0.1       0.1       0.0       0.1
10 Cl py              0.6       0.7       0.6       0.4       0.0       0.2
10 Cl dxy             0.1       0.2       0.1       0.1       0.0       0.0
11 N  s               0.1       0.0       0.2       0.0       0.1       0.6
11 N  px              1.7       0.0       3.7       0.0       2.0       4.0
11 N  py              0.0       0.1       0.0       0.1       0.0       0.0
11 N  dz2             0.3       0.0       0.4       0.0       0.1       0.1
11 N  dyz             0.0       0.0       0.1       0.0       0.0       0.1
11 N  dx2y2           0.2       0.0       0.3       0.0       0.2       0.8
11 N  dxy             0.0       0.2       0.0       0.2       0.0       0.0
12 O  s               0.2       0.0       0.5       0.0       0.3       0.6
12 O  px              0.1       0.0       0.2       0.0       0.1       0.3
12 O  dxz             0.1       0.0       0.1       0.0       0.1       0.1
12 O  dx2y2           0.0       0.0       0.1       0.0       0.0       0.1
12 O  dxy             0.0       0.0       0.0       0.0       0.0       0.3
13 O  s               0.2       0.0       0.5       0.0       0.3       0.6
13 O  px              0.1       0.0       0.2       0.0       0.1       0.3
13 O  dxz             0.1       0.0       0.1       0.0       0.1       0.1
13 O  dx2y2           0.0       0.0       0.1       0.0       0.0       0.1
13 O  dxy             0.0       0.0       0.0       0.0       0.0       0.3

                     42        43        44        45        46        47   
                  -0.78282  -0.72461  -0.68906  -0.62018  -0.59987  -0.56357
                   2.00000   2.00000   2.00000   2.00000   2.00000   2.00000
                  --------  --------  --------  --------  --------  --------
 0 C  s               5.2       0.0       1.1       0.0       3.9       0.0
 0 C  pz              0.0       0.0       0.0       0.1       0.0       0.8
 0 C  px              5.5       0.0      13.2       0.0       3.2       0.0
 0 C  py              0.0       5.3       0.0      15.3       0.0       5.8
 0 C  dx2y2           0.1       0.0       0.4       0.0       0.3       0.0
 0 C  dxy             0.0       0.3       0.0       0.2       0.0       0.0
 1 C  s               0.3       6.8       3.9       3.7       0.4       0.3
 1 C  px              3.0       3.9       0.1       3.1       6.7       5.1
 1 C  py              0.2       1.6       1.8       1.2       4.5       1.9
 1 C  dx2y2           0.0       0.2       0.0       0.0       0.3       0.0
 1 C  dxy             0.1       0.0       0.1       0.1       0.0       0.0
 2 C  s               2.5       6.7       0.6       4.1       1.8       0.1
 2 C  px              1.0       3.9       4.7       2.2       4.6       8.0
 2 C  py              5.5       1.5       2.8       0.9       2.4       2.3
 2 C  dx2y2           0.0       0.2       0.2       0.0       0.1       0.0
 2 C  dxy             0.1       0.0       0.1       0.1       0.0       0.0
 3 C  s               3.8       0.0       9.2       0.0       2.8       0.0
 3 C  px              7.4       0.0       2.3       0.0       0.0       0.0
 3 C  py              0.0       5.0       0.0      13.8       0.0      11.7
 3 C  dx2y2           0.1       0.0       0.3       0.0       0.0       0.0
 3 C  dxy             0.0       0.3       0.0       0.2       0.0       0.0
 4 C  s               2.5       6.7       0.6       4.1       1.8       0.1
 4 C  px              1.0       3.9       4.7       2.2       4.6       8.0
 4 C  py              5.5       1.5       2.8       0.9       2.4       2.3
 4 C  dx2y2           0.0       0.2       0.2       0.0       0.1       0.0
 4 C  dxy             0.1       0.0       0.1       0.1       0.0       0.0
 5 C  s               0.3       6.8       3.9       3.7       0.4       0.3
 5 C  px              3.0       3.9       0.1       3.1       6.7       5.1
 5 C  py              0.2       1.6       1.8       1.2       4.5       1.9
 5 C  dx2y2           0.0       0.2       0.0       0.0       0.3       0.0
 5 C  dxy             0.1       0.0       0.1       0.1       0.0       0.0
 6 Cl s               0.2       8.4       2.4       4.3       1.0       0.1
 6 Cl px              0.0       0.3       0.3       0.2       1.4       1.8
 6 Cl py              0.0       1.0       0.5       2.9       0.2       0.0
 6 Cl dz2             0.0       0.1       0.0       0.1       0.0       0.0
 6 Cl dx2y2           0.0       0.0       0.0       0.2       0.0       0.1
 6 Cl dxy             0.0       0.2       0.1       0.1       0.2       0.2
 7 Cl s               8.0       8.1       0.5       4.5       2.1       0.1
 7 Cl px              0.1       0.3       0.0       0.4       1.6       0.7
 7 Cl py              0.1       1.0       0.2       3.0       0.8       0.9
 7 Cl dz2             0.0       0.1       0.0       0.1       0.1       0.0
 7 Cl dx2y2           0.0       0.0       0.1       0.2       0.0       0.3
 7 Cl dxy             0.0       0.2       0.0       0.1       0.3       0.0
 8 Cl s               7.0       0.0      10.1       0.0       2.9       0.0
 8 Cl px              0.3       0.0       3.0       0.0       2.9       0.0
 8 Cl py              0.0       0.0       0.0       0.5       0.0       1.6
 8 Cl dz2             0.0       0.0       0.1       0.0       0.1       0.0
 8 Cl dx2y2           0.1       0.0       0.4       0.0       0.2       0.0
 8 Cl dxy             0.0       0.0       0.0       0.2       0.0       0.4
 9 Cl s               8.0       8.1       0.5       4.5       2.1       0.1
 9 Cl px              0.1       0.3       0.0       0.4       1.6       0.7
 9 Cl py              0.1       1.0       0.2       3.0       0.8       0.9
 9 Cl dz2             0.0       0.1       0.0       0.1       0.1       0.0
 9 Cl dx2y2           0.0       0.0       0.1       0.2       0.0       0.3
 9 Cl dxy             0.0       0.2       0.0       0.1       0.3       0.0
10 Cl s               0.2       8.4       2.4       4.3       1.0       0.1
10 Cl px              0.0       0.3       0.3       0.2       1.4       1.8
10 Cl py              0.0       1.0       0.5       3.0       0.2       0.0
10 Cl dz2             0.0       0.1       0.0       0.1       0.0       0.0
10 Cl dx2y2           0.0       0.0       0.0       0.2       0.0       0.1
10 Cl dxy             0.0       0.2       0.1       0.1       0.2       0.2
11 N  s               2.4       0.0       3.6       0.0       4.3       0.0
11 N  pz              0.0       0.0       0.0       0.9       0.0       7.3
11 N  px             14.2       0.0       7.9       0.0       0.1       0.0
11 N  py              0.0       0.0       0.0       2.1       0.0      12.1
11 N  dz2             0.3       0.0       0.0       0.0       0.0       0.0
11 N  dyz             0.4       0.0       0.5       0.0       1.2       0.0
11 N  dx2y2           0.5       0.0       0.1       0.0       0.1       0.0
11 N  dxy             0.0       0.1       0.0       1.1       0.0       0.4
12 O  s               2.4       0.0       2.8       0.1       4.8       0.1
12 O  pz              0.1       0.0       0.2       0.4       2.2       3.1
12 O  px              1.4       0.0       1.7       0.1       1.1       0.1
12 O  py              0.0       0.0       0.1       0.2       1.9       3.3
12 O  dz2             0.1       0.0       0.0       0.1       0.0       0.5
12 O  dxz             0.5       0.0       0.3       0.0       0.1       0.2
12 O  dyz             0.0       0.0       0.0       0.0       0.1       0.0
12 O  dx2y2           0.2       0.0       0.1       0.1       0.0       0.3
12 O  dxy             0.4       0.0       0.2       0.0       0.1       0.2
13 O  s               2.4       0.0       2.8       0.1       4.8       0.1
13 O  pz              0.1       0.0       0.2       0.4       2.2       3.1
13 O  px              1.4       0.0       1.7       0.1       1.0       0.1
13 O  py              0.0       0.0       0.1       0.2       1.9       3.3
13 O  dz2             0.1       0.0       0.0       0.1       0.0       0.5
13 O  dxz             0.5       0.0       0.3       0.0       0.1       0.2
13 O  dyz             0.0       0.0       0.0       0.0       0.1       0.0
13 O  dx2y2           0.2       0.0       0.1       0.1       0.0       0.3
13 O  dxy             0.4       0.0       0.2       0.0       0.1       0.2

                     48        49        50        51        52        53   
                  -0.54825  -0.52120  -0.50973  -0.50102  -0.47605  -0.46423
                   2.00000   2.00000   2.00000   2.00000   2.00000   2.00000
                  --------  --------  --------  --------  --------  --------
 0 C  s               0.1       0.0       0.0       0.0       1.8       0.0
 0 C  pz              0.0       3.1       0.0       0.2       0.0       0.0
 0 C  px              6.7       0.0       0.3       0.0       1.6       0.0
 0 C  py              0.0       3.6       0.0       1.8       0.0       0.6
 0 C  dx2y2           0.1       0.0       0.5       0.0       0.0       0.0
 0 C  dxy             0.0       0.2       0.0       0.3       0.0       0.3
 1 C  s               0.0       0.2       1.2       0.3       0.6       0.1
 1 C  pz              0.0       0.7       0.0       0.0       0.0       0.1
 1 C  px              0.2       3.3       3.4       1.7       0.0       3.7
 1 C  py              2.0       0.7       1.8       0.4       3.9       5.9
 1 C  dx2y2           0.1       0.0       0.1       0.0       0.0       0.1
 1 C  dxy             0.0       0.0       0.0       0.0       0.2       0.0
 2 C  s               0.8       0.1       0.2       0.1       0.8       0.1
 2 C  pz              0.0       0.2       0.0       0.0       0.0       0.1
 2 C  px              0.0       2.2       1.4       0.7       1.8       3.6
 2 C  py              1.4       1.2       1.9       0.9       5.5       5.3
 2 C  dxy             0.0       0.0       0.0       0.0       0.3       0.0
 3 C  s               0.1       0.0       1.0       0.0       1.2       0.0
 3 C  pz              0.0       0.1       0.0       0.0       0.0       0.1
 3 C  px              0.1       0.0      11.3       0.0       1.4       0.0
 3 C  py              0.0       3.0       0.0       1.4       0.0       0.5
 3 C  dx2y2           0.0       0.0       0.0       0.0       0.1       0.0
 3 C  dxy             0.0       0.0       0.0       0.0       0.0       0.3
 4 C  s               0.8       0.1       0.2       0.1       0.8       0.1
 4 C  pz              0.0       0.2       0.0       0.0       0.0       0.1
 4 C  px              0.0       2.2       1.4       0.7       1.8       3.6
 4 C  py              1.4       1.2       1.9       0.9       5.5       5.3
 4 C  dxy             0.0       0.0       0.0       0.0       0.3       0.0
 5 C  s               0.0       0.2       1.2       0.3       0.6       0.1
 5 C  pz              0.0       0.7       0.0       0.0       0.0       0.1
 5 C  px              0.2       3.3       3.4       1.7       0.0       3.7
 5 C  py              2.0       0.7       1.8       0.4       3.9       5.9
 5 C  dx2y2           0.1       0.0       0.1       0.0       0.0       0.1
 5 C  dxy             0.0       0.0       0.0       0.0       0.2       0.0
 6 Cl s               0.8       0.0       2.7       0.1       1.5       1.9
 6 Cl px              0.2       0.0       2.0       0.1       2.6       3.3
 6 Cl py              0.9       0.3       8.2       0.6       6.9      10.4
 6 Cl dz2             0.0       0.0       0.1       0.0       0.1       0.1
 6 Cl dx2y2           0.0       0.1       0.2       0.1       0.0       0.0
 6 Cl dxy             0.0       0.0       0.2       0.0       0.2       0.1
 7 Cl s               1.3       0.1       0.6       0.1       2.9       1.7
 7 Cl px              1.1       1.0       0.2       1.0       3.8       3.0
 7 Cl py              1.7       0.0       1.6       0.1      14.5       9.2
 7 Cl dz2             0.0       0.0       0.0       0.0       0.1       0.1
 7 Cl dx2y2           0.0       0.1       0.0       0.0       0.1       0.0
 7 Cl dxy             0.1       0.1       0.0       0.1       0.2       0.1
 8 Cl s               0.0       0.0       5.9       0.0       0.0       0.0
 8 Cl px              0.0       0.0      21.3       0.0       0.1       0.0
 8 Cl py              0.0       0.8       0.0       0.5       0.0       0.0
 8 Cl dz2             0.0       0.0       0.2       0.0       0.0       0.0
 8 Cl dx2y2           0.0       0.0       0.6       0.0       0.0       0.0
 8 Cl dxy             0.0       0.1       0.0       0.1       0.0       0.0
 9 Cl s               1.3       0.1       0.6       0.1       2.9       1.7
 9 Cl px              1.1       1.0       0.2       1.0       3.8       3.0
 9 Cl py              1.7       0.0       1.6       0.1      14.5       9.1
[...]
11 N  dz2            28.8       0.0       0.0       1.2       9.1       0.0
11 N  dxz             0.0       1.7       2.4       0.0       0.0      12.0
11 N  dyz             0.7       0.0       0.0       2.4       3.6       0.0
11 N  dx2y2           7.4       0.0       0.0       1.2      24.8       0.0
11 N  dxy             0.0       1.4       3.0       0.0       0.0       8.0
12 O  s               0.0      32.3       6.7       0.2       4.0       7.3
12 O  pz              2.0       0.3       0.1       1.0       2.0       4.0
12 O  px              0.0       0.6       1.5       4.0       0.8       1.6
12 O  py              2.2       0.1       0.0       0.8       1.6       2.9
12 O  dz2            12.5       0.2       0.9       2.8       0.8       1.0
12 O  dxz             2.9       0.1       0.3       2.5       3.3       3.9
12 O  dyz             0.1       0.7       0.4       3.3       2.6       6.1
12 O  dx2y2           3.4       0.1       1.3       6.7       1.8       0.8
12 O  dxy             5.4       0.1       0.1       1.2       2.3       2.9
13 O  s               0.0      32.2       6.7       0.2       4.0       7.3
13 O  pz              2.0       0.3       0.1       1.0       2.0       4.0
13 O  px              0.0       0.6       1.5       4.1       0.8       1.6
13 O  py              2.2       0.1       0.0       0.8       1.6       2.9
13 O  dz2            12.5       0.2       0.8       2.8       0.8       1.0
13 O  dxz             2.9       0.1       0.3       2.5       3.3       3.9
13 O  dyz             0.1       0.7       0.4       3.3       2.6       6.2
13 O  dx2y2           3.4       0.1       1.3       6.7       1.8       0.8
13 O  dxy             5.4       0.1       0.1       1.2       2.3       2.9

                    306       307       308       309       310       311   
                   4.83414  21.20884  21.75432  21.84966  22.01319  22.11301
                   0.00000   0.00000   0.00000   0.00000   0.00000   0.00000
                  --------  --------  --------  --------  --------  --------
 0 C  s               0.1       4.3       0.0       7.2       0.0      25.1
 0 C  py              0.0       0.0       0.2       0.0       0.1       0.0
 1 C  s               0.0      13.8      20.2      21.9      29.4       2.0
 2 C  s               0.0      22.3      29.4       0.6      20.3      22.6
 2 C  px              0.0       0.0       0.0       0.1       0.0       0.0
 3 C  s               0.0      23.0       0.0      46.8       0.0      25.0
 3 C  py              0.0       0.0       0.2       0.0       0.0       0.0
 4 C  s               0.0      22.3      29.4       0.6      20.3      22.6
 4 C  px              0.0       0.0       0.0       0.1       0.0       0.0
 5 C  s               0.0      13.8      20.2      21.9      29.4       1.9
11 N  s              10.8       0.2       0.0       0.1       0.0       0.1
11 N  px              3.5       0.0       0.0       0.0       0.0       0.1
11 N  dz2             1.2       0.0       0.0       0.0       0.0       0.0
11 N  dyz            14.4       0.0       0.0       0.0       0.0       0.0
11 N  dx2y2           0.5       0.0       0.0       0.0       0.0       0.0
12 O  s              10.3       0.0       0.0       0.0       0.0       0.0
12 O  pz              4.5       0.0       0.0       0.0       0.0       0.0
12 O  px              2.5       0.0       0.0       0.0       0.0       0.0
12 O  py              3.4       0.0       0.0       0.0       0.0       0.0
12 O  dz2             0.2       0.0       0.0       0.0       0.0       0.0
12 O  dxz             4.2       0.0       0.0       0.0       0.0       0.0
12 O  dyz             6.4       0.0       0.0       0.0       0.0       0.0
12 O  dxy             3.1       0.0       0.0       0.0       0.0       0.0
13 O  s              10.3       0.0       0.0       0.0       0.0       0.0
13 O  pz              4.4       0.0       0.0       0.0       0.0       0.0
13 O  px              2.5       0.0       0.0       0.0       0.0       0.0
13 O  py              3.4       0.0       0.0       0.0       0.0       0.0
13 O  dz2             0.2       0.0       0.0       0.0       0.0       0.0
13 O  dxz             4.2       0.0       0.0       0.0       0.0       0.0
13 O  dyz             6.4       0.0       0.0       0.0       0.0       0.0
13 O  dxy             3.1       0.0       0.0       0.0       0.0       0.0

                    312       313       314       315       316       317   
                  22.26159  25.13073  25.34055  25.48648  25.60099  25.69969
                   0.00000   0.00000   0.00000   0.00000   0.00000   0.00000
                  --------  --------  --------  --------  --------  --------
 0 C  s              62.2       0.1       0.0       0.1       0.0       0.1
 0 C  px              0.1       0.1       0.0       0.1       0.0       0.0
 1 C  s              12.0       0.0       0.0       0.0       0.0       0.0
 1 C  py              0.1       0.0       0.1       0.1       0.2       0.1
 2 C  s               4.2       0.1       0.0       0.0       0.0       0.1
 2 C  py              0.0       0.0       0.1       0.0       0.1       0.1
 3 C  s               4.5       0.1       0.0       0.1       0.0       0.1
 3 C  px              0.0       0.1       0.0       0.3       0.0       0.2
 4 C  s               4.2       0.1       0.0       0.0       0.0       0.1
 4 C  py              0.0       0.0       0.1       0.0       0.1       0.1
 5 C  s              12.0       0.0       0.0       0.0       0.0       0.0
 5 C  py              0.1       0.0       0.1       0.1       0.2       0.1
 6 Cl s               0.0       4.0      15.1      24.5      34.5      20.8
 7 Cl s               0.0      26.6      34.6       3.7      15.0      19.1
 8 Cl s               0.0      37.6       0.0      42.5       0.0      18.9
 9 Cl s               0.0      26.6      34.6       3.7      15.0      19.1
10 Cl s               0.0       4.0      15.0      24.5      34.5      20.8
11 N  s               0.2       0.2       0.0       0.1       0.0       0.0

                    318       319       320   
                  31.90953  43.80295  43.94156
                   0.00000   0.00000   0.00000
                  --------  --------  --------
11 N  s              99.5       0.1       0.0
12 O  s               0.1      49.8      50.0
13 O  s               0.1      50.0      49.8


                      *****************************
                      * MAYER POPULATION ANALYSIS *
                      *****************************

  NA   - Mulliken gross atomic population
  ZA   - Total nuclear charge
  QA   - Mulliken gross atomic charge
  VA   - Mayer's total valence
  BVA  - Mayer's bonded valence
  FA   - Mayer's free valence

  ATOM       NA         ZA         QA         VA         BVA        FA
  0 C      5.4715     6.0000     0.5285     2.5349     2.5349    -0.0000
  1 C      6.2235     6.0000    -0.2235     3.2342     3.2342    -0.0000
  2 C      5.9467     6.0000     0.0533     3.2842     3.2842    -0.0000
  3 C      5.9869     6.0000     0.0131     3.3566     3.3566    -0.0000
  4 C      5.9468     6.0000     0.0532     3.2843     3.2843    -0.0000
  5 C      6.2235     6.0000    -0.2235     3.2345     3.2345    -0.0000
  6 Cl    17.0281    17.0000    -0.0281     1.2882     1.2882    -0.0000
  7 Cl    17.0407    17.0000    -0.0407     1.2745     1.2745     0.0000
  8 Cl    17.0307    17.0000    -0.0307     1.2903     1.2903    -0.0000
  9 Cl    17.0406    17.0000    -0.0406     1.2745     1.2745    -0.0000
 10 Cl    17.0281    17.0000    -0.0281     1.2882     1.2882     0.0000
 11 N      6.6766     7.0000     0.3234     4.7187     4.7187    -0.0000
 12 O      8.1779     8.0000    -0.1779     2.3203     2.3203    -0.0000
 13 O      8.1784     8.0000    -0.1784     2.3197     2.3197    -0.0000

  Mayer bond orders larger than 0.100000
B(  0-C ,  1-C ) :   0.9117 B(  0-C ,  5-C ) :   0.9120 B(  0-C ,  6-Cl) :  -0.2070 
B(  0-C , 10-Cl) :  -0.2070 B(  0-C , 11-N ) :   0.9229 B(  1-C ,  2-C ) :   0.9915 
B(  1-C ,  5-C ) :  -0.1162 B(  1-C , 10-Cl) :   1.4486 B(  2-C ,  3-C ) :   1.0729 
B(  2-C ,  9-Cl) :   1.2829 B(  3-C ,  4-C ) :   1.0729 B(  3-C ,  8-Cl) :   1.3321 
B(  4-C ,  5-C ) :   0.9916 B(  4-C ,  7-Cl) :   1.2830 B(  5-C ,  6-Cl) :   1.4486 
B( 11-N , 12-O ) :   1.8571 B( 11-N , 13-O ) :   1.8566 B( 12-O , 13-O ) :   0.3085 


-------
TIMINGS
-------

Total SCF time: 0 days 0 hours 0 min 19 sec 

Total time                  ....      19.230 sec
Sum of individual times     ....      19.202 sec  ( 99.9%)

SCF preparation             ....       0.038 sec  (  0.2%)
Fock matrix formation       ....      18.784 sec  ( 97.7%)
  Startup                   ....       0.004 sec  (  0.0% of F)
  Split-RI-J                ....       5.260 sec  ( 28.0% of F)
  XC integration            ....      13.482 sec  ( 71.8% of F)
    Basis function eval.    ....       2.007 sec  ( 14.9% of XC)
    Density eval.           ....       5.085 sec  ( 37.7% of XC)
    XC-Functional eval.     ....       1.033 sec  (  7.7% of XC)
    XC-Potential eval.      ....       5.205 sec  ( 38.6% of XC)
Diagonalization             ....       0.000 sec  (  0.0%)
Density matrix formation    ....       0.023 sec  (  0.1%)
Total Energy calculation    ....       0.003 sec  (  0.0%)
Population analysis         ....       0.139 sec  (  0.7%)
Orbital Transformation      ....       0.027 sec  (  0.1%)
Orbital Orthonormalization  ....       0.000 sec  (  0.0%)
DIIS solution               ....       0.162 sec  (  0.8%)
  MO trafo                  ....       0.000 sec  (  0.0 % of DIIS)
  Orb grad                  ....       0.000 sec  (  0.0 % of DIIS)
  Energy W gradient         ....       0.000 sec  (  0.0 % of DIIS)
  DIIS error                ....       0.031 sec  ( 18.9 % of DIIS)
  DIIS work                 ....       0.117 sec  ( 72.5 % of DIIS)
  Form Q                    ....       0.000 sec  (  0.0 % of DIIS)
  Form QpQm                 ....       0.000 sec  (  0.0 % of DIIS)
  Exp/Cayley                ....       0.000 sec  (  0.0 % of DIIS)
  Orb update                ....       0.000 sec  (  0.0 % of DIIS)
  Wake-sleep                ....       0.001 sec  (  0.7 % of DIIS)
SOSCF solution              ....       0.026 sec  (  0.1%)
  MO trafo                  ....       0.020 sec  ( 76.4 % of SOSCF)
  Orb grad                  ....       0.000 sec  (  0.5 % of SOSCF)
  Rot update                ....       0.000 sec  (  0.2 % of SOSCF)
  Step                      ....       0.006 sec  ( 22.7 % of SOSCF)
Finished LeanSCF after  19.2 sec

Maximum memory used throughout the entire LEANSCF-calculation: 36.6 MB


-------------------------------------------------------------------------------
                          DFT DISPERSION CORRECTION                            
                                                                               
                                DFTD4 V3.4.0                                   
-------------------------------------------------------------------------------
The R2SCAN3C composite method is recognized
Using three-body term ABC
Active option DFTDOPT                   ...         5   

-------------------------   ----------------
Dispersion correction           -0.009262622
-------------------------   ----------------

------------------   -----------------
gCP correction             0.016013416
------------------   -----------------

-------------------------   --------------------
FINAL SINGLE POINT ENERGY     -2734.533404945811
-------------------------   --------------------


------------------------------------------------------------------------------
                              ORCA PROPERTY CALCULATIONS
------------------------------------------------------------------------------

GBWName                                 ... sp.gbw
Number of atoms                         ...     14
Number of basis functions               ...    321
Max core memory                         ...   1024 MB

Electric properties:
Dipole moment                           ... YES
Quadrupole moment                       ...  NO
Static polarizability (Dipole/Dipole)   ...  NO
Static polarizability (Dipole/Quad.)    ...  NO
Static polarizability (Quad./Quad.)     ...  NO
Static polarizability (Velocity)        ...  NO

Atomic electric properties:
Dipole moment                           ...  NO
Quadrupole moment                       ...  NO
Static polarizability                   ...  NO

Choice of electric origin               ... Center of mass
Position of electric origin             ...     0.000011     0.000000    -0.000000

General magnetic properties:
Magnetizability                         ...  NO

EPR properties:
g-Tensor (aka g-matrix)                 ...  NO
Zero-Field splitting spin-orbit         ...  NO
Zero-field splitting spin-spin          ...  NO
Hyperfine couplings                     ...  NO (   0 nuclei)
Quadrupole couplings                    ...  NO (   0 nuclei)
Contact density                         ...  NO (   0 nuclei)

NMR properties:
Chemical shifts                         ...  NO (   0 nuclei)
Spin-rotation constants                 ...  NO (   0 nuclei)
Spin-spin couplings                     ...  NO (   0 nuclei,    0 pairs)

Choice of magnetic origin               ... GIAO
Position of magnetic origin             ...     0.000000     0.000000     0.000000

Properties with geometric perturbations:
SCF Hessian                             ...  NO
IR spectrum                             ...  NO
VCD spectrum                            ...  NO
X-ray spectroscopy properties:
SCF XES/XAS/RIXS spectra                ...  NO


-------------
DIPOLE MOMENT
-------------

Method             : SCF
Type of density    : Electron Density
Multiplicity       :   1
Irrep              :   0
Energy             : -2734.5401557403974948 Eh
Relativity type    : 
Basis              : AO
                                X                 Y                 Z
Electronic contribution:      6.182648520       0.001484062      -0.001993926
Nuclear contribution   :     -5.166348839      -0.000594961       0.000773389
                        -----------------------------------------
Total Dipole Moment    :      1.016299681       0.000889101      -0.001220538
                        -----------------------------------------
Magnitude (a.u.)       :      1.016300803
Magnitude (Debye)      :      2.583231348



--------------------
Rotational spectrum 
--------------------
 
Rotational constants in cm-1:             0.014806             0.013502             0.007192 
Rotational constants in MHz :           443.884068           404.781590           215.597307 

Dipole components along the rotational axes: 
x,y,z [a.u.] :     1.016300     0.000889    -0.001221 
x,y,z [Debye]:     2.583228     0.002260    -0.003102 

 

Dipole moment calculation done in   0.0 sec 

Maximum memory used throughout the entire PROP-calculation: 25.5 MB

--------------------------------
SUGGESTED CITATIONS FOR THIS RUN
--------------------------------

Below you find a list of papers that are relevant to this ORCA run
We neither can nor want to force you to cite these papers, but we appreciate if you do
You receive ORCA, which is the product of decades of hard work by many enthusiastic individuals, for free
The only thing we kindly ask in return is that you cite our papers,
We deeply appreciate it, if you show your appreciation for ORCA by not just citing the generic ORCA reference.

Please note that relegating all ORCA citations to the supporting information does *not* help us.
SI sections are not indexed - citations you put there will not count into any citation statistics
But we need these citations in order to attract the funding resources that allow us to do what we are doing

Therefore, if you are a happy ORCA user, please consider citing a few of the papers listed below in the main body of your paper

In addition to the list printed below, the program has created the file sp.bibtex that contains the list in bibtex format
You can import this file easily into all common literature databanks and citation aid programs


List of essential papers. We consider these as the minimum necessary citations

  1. Neese,F.
     Software update: the ORCA program system, version 5.0
     WIRES Comput. Molec. Sci., 2022 12(1)e1606
     doi.org/10.1002/wcms.1606
  2. Grimme,S.; Hansen,A.; Ehlert,S.; Mewes,J.
     r2SCAN-3c: A 'Swiss army knife' composite electronic-structure method
     J. Chem. Phys., 2021 154 064103
     doi.org/10.1063/5.0040021

List of papers to cite with high priority. The work reported in these papers was absolutely
necessary for this run to complete.
Our perspective: the developers of density functionals and basis sets usually get cited in chemistry papers
Good! But without the algorithms to do something with them, the functionals or basis sets would not do anything.
Hence, in our opinion, the algorithm design and method developments papers are equally worthy of getting cited

  1. Neese,F.
     An improvement of the resolution of the identity approximation for the formation of the Coulomb matrix
     J. Comp. Chem., 2003 24(14)1740-1747
     doi.org/10.1002/jcc.10318
  2. Neese,F.
     The SHARK Integral Generation and Digestion System
     J. Comp. Chem., 2022  1-16
     doi.org/10.1002/jcc.26942
  3. Lehtola,S.; Steigemann,C.; Oliveira,M.; Marques,M.
     Recent developments in Libxc - A comprehensive library of functionals for density functional theory
     Software X, 2018 7 
     doi.org/10.1016/j.softx.2017.11.002
  4. Caldeweyher,E.; Bannwarth,C.; Grimme,S.
     Extension of the D3 dispersion coefficient model
     J. Chem. Phys., 2017 147 034112
     doi.org/10.1063/1.4993215
  5. Caldeweyher,E.; Ehlert,S.; Hansen,A.; Neugebauer,H.; Spicher,S.; Bannwarth,C.; Grimme,S.
     A generally applicable atomic-charge dependent London dispersion correction
     J. Chem. Phys., 2019 150 154122
     doi.org/10.1063/1.5090222
  6. Caldeweyher,E.; Mewes,J.; Ehlert,S.; Grimme,S.
     Extension and evaluation of the D4 London-dispersion model for periodic systems
     Phys. Chem. Chem. Phys., 2020 22(16)8499-8512
     doi.org/10.1039/D0CP00502A
  7. Wittmann,L.; Gordiy,I.; Friede,M.; Helmich-Paris,B.; Grimme,S.; Hansen,A.; Bursch,M.
     Extension of the D3 and D4 London Dispersion Corrections to the full Actinides Series
     Phys. Chem. Chem. Phys., 2024 26(32)21379-21394
     doi.org/https://doi.org/10.1039/D4CP01514B 

List of suggested additional citations. These are papers that are important in the 'surrounding' of 
of this run, or papers that preceded the highly important papers. If you like your results we are grateful for a citation.

  1. Neese,F.
     The ORCA program system
     WIRES Comput. Molec. Sci., 2012 2(1)73-78
     doi.org/10.1002/wcms.81
  2. Neese,F.
     Software update: the ORCA program system, version 4.0
     WIRES Comput. Molec. Sci., 2018 8(1)1-6
     doi.org/10.1002/wcms.1327
  3. Neese,F.; Wennmohs,F.; Becker,U.; Riplinger,C.
     The ORCA quantum chemistry program package
     J. Chem. Phys., 2020 152 Art. No. L224108
     doi.org/10.1063/5.0004608

List of optional additional citations

  1. Neese,F.
     Approximate second-order SCF convergence for spin unrestricted wavefunctions
     Chem. Phys. Lett., 2000 325(1-3)93-98
     doi.org/10.1016/s0009-2614(00)00662-x

Timings for individual modules:

Sum of individual times          ...       20.104 sec (=   0.335 min)
Startup calculation              ...        0.726 sec (=   0.012 min)   3.6 %
SCF iterations                   ...       19.333 sec (=   0.322 min)  96.2 %
Property calculations            ...        0.046 sec (=   0.001 min)   0.2 %
                             ****ORCA TERMINATED NORMALLY****
TOTAL RUN TIME: 0 days 0 hours 0 minutes 20 seconds 175 msec
