      -----------------------------------------------------------      
     |                   =====================                   |     
     |                           x T B                           |     
     |                   =====================                   |     
     |                         S. Grimme                         |     
     |          Mulliken Center for Theoretical Chemistry        |     
     |                    University of Bonn                     |     
      -----------------------------------------------------------      

   * xtb version 6.7.1 (41059b4) compiled by 'michael@archlinux' on 2025-03-24

   xtb is free software: you can redistribute it and/or modify it under
   the terms of the GNU Lesser General Public License as published by
   the Free Software Foundation, either version 3 of the License, or
   (at your option) any later version.
   
   xtb is distributed in the hope that it will be useful,
   but WITHOUT ANY WARRANTY; without even the implied warranty of
   MERCHANTABILITY or FITNESS FOR A PARTICULAR PURPOSE.  See the
   GNU Lesser General Public License for more details.
   
   Cite this work as:
   * C. Bannwarth, E. Caldeweyher, S. Ehlert, A. Hansen, P. Pracht,
     J. Seibert, S. Spicher, S. Grimme, WIREs Comput. Mol. Sci., 2020, 11,
     e01493. DOI: 10.1002/wcms.1493
   
   for GFN2-xTB:
   * C. Bannwarth, S. Ehlert and S. Grimme., J. Chem. Theory Comput., 2019,
     15, 1652-1671. DOI: 10.1021/acs.jctc.8b01176
   for GFN1-xTB:
   * S. Grimme, C. Bannwarth, P. Shushkov, J. Chem. Theory Comput., 2017,
     13, 1989-2009. DOI: 10.1021/acs.jctc.7b00118
   for GFN0-xTB:
   * P. Pracht, E. Caldeweyher, S. Ehlert, S. Grimme, ChemRxiv, 2019, preprint.
     DOI: 10.26434/chemrxiv.8326202.v1
   for GFN-FF:
   * S. Spicher and S. Grimme, Angew. Chem. Int. Ed., 2020, 59, 15665-15673.
     DOI: 10.1002/anie.202004239
   
   for ALPB and GBSA implicit solvation:
   * S. Ehlert, M. Stahn, S. Spicher, S. Grimme, J. Chem. Theory Comput.,
     2021, 17, 4250-4261. DOI: 10.1021/acs.jctc.1c00471
   
   for ddCOSMO and CPCM-X implicit solvation:
   * M. Stahn, S. Ehlert, S. Grimme, J. Phys. Chem. A,
     2023, XX, XXXX-XXXX. DOI: 10.1021/acs.jpca.3c04382
   
   for DFT-D4:
   * E. Caldeweyher, C. Bannwarth and S. Grimme, J. Chem. Phys., 2017,
     147, 034112. DOI: 10.1063/1.4993215
   * E. Caldeweyher, S. Ehlert, A. Hansen, H. Neugebauer, S. Spicher,
     C. Bannwarth and S. Grimme, J. Chem. Phys., 2019, 150, 154122.
     DOI: 10.1063/1.5090222
   * E. Caldeweyher, J.-M. Mewes, S. Ehlert and S. Grimme, Phys. Chem. Chem. Phys.
     2020, 22, 8499-8512. DOI: 10.1039/D0CP00502A
   
   for sTDA-xTB:
   * S. Grimme and C. Bannwarth, J. Chem. Phys., 2016, 145, 054103.
     DOI: 10.1063/1.4959605
   
   in the mass-spec context:
   * V. Asgeirsson, C. Bauer and S. Grimme, Chem. Sci., 2017, 8, 4879.
     DOI: 10.1039/c7sc00601b
   * J. Koopman and S. Grimme, ACS Omega 2019, 4, 12, 15120-15133.
     DOI: 10.1021/acsomega.9b02011
   
   for metadynamics refer to:
   * S. Grimme, J. Chem. Theory Comput., 2019, 155, 2847-2862
     DOI: 10.1021/acs.jctc.9b00143
   
   for SPH calculations refer to:
   * S. Spicher and S. Grimme, J. Chem. Theory Comput., 2021, 17, 1701-1714
     DOI: 10.1021/acs.jctc.0c01306
   
   for ONIOM refer to:
   * C. Plett, A. Katbashev, S. Ehlert, S. Grimme, M. Bursch,
     Phys. Chem. Chem. Phys., 2023, 25, 17860-17868. DOI: 10.1039/D3CP02178E
   
   for DIPRO refer to:
   * J. Kohn, N. Gildemeister, S. Grimme, D. Fazzi, A. Hansen,
     J. Chem. Phys., 2023, just accepted.
   
   for PTB refer to:
   * S. Grimme, M. Mueller, A. Hansen, J. Chem. Phys., 2023, 158, 124111.
     DOI: 10.1063/5.0137838
   
   with help from (in alphabetical order)
   P. Atkinson, C. Bannwarth, F. Bohle, G. Brandenburg, E. Caldeweyher
   M. Checinski, S. Dohm, S. Ehlert, S. Ehrlich, I. Gerasimov, C. Hölzer
   A. Katbashev, J. Kohn, J. Koopman, C. Lavigne, S. Lehtola, F. März, M. Müller,
   F. Musil, H. Neugebauer, J. Pisarek, C. Plett, P. Pracht, F. Pultar,
   J. Seibert, P. Shushkov, S. Spicher, M. Stahn, M. Steiner, T. Strunk,
   J. Stückrath, T. Rose, and J. Unsleber
   
 * started run on 2025/04/09 at 02:30:15.364     
   ID    Z sym.   atoms
    1    6 C      1, 2, 4, 6, 8
    2    1 H      3, 5, 7, 9, 15-20
    3    8 O      10-14

           -------------------------------------------------
          |                Calculation Setup                |
           -------------------------------------------------

          program call               : /usr/bin/xtb xtb_rrho.coord --gfn2 --bhess vtight --chrg 0 --enso --norestart -I rrho-xcontrol-inp --parallel 1
          coordinate file            : xtb_rrho.coord
          omp threads                :                     1


           -------------------------------------------------
          |                 G F N 2 - x T B                 |
           -------------------------------------------------

        Reference                      10.1021/acs.jctc.8b01176
      * Hamiltonian:
        H0-scaling (s, p, d)           1.850000    2.230000    2.230000
        zeta-weighting                 0.500000
      * Dispersion:
        s8                             2.700000
        a1                             0.520000
        a2                             5.000000
        s9                             5.000000
      * Repulsion:
        kExp                           1.500000    1.000000
        rExp                           1.000000
      * Coulomb:
        alpha                          2.000000
        third order                    shell-resolved
        anisotropic                    true
        a3                             3.000000
        a5                             4.000000
        cn-shift                       1.200000
        cn-exp                         4.000000
        max-rad                        5.000000


          ...................................................
          :                      SETUP                      :
          :.................................................:
          :  # basis functions                  50          :
          :  # atomic orbitals                  50          :
          :  # shells                           30          :
          :  # electrons                        60          :
          :  max. iterations                   250          :
          :  Hamiltonian                  GFN2-xTB          :
          :  restarted?                      false          :
          :  GBSA solvation                  false          :
          :  PC potential                    false          :
          :  electronic temp.          300.0000000     K    :
          :  accuracy                    1.0000000          :
          :  -> integral cutoff          0.2500000E+02      :
          :  -> integral neglect         0.1000000E-07      :
          :  -> SCF convergence          0.1000000E-05 Eh   :
          :  -> wf. convergence          0.1000000E-03 e    :
          :  Broyden damping             0.4000000          :
          :  net charge                          0          :
          :  unpaired electrons                  0          :
          ...................................................

 iter      E             dE          RMSdq      gap      omega  full diag
   1    -36.3493831 -0.363494E+02  0.463E+00   10.21       0.0  T
   2    -36.3813407 -0.319577E-01  0.253E+00   10.00       1.0  T
   3    -36.3822432 -0.902438E-03  0.751E-01   10.03       1.0  T
   4    -36.3831353 -0.892085E-03  0.142E-01   10.03       1.0  T
   5    -36.3831827 -0.474184E-04  0.561E-02   10.05       1.0  T
   6    -36.3831933 -0.106023E-04  0.190E-02   10.06       1.2  T
   7    -36.3831939 -0.641954E-06  0.637E-03   10.05       3.5  T
   8    -36.3831943 -0.334978E-06  0.163E-03   10.05      13.7  T
   9    -36.3831943 -0.224895E-08  0.616E-04   10.05      36.3  T
  10    -36.3831943 -0.158435E-08  0.273E-04   10.05      81.8  T

   *** convergence criteria satisfied after 10 iterations ***

         #    Occupation            Energy/Eh            Energy/eV
      -------------------------------------------------------------
         1        2.0000           -0.7189593             -19.5639
       ...           ...                  ...                  ...
        24        2.0000           -0.4797147             -13.0537
        25        2.0000           -0.4648437             -12.6490
        26        2.0000           -0.4541873             -12.3591
        27        2.0000           -0.4337255             -11.8023
        28        2.0000           -0.4323662             -11.7653
        29        2.0000           -0.4277105             -11.6386
        30        2.0000           -0.4145165             -11.2796 (HOMO)
        31                         -0.0450304              -1.2253 (LUMO)
        32                         -0.0002195              -0.0060
        33                          0.0098291               0.2675
        34                          0.0347807               0.9464
        35                          0.0498902               1.3576
       ...                                ...                  ...
        50                          0.2762676               7.5176
      -------------------------------------------------------------
                  HL-Gap            0.3694862 Eh           10.0542 eV
             Fermi-level           -0.2297734 Eh           -6.2525 eV

 SCC (total)                   0 d,  0 h,  0 min,  0.017 sec
 SCC setup                      ...        0 min,  0.000 sec (  0.618%)
 Dispersion                     ...        0 min,  0.000 sec (  0.871%)
 classical contributions        ...        0 min,  0.000 sec (  0.192%)
 integral evaluation            ...        0 min,  0.003 sec ( 15.990%)
 iterations                     ...        0 min,  0.008 sec ( 46.393%)
 molecular gradient             ...        0 min,  0.006 sec ( 35.212%)
 printout                       ...        0 min,  0.000 sec (  0.658%)

         :::::::::::::::::::::::::::::::::::::::::::::::::::::
         ::                     SUMMARY                     ::
         :::::::::::::::::::::::::::::::::::::::::::::::::::::
         :: total energy             -36.132259345542 Eh    ::
         :: gradient norm              0.040042961938 Eh/a0 ::
         :: HOMO-LUMO gap             10.054230064671 eV    ::
         ::.................................................::
         :: SCC energy               -36.383116558706 Eh    ::
         :: -> isotropic ES            0.114933905460 Eh    ::
         :: -> anisotropic ES         -0.003724094402 Eh    ::
         :: -> anisotropic XC         -0.007150251894 Eh    ::
         :: -> dispersion             -0.014869488813 Eh    ::
         :: repulsion energy           0.250857213164 Eh    ::
         :: add. restraining           0.000000000000 Eh    ::
         :: total charge              -0.000000000000 e     ::
         :::::::::::::::::::::::::::::::::::::::::::::::::::::

metadynamics with 1 initial structures loaded
           -------------------------------------------------
          |           Optimal kpush determination           |
           -------------------------------------------------
      ----------------------------------------------------------- 
     |                   =====================                   |
     |                        A N C O P T                        |
     |                   =====================                   |
     |               Approximate Normal Coordinate               |
     |                Rational Function Optimizer                |
      ----------------------------------------------------------- 
target rmsd / Å         0.100000
unbiased initial rmsd   0.068936

iter. min.        max.        rmsd       kpush
final kpush: -0.000000
           -------------------------------------------------
          |            Biased Numerical Hessian             |
           -------------------------------------------------
kpush                :  -0.00000
alpha                :   1.00000
step length          :   0.00500
SCC accuracy         :   0.30000
Hessian scale factor :   1.00000
frozen atoms in %    :   0.00000    0
RMS gradient         :   0.00004
estimated CPU  time      0.02 min
estimated wall time      0.02 min

writing file <hessian>, containing the non-mass-weighted Hessian matrix in atomic units (Eₕ/Bohr²).

writing file <hessian_sph>.

 projected vibrational frequencies (cm⁻¹)
eigval :       -0.00    -0.00    -0.00     0.00     0.00     0.00
eigval :       96.53   104.67   216.98   227.80   247.66   259.98
eigval :      292.93   349.48   367.16   381.20   399.56   414.69
eigval :      447.58   490.17   512.62   529.61   585.85   748.21
eigval :      898.35   907.53   972.75  1030.25  1050.68  1067.93
eigval :     1081.39  1089.47  1108.52  1125.23  1141.72  1161.96
eigval :     1197.10  1203.02  1218.12  1232.45  1272.67  1282.87
eigval :     1289.22  1303.30  1312.81  1316.51  1336.05  1353.09
eigval :     1357.93  1454.61  2857.91  2868.15  2872.15  2889.89
eigval :     2919.49  2970.63  3489.56  3521.62  3535.83  3556.93
           -------------------------------------------------
          |                Property Printout                |
           -------------------------------------------------

    * Orbital Energies and Occupations

         #    Occupation            Energy/Eh            Energy/eV
      -------------------------------------------------------------
         1        2.0000           -0.7228882             -19.6708
       ...           ...                  ...                  ...
        18        2.0000           -0.5348519             -14.5541
        19        2.0000           -0.5335825             -14.5195
        20        2.0000           -0.5212398             -14.1837
        21        2.0000           -0.5184749             -14.1084
        22        2.0000           -0.5062411             -13.7755
        23        2.0000           -0.4922894             -13.3959
        24        2.0000           -0.4773089             -12.9882
        25        2.0000           -0.4634656             -12.6115
        26        2.0000           -0.4537393             -12.3469
        27        2.0000           -0.4310076             -11.7283
        28        2.0000           -0.4288047             -11.6684
        29        2.0000           -0.4240604             -11.5393
        30        2.0000           -0.4117524             -11.2044 (HOMO)
        31                         -0.0247117              -0.6724 (LUMO)
        32                          0.0152205               0.4142
        33                          0.0267355               0.7275
        34                          0.0459835               1.2513
        35                          0.0601712               1.6373
        36                          0.0685496               1.8653
        37                          0.0847169               2.3053
        38                          0.0984579               2.6792
        39                          0.1055679               2.8726
        40                          0.1373594               3.7377
        41                          0.1513462               4.1183
       ...                                ...                  ...
        50                          0.2822496               7.6804
      -------------------------------------------------------------
                  HL-Gap            0.3870407 Eh           10.5319 eV
             Fermi-level           -0.2182321 Eh           -5.9384 eV

     #   Z          covCN         q      C6AA      α(0)
     1   6          3.709     0.057    19.751     6.352
     2   6          3.726     0.091    19.171     6.252
     3   1          0.923     0.030     2.581     2.512
     4   6          3.732     0.104    18.963     6.216
     5   1          0.923     0.042     2.420     2.433
     6   6          3.727     0.086    19.243     6.263
     7   1          0.923     0.033     2.547     2.496
     8   6          3.635     0.237    17.252     5.977
     9   1          0.923     0.045     2.388     2.417
    10   8          1.702    -0.309    19.150     5.908
    11   8          1.656    -0.448    21.794     6.302
    12   8          1.656    -0.448    21.795     6.302
    13   8          1.656    -0.450    21.851     6.310
    14   8          1.656    -0.445    21.741     6.294
    15   1          0.924     0.059     2.213     2.327
    16   1          0.924     0.061     2.192     2.315
    17   1          0.805     0.324     0.654     1.270
    18   1          0.805     0.320     0.663     1.279
    19   1          0.805     0.313     0.683     1.298
    20   1          0.805     0.298     0.728     1.340

 Mol. C6AA /au·bohr⁶  :       3270.945262
 Mol. C8AA /au·bohr⁸  :      69421.454775
 Mol. α(0) /au        :         81.864176


Wiberg/Mayer (AO) data.
largest (>0.10) Wiberg bond orders for each atom

 ---------------------------------------------------------------------------
     #   Z sym  total        # sym  WBO       # sym  WBO       # sym  WBO
 ---------------------------------------------------------------------------
     1   6      3.947 --    10      0.977     2      0.975    15      0.969
                            16      0.966
     2   6      3.956 --    14      0.991     1      0.975     4      0.972
                             3      0.959
     3   1      0.999 --     2      0.959
     4   6      3.961 --    13      0.995     6      0.973     2      0.972
                             5      0.955
     5   1      0.998 --     4      0.955
     6   6      3.960 --    12      0.999     4      0.973     7      0.958
                             8      0.952
     7   1      0.999 --     6      0.958
     8   6      3.939 --    11      0.996    10      0.996     6      0.952
                             9      0.947
     9   1      0.998 --     8      0.947
    10   8      2.100 --     8      0.996     1      0.977
    11   8      1.964 --     8      0.996    17      0.870
    12   8      1.961 --     6      0.999    18      0.879
    13   8      1.955 --     4      0.995    19      0.884
    14   8      1.959 --     2      0.991    20      0.895
    15   1      0.997 --     1      0.969
    16   1      0.996 --     1      0.966
    17   1      0.895 --    11      0.870
    18   1      0.897 --    12      0.879
    19   1      0.902 --    13      0.884
    20   1      0.911 --    14      0.895
 ---------------------------------------------------------------------------

Topologies differ in total number of bonds
Writing topology from bond orders to xtbtopo.mol

molecular dipole:
                 x           y           z       tot (Debye)
 q only:        0.752      -0.130      -0.010
   full:        1.078      -0.167      -0.111       2.788
molecular quadrupole (traceless):
                xx          xy          yy          xz          yz          zz
 q only:        2.369       6.379      -0.680      -0.685      -1.379      -1.689
  q+dip:        1.841       7.784      -1.852      -1.293      -1.604       0.012
   full:        2.569       8.166      -1.332      -1.064      -1.857      -1.237

           -------------------------------------------------
          |                Geometry Summary                 |
           -------------------------------------------------

      molecular mass/u    :      150.1301116
   center of mass at/Å    :        0.0000193       0.0000093       0.0000101
  moments of inertia/u·Å² :        0.2921433E+03   0.3753682E+03   0.5783448E+03
rotational constants/cm⁻¹ :        0.5770331E-01   0.4490959E-01   0.2914806E-01

 * 19 selected distances

     #   Z          #   Z                                           value/Å
     1   6          2   6                                         1.5344899 (max)
     2   6          3   1                                         1.1021298
     2   6          4   6                                         1.5317672
     4   6          5   1                                         1.1021368
     4   6          6   6                                         1.5318109
     6   6          7   1                                         1.0997467
     8   6          9   1                                         1.1015423
     1   6         10   8                                         1.4139766
     8   6         10   8                                         1.3915512
     8   6         11   8                                         1.3981653
     6   6         12   8                                         1.4059717
     4   6         13   8                                         1.4081892
     2   6         14   8                                         1.4111956
     1   6         15   1                                         1.0923454
     1   6         16   1                                         1.0968726
    11   8         17   1                                         0.9670364
    12   8         18   1                                         0.9655862
    13   8         19   1                                         0.9646396
    14   8         20   1                                         0.9628422 (min)

 * 4 distinct bonds (by element types)

   Z      Z             #   av. dist./Å        max./Å        min./Å
   1 H    6 C           6     1.0991289     1.1021368     1.0923454
   6 C    6 C           3     1.5326893     1.5344899     1.5317672
   1 H    8 O           4     0.9650261     0.9670364     0.9628422
   6 C    8 O           6     1.4048416     1.4139766     1.3915512

           -------------------------------------------------
          |               Frequency Printout                |
           -------------------------------------------------
 projected vibrational frequencies (cm⁻¹)
eigval :       -0.00    -0.00    -0.00     0.00     0.00     0.00
eigval :       96.53   104.67   216.98   227.80   247.66   259.98
eigval :      292.93   349.48   367.16   381.20   399.56   414.69
eigval :      447.58   490.17   512.62   529.61   585.85   748.21
eigval :      898.35   907.53   972.75  1030.25  1050.68  1067.93
eigval :     1081.39  1089.47  1108.52  1125.23  1141.72  1161.96
eigval :     1197.10  1203.02  1218.12  1232.45  1272.67  1282.87
eigval :     1289.22  1303.30  1312.81  1316.51  1336.05  1353.09
eigval :     1357.93  1454.61  2857.91  2868.15  2872.15  2889.89
eigval :     2919.49  2970.63  3489.56  3521.62  3535.83  3556.93
 reduced masses (amu)
    1:      7.56    2:      7.55    3:      6.45    4:      7.37    5:      6.18    6:      5.59
    7:      6.49    8:      5.29    9:      4.45   10:      4.15   11:      3.84   12:      3.29
   13:      1.19   14:      2.96   15:      1.33   16:      2.07   17:      1.58   18:      3.91
   19:      1.21   20:      3.53   21:      4.68   22:      4.74   23:      4.96   24:      4.15
   25:      3.11   26:      2.05   27:      2.85   28:      2.87   29:      2.47   30:      2.49
   31:      2.80   32:      4.37   33:      3.41   34:      5.23   35:      4.61   36:      1.46
   37:      1.22   38:      1.22   39:      1.19   40:      1.35   41:      1.19   42:      1.34
   43:      1.28   44:      1.24   45:      1.26   46:      1.43   47:      1.54   48:      1.63
   49:      1.45   50:      1.09   51:      1.07   52:      1.07   53:      1.07   54:      1.07
   55:      1.07   56:      1.07   57:      1.07   58:      1.07   59:      1.07   60:      1.07
 IR intensities (km·mol⁻¹)
    1:      0.12    2:      0.10    3:      0.32    4:      0.07    5:      0.34    6:      0.51
    7:      1.88    8:      1.27    9:     10.94   10:     10.59   11:     12.27   12:     11.95
   13:    123.81   14:      6.65   15:     47.61   16:     88.30   17:     55.49   18:     19.37
   19:    302.54   20:     30.85   21:     22.59   22:     16.37   23:      3.26   24:     27.45
   25:     12.54   26:     14.50   27:     29.33   28:     50.39   29:      7.41   30:     18.51
   31:    117.58   32:    195.36   33:     23.84   34:    105.76   35:     92.20   36:     50.58
   37:     21.68   38:     76.73   39:      4.18   40:    122.01   41:     27.43   42:     25.29
   43:     97.59   44:     41.93   45:      8.87   46:     26.85   47:     51.97   48:     18.73
   49:      4.04   50:      1.88   51:     10.64   52:     50.31   53:     38.78   54:    100.76
   55:     46.76   56:     28.53   57:     55.72   58:     35.94   59:     32.67   60:     12.81
 Raman intensities (Ä⁴*amu⁻¹)
    1:      0.00    2:      0.00    3:      0.00    4:      0.00    5:      0.00    6:      0.00
Molecule has no symmetry elements
It seems to be the C1 point group
    7:      0.00    8:      0.00    9:      0.00   10:      0.00   11:      0.00   12:      0.00
   13:      0.00   14:      0.00   15:      0.00   16:      0.00   17:      0.00   18:      0.00
   19:      0.00   20:      0.00   21:      0.00   22:      0.00   23:      0.00   24:      0.00
   25:      0.00   26:      0.00   27:      0.00   28:      0.00   29:      0.00   30:      0.00
   31:      0.00   32:      0.00   33:      0.00   34:      0.00   35:      0.00   36:      0.00
   37:      0.00   38:      0.00   39:      0.00   40:      0.00   41:      0.00   42:      0.00
   43:      0.00   44:      0.00   45:      0.00   46:      0.00   47:      0.00   48:      0.00
   49:      0.00   50:      0.00   51:      0.00   52:      0.00   53:      0.00   54:      0.00
   55:      0.00   56:      0.00   57:      0.00   58:      0.00   59:      0.00   60:      0.00
 output can be read by thermo (or use thermo option).
 writing <g98.out> molden fake output.
 recommended (thermochemical) frequency scaling factor: 1.0
           -------------------------------------------------
          |             Thermodynamic Functions             |
           -------------------------------------------------

c1  symmetry found (for desy threshold:  0.10E+00) used in thermo

          ...................................................
          :                      SETUP                      :
          :.................................................:
          :  # frequencies                          54      :
          :  # imaginary freq.                       0      :
          :  linear?                             false      :
          :  only rotor calc.                    false      :
          :  symmetry                               c1      :
          :  rotational number                       1      :
          :  scaling factor                  1.0000000      :
          :  rotor cutoff                    0.0000000 cm⁻¹ :
          :  imag. cutoff                 -100.0000000 cm⁻¹ :
          :.................................................:

    mode    ω/cm⁻¹     T·S(HO)/kcal·mol⁻¹    T·S(FR)/kcal·mol⁻¹   T·S(vib)
   ------------------------------------------------------------------------
       1     96.53    -1.05043 (100.00%)    -0.86154 (  0.00%)    -1.05043
       2    104.67    -1.00339 (100.00%)    -0.83757 (  0.00%)    -1.00339
       3    216.98    -0.59158 (100.00%)    -0.62168 (  0.00%)    -0.59158
       4    227.80    -0.56536 (100.00%)    -0.60727 (  0.00%)    -0.56536
       5    247.66    -0.52093 (100.00%)    -0.58251 (  0.00%)    -0.52093
       6    259.98    -0.49549 (100.00%)    -0.56812 (  0.00%)    -0.49549
       7    292.93    -0.43440 (100.00%)    -0.53278 (  0.00%)    -0.43440
   ------------------------------------------------------------------------

   temp. (K)  partition function   enthalpy   heat capacity  entropy
                                   cal/mol     cal/K/mol   cal/K/mol   J/K/mol
 298.15  VIB   178.                 4563.355     33.221     25.600
         ROT  0.608E+06              888.727      2.981     29.447
         INT  0.108E+09             5452.083     36.202     55.047
         TR   0.563E+26             1481.212      4.968     40.929
         TOT                        6933.2950    41.1700    95.9762   401.5646

       T/K    H(0)-H(T)+PV         H(T)/Eh          T*S/Eh         G(T)/Eh
   ------------------------------------------------------------------------
    298.15    0.110489E-01    0.168061E+00    0.456014E-01    0.122460E+00
   ------------------------------------------------------------------------

         :::::::::::::::::::::::::::::::::::::::::::::::::::::
         ::                  THERMODYNAMIC                  ::
         :::::::::::::::::::::::::::::::::::::::::::::::::::::
         :: total free energy         -36.012374775616 Eh   ::
         ::.................................................::
         :: total energy              -36.134834427850 Eh   ::
         :: zero point energy           0.157012154203 Eh   ::
         :: G(RRHO) w/o ZPVE           -0.034552501969 Eh   ::
         :: G(RRHO) contrib.            0.122459652233 Eh   ::
         :::::::::::::::::::::::::::::::::::::::::::::::::::::

optimized geometry written to: xtbopt.coord


           -------------------------------------------------
          | TOTAL ENERGY              -36.134834427850 Eh   |
          | TOTAL ENTHALPY            -35.966773364757 Eh   |
          | TOTAL FREE ENERGY         -36.012374775616 Eh   |
          | GRADIENT NORM               0.000038437224 Eh/α |
          | HOMO-LUMO GAP              10.531912317537 eV   |
           -------------------------------------------------

------------------------------------------------------------------------
 * finished run on 2025/04/09 at 02:30:17.152     
------------------------------------------------------------------------
 total:
 * wall-time:     0 d,  0 h,  0 min,  1.787 sec
 *  cpu-time:     0 d,  0 h,  0 min,  1.747 sec
 * ratio c/w:     0.977 speedup
 SCF:
 * wall-time:     0 d,  0 h,  0 min,  0.017 sec
 *  cpu-time:     0 d,  0 h,  0 min,  0.017 sec
 * ratio c/w:     0.986 speedup
 analytical hessian:
 * wall-time:     0 d,  0 h,  0 min,  1.508 sec
 *  cpu-time:     0 d,  0 h,  0 min,  1.475 sec
 * ratio c/w:     0.978 speedup

