20
 energy: -36.132259346182 gnorm: 0.040040029713 xtb: 6.7.1 (41059b4)
C            0.55872921133693        1.72264584823407        0.01892310944455
C            1.37987099045417        0.46424671456621       -0.25765565536191
H            1.60116889244930        0.38499171729850       -1.33363687917500
C            0.56649960907488       -0.74285851688181        0.17134784465704
H            0.40467118762359       -0.67407817481524        1.26001407684914
C           -0.78147670712847       -0.74201593308814       -0.53322394954336
H           -0.61966234663418       -0.88389224329416       -1.61323951311376
C           -1.50485356520318        0.59726528112241       -0.32642922651949
H           -2.37321180546538        0.66382273772320       -0.99759322276743
O           -0.67866613866387        1.67065855976295       -0.70096930403387
O           -1.90522528817418        0.75000021968091        1.02163180084726
O           -1.63233545759966       -1.76436811204385       -0.01347493225412
O            1.19883886966988       -1.98029120042115       -0.15930777611735
O            2.58483703238503        0.43163549423182        0.51658306596022
H            1.07414633530269        2.61832897410925       -0.34105879028961
H            0.38392397341868        1.82161590389930        1.09831774952253
H           -2.14073808381298       -0.13401726968177        1.33885898829977
H           -1.10288673855124       -2.57068141822939        0.03655954855584
H            2.05444476822765       -1.98820943111250        0.28624415285123
H            3.21316985996094        1.05836415454749        0.13616711131217
20
 energy: -36.133894012454 gnorm: 0.018767622799 xtb: 6.7.1 (41059b4)
C            0.56108252814929        1.71921405387811        0.01305874418657
C            1.38412158272490        0.45527830441825       -0.25411304392770
H            1.60705428900070        0.37656629434391       -1.32776011496411
C            0.55948867616712       -0.75296568988296        0.17803248383090
H            0.40556868071425       -0.68717052457679        1.26663176461048
C           -0.79046530614297       -0.74388143693008       -0.53372531701071
H           -0.62838992088795       -0.89754062738778       -1.61048183498802
C           -1.49374324288412        0.60732125446563       -0.31896320497920
H           -2.36860675258953        0.68221209454864       -0.98044434999924
O           -0.66995399711635        1.67296455139412       -0.69628805100616
O           -1.88788746655699        0.74034173584488        1.02252591516634
O           -1.63244196248985       -1.75564172368331       -0.01231021560048
O            1.19521871167603       -1.97984724346844       -0.13916755500785
O            2.58775428159591        0.42920853031358        0.50354215561163
H            1.06936662746255        2.61467997848460       -0.35160521260380
H            0.37698117278704        1.81853629400351        1.08910477283075
H           -2.15118661474228       -0.14252691082178        1.31986263770750
H           -1.10701942861165       -2.56561842315712        0.01889905815835
H            2.06419036471872       -1.96709695959608        0.28039220974234
H            3.20011237569576        1.07912975341718        0.14086735736623
20
 energy: -36.134468676484 gnorm: 0.006013517933 xtb: 6.7.1 (41059b4)
C            0.56286196400962        1.71574825636548        0.00793971311558
C            1.39011001339864        0.44889126856842       -0.25369646530893
H            1.60490414712134        0.36398084176457       -1.32854981724670
C            0.55896998253836       -0.76125996204850        0.18385228624665
H            0.40040852272080       -0.68873172665927        1.27098944270817
C           -0.79444287747608       -0.74837274901090       -0.53206809662817
H           -0.62753752541545       -0.90621543247877       -1.60677066245735
C           -1.48606937265609        0.61198492060150       -0.31083537429395
H           -2.36610850614297        0.69132737945420       -0.96780941569782
O           -0.66311716112957        1.66778142719496       -0.69319056222122
O           -1.86909946618688        0.73419534605883        1.02672442648747
O           -1.63673249586210       -1.74596846626405       -0.01087462516724
O            1.19293817522522       -1.98204818429033       -0.12049990806901
O            2.59035824132533        0.42209004619859        0.49091881626784
H            1.07112530691702        2.60747642251996       -0.36269314268796
H            0.38032234072263        1.81608177555788        1.08390092291312
H           -2.16889130448662       -0.14382141843152        1.30749945359583
H           -1.12212744074353       -2.56385069307784        0.00174111501882
H            2.08105646797972       -1.94505373759540        0.26079549557482
H            3.18231558681121        1.10892799118027        0.16068459697388
20
 energy: -36.134610287795 gnorm: 0.007434793682 xtb: 6.7.1 (41059b4)
C            0.56525109562502        1.71442878484941        0.00547578841592
C            1.39162747274752        0.44553078922885       -0.25483711381979
H            1.59864595690244        0.35710736646538       -1.33204380529273
C            0.55990341805782       -0.76452156533606        0.18710840387282
H            0.39564553896403       -0.68539532010498        1.27359707523386
C           -0.79419266211847       -0.75165087196065       -0.53111870732079
H           -0.62405454358090       -0.90607438362755       -1.60605866543223
C           -1.48314559613906        0.61173973896365       -0.30731139242977
H           -2.36494248374743        0.68998559623906       -0.96351149257108
O           -0.66099334600824        1.66523318300009       -0.69259442985737
O           -1.86013006428665        0.73337744354639        1.03078441965009
O           -1.64030725793905       -1.74504430404653       -0.01223558375616
O            1.19395317661778       -1.98428268914392       -0.11225198117341
O            2.59234308822031        0.41677499579576        0.48390819179399
H            1.07616215874339        2.60370027894213       -0.36815595067770
H            0.38849730714644        1.81674669648219        1.08265002371263
H           -2.17958576995352       -0.13941938047663        1.30597860584549
H           -1.13366742685634       -2.56781515529834       -0.00652763792353
H            2.09031532283368       -1.93542776362916        0.24797655893439
H            3.16991921344183        1.12816986571901        0.17722589191920
20
 energy: -36.134732459658 gnorm: 0.007370659074 xtb: 6.7.1 (41059b4)
C            0.56921746152739        1.71254056648573        0.00265718904017
C            1.39184061458092        0.44087751226448       -0.25698633114413
H            1.58924277871545        0.34787567543040       -1.33727865523488
C            0.56125899187107       -0.76770460869191        0.19154749381684
H            0.39002135759959       -0.68063695851584        1.27722221649416
C           -0.79190908493043       -0.75481604833843       -0.53007780398035
H           -0.61818694895631       -0.90234253574468       -1.60587792957373
C           -1.48047295074230        0.60997339308441       -0.30336906731161
H           -2.36448089134413        0.68540570223779       -0.95790075047484
O           -0.65967044034013        1.66317629133312       -0.69171710378172
O           -1.85012633333527        0.73370510125981        1.03719937844203
O           -1.64422105528851       -1.74646543406114       -0.01728491799718
O            1.19694830722407       -1.98763047738086       -0.10139875030241
O            2.59575655524770        0.40996118019068        0.47412817781229
H            1.08369656854534        2.59869640988972       -0.37541868914275
H            0.39994977819578        1.81956214877056        1.08128149388084
H           -2.19439227585653       -0.13042509781681        1.30723033624781
H           -1.14735208074909       -2.57461326657210       -0.01792237475082
H            2.10121082777332       -1.92460775275279        0.23305787365303
H            3.15291341893267        1.15063150453597        0.19896641343110
20
 energy: -36.134786587319 gnorm: 0.003928250501 xtb: 6.7.1 (41059b4)
C            0.57194772227725        1.71108255403482        0.00117033937928
C            1.39099917889190        0.43799738308752       -0.25818648736053
H            1.58499665011179        0.34284501496237       -1.33942101405696
C            0.56135920146920       -0.76868998439122        0.19423574035692
H            0.38816567881679       -0.67870692904411        1.27941914242236
C           -0.79001385491424       -0.75558052974093       -0.52942604633239
H           -0.61491146492911       -0.89909947950264       -1.60571702242250
C           -1.47919601544455        0.60847543310419       -0.30144159484690
H           -2.36466237884501        0.68237984791729       -0.95374755371918
O           -0.65946897689289        1.66294999560679       -0.69093693073390
O           -1.84554706926895        0.73420462420462        1.04106693407512
O           -1.64550532084003       -1.74848251533745       -0.02190636108398
O            1.19842028610811       -1.98966519409117       -0.09459292516455
O            2.59831489126695        0.40705279854704        0.46853914055810
H            1.08747797981915        2.59567271598714       -0.38003699390632
H            0.40514496057420        1.82162329888120        1.07997826194341
H           -2.20415560253790       -0.12388446474806        1.30872320757177
H           -1.15206248596674       -2.57814718756215       -0.02463077630287
H            2.10643968708362       -1.91848846986338        0.22493006871012
H            3.14350153189108        1.15962439355623        0.21003907003684
20
 energy: -36.134814145320 gnorm: 0.002395550509 xtb: 6.7.1 (41059b4)
C            0.57483606305036        1.70865289153018       -0.00038383323371
C            1.39056679436714        0.43462829085032       -0.25998337228642
H            1.58400367341201        0.33944801601143       -1.34113297769936
C            0.56078517875335       -0.76981175820671        0.19535374299336
H            0.38859275118671       -0.67881707001180        1.28024914138606
C           -0.78916107422137       -0.75557099434622       -0.52889846581187
H           -0.61404434610385       -0.89777696611821       -1.60532569893331
C           -1.47786975392533        0.60761986053220       -0.30009721119719
H           -2.36495213786344        0.68160236916033       -0.94928243083359
O           -0.65867563100819        1.66282111852540       -0.69042073678738
O           -1.84162870747329        0.73489275724508        1.04388921933958
O           -1.64595953408146       -1.74970358148628       -0.02477940299515
O            1.19813706336092       -1.99231655531334       -0.08971167589858
O            2.60122147256056        0.40362432381546        0.46314039365591
H            1.09003459015794        2.59225090777892       -0.38432123384782
H            0.40816419888700        1.82166017667290        1.07796392392041
H           -2.21322183401096       -0.11774526182429        1.30931972810216
H           -1.15247441187955       -2.57902796838486       -0.02763540412944
H            2.10939509338415       -1.91453789062856        0.21712230192288
H            3.13349515011789        1.17127063980612        0.22299219145731
20
 energy: -36.134822686896 gnorm: 0.001107914264 xtb: 6.7.1 (41059b4)
C            0.57584011485938        1.70785179731542       -0.00121030261981
C            1.39047466085633        0.43376653354440       -0.26082959723157
H            1.58555207348508        0.33847666876174       -1.34133706221199
C            0.56027027184421       -0.76975069276551        0.19486496955443
H            0.38972967652602       -0.67940670409706        1.27981027219492
C           -0.78935338054189       -0.75513173391796       -0.52887380691095
H           -0.61484501033466       -0.89803868940013       -1.60526801321051
C           -1.47746904006528        0.60744065397836       -0.29994308477878
H           -2.36528476593151        0.68218467280732       -0.94747612017358
O           -0.65839024215399        1.66274814169108       -0.69055895220149
O           -1.84031681061415        0.73490399888908        1.04460510002078
O           -1.64547599370196       -1.75013332821529       -0.02500989632092
O            1.19692148702599       -1.99327913701712       -0.08975417084388
O            2.60190582204759        0.40295941238909        0.46236378119028
H            1.09023241984706        2.59132290349686       -0.38607365709883
H            0.40827020794258        1.82107149418760        1.07674339187707
H           -2.21632062781010       -0.11558701065541        1.30913427056806
H           -1.14892965128623       -2.57772526764738       -0.02553542027107
H            2.10901951092196       -1.91434232344835        0.21297406765860
H            3.12941387575414        1.17383191571134        0.22943242993308
20
 energy: -36.134826977700 gnorm: 0.001805679878 xtb: 6.7.1 (41059b4)
C            0.57727095320131        1.70643449672538       -0.00280062886340
C            1.39123966179051        0.43218843895673       -0.26253956713582
H            1.58806377006408        0.33743837224810       -1.34254746010662
C            0.55997752315208       -0.77061008567106        0.19309360885946
H            0.39142540749505       -0.68081058364020        1.27828627594759
C           -0.79041002093074       -0.75514842494779       -0.52898045437248
H           -0.61717481403638       -0.89954243466349       -1.60537637887402
C           -1.47681014914275        0.60770632741359       -0.29973716331691
H           -2.36558794909013        0.68384156732161       -0.94558718831509
O           -0.65737890299139        1.66203153861204       -0.69134080026740
O           -1.83777929493174        0.73541205829826        1.04531005760886
O           -1.64545416962133       -1.75012264984942       -0.02363182506768
O            1.19495982645165       -1.99509068021731       -0.09193083593158
O            2.60267544454271        0.40079693140781        0.46126795991276
H            1.09105170937418        2.58972744159512       -0.38841848133374
H            0.40936590516456        1.81949500164800        1.07495781481930
H           -2.21958434442375       -0.11283038145027        1.30860877742899
H           -1.14482561355237       -2.57559465664526       -0.01969962741364
H            2.10857966662960       -1.91556198664602        0.20609369551072
H            3.12163998952546        1.18340301511228        0.24303042003453
20
 energy: -36.134831164012 gnorm: 0.000782791221 xtb: 6.7.1 (41059b4)
C            0.57666981767597        1.70688118113830       -0.00323390338314
C            1.39176098892424        0.43296714603483       -0.26258690658003
H            1.59009144341201        0.33838992238798       -1.34239392302413
C            0.56024553810962       -0.77056620609432        0.19136344075641
H            0.39225184736224       -0.68187735230788        1.27687837568115
C           -0.79122150170870       -0.75511753043827       -0.52941339493184
H           -0.61897758672173       -0.90037505120880       -1.60589333774154
C           -1.47730197914148        0.60814078621355       -0.30026343777920
H           -2.36587840090209        0.68470816051940       -0.94664779733229
O           -0.65749426177417        1.66180525303257       -0.69221538990907
O           -1.83829259915013        0.73565681763896        1.04458859373561
O           -1.64516938882940       -1.74995054364537       -0.02190903819118
O            1.19432925445486       -1.99478443111482       -0.09629579823733
O            2.60151847178181        0.40166687004691        0.46374517223462
H            1.09047420289577        2.59047125626257       -0.38812835874607
H            0.40886016734246        1.81921644160117        1.07471603084811
H           -2.21704696944577       -0.11366951659155        1.30858391041087
H           -1.14201465560683       -2.57415887337535       -0.01393166961355
H            2.10701317191357       -1.91855309429147        0.20538585046014
H            3.12142703807836        1.18231206979971        0.24570978046629
20
 energy: -36.134832804840 gnorm: 0.000446973697 xtb: 6.7.1 (41059b4)
C            0.57648436854183        1.70704525842430       -0.00369807724999
C            1.39210127340124        0.43313564752909       -0.26275843804234
H            1.59087635345074        0.33874595426013       -1.34269635979438
C            0.56073486193504       -0.77102872519619        0.19018358433770
H            0.39279979936563       -0.68292977046978        1.27590327777282
C           -0.79145419171776       -0.75533700879381       -0.52968631439748
H           -0.62023013376769       -0.90050760083857       -1.60633601838310
C           -1.47747301052401        0.60838240255484       -0.30042547321001
H           -2.36589902664253        0.68464367233651       -0.94729810677797
O           -0.65741523525218        1.66172015547184       -0.69279451361867
O           -1.83835861140029        0.73622881041563        1.04431681162138
O           -1.64535661481514       -1.74971731915813       -0.02094403929358
O            1.19439939887398       -1.99482950035986       -0.09921186368523
O            2.60082701688715        0.40189161516887        0.46474155850803
H            1.09080629241835        2.59060763006934       -0.38834080814319
H            0.40919033629416        1.81959557597697        1.07447557642074
H           -2.21512269347547       -0.11397915049416        1.30906085606140
H           -1.14224770213305       -2.57393457656605       -0.01057465789889
H            2.10671606885950       -1.92052352209326        0.20495467497362
H            3.11986604837109        1.18395375737038        0.24918652992295
20
 energy: -36.134832324369 gnorm: 0.000967569080 xtb: 6.7.1 (41059b4)
C            0.57629202915071        1.70721065529871       -0.00418352756626
C            1.39245303948981        0.43331142453562       -0.26294026310773
H            1.59170171261295        0.33912393837544       -1.34300813560917
C            0.56123790580368       -0.77150403098808        0.18895234491219
H            0.39338236917184       -0.68403596990756        1.27488568439398
C           -0.79169418565468       -0.75555454461445       -0.52996938771641
H           -0.62153858131931       -0.90064980590231       -1.60679294118636
C           -1.47765062214129        0.60863496376985       -0.30059660946436
H           -2.36592386616924        0.68458001015135       -0.94796310836659
O           -0.65733674740993        1.66164299670647       -0.69339275366725
O           -1.83843332581109        0.73681896082621        1.04402976962183
O           -1.64554694725942       -1.74946201151892       -0.01993968378419
O            1.19447534417277       -1.99486942581699       -0.10224533457564
O            2.60012010898119        0.40213184329954        0.46576275023904
H            1.09114222389510        2.59074492924121       -0.38857040290858
H            0.40951834952052        1.81998407660804        1.07421654271233
H           -2.21306593088135       -0.11432153658251        1.30956613590320
H           -1.14250189797284       -2.57369846223194       -0.00712365198453
H            2.10637608178917       -1.92258841417235        0.20457271453179
H            3.11823753870202        1.18566370853077        0.25279805674653
20
 energy: -36.134833603223 gnorm: 0.000398810154 xtb: 6.7.1 (41059b4)
C            0.57664308794826        1.70684306414430       -0.00426799565390
C            1.39229912943578        0.43299500277454       -0.26318313824093
H            1.59157311872169        0.33882363240927       -1.34308547600077
C            0.56096218148910       -0.77130425707968        0.18927868543240
H            0.39349401469347       -0.68381446807329        1.27513981169380
C           -0.79152138406234       -0.75530218893658       -0.52980396111143
H           -0.62114762943279       -0.90060446750027       -1.60654224461993
C           -1.47749222444349        0.60846610755875       -0.30047688269878
H           -2.36603837614629        0.68457978629817       -0.94715235651224
O           -0.65735937913795        1.66177614073623       -0.69313947411949
O           -1.83810159090595        0.73662073127811        1.04431925484275
O           -1.64544125859080       -1.74941430171422       -0.02039803492911
O            1.19436786381491       -1.99501634453229       -0.10104803798423
O            2.60081213031095        0.40183514392455        0.46473344540628
H            1.09112312406022        2.59029333737723       -0.38908913623461
H            0.40950084601632        1.81967835810736        1.07392649230866
H           -2.21358536467113       -0.11393608318411        1.30966809293124
H           -1.14248824673665       -2.57373320796389       -0.00898925153383
H            2.10607649554633       -1.92203946731018        0.20494516272371
H            3.11756806076095        1.18641678729408        0.25322324342424
20
 energy: -36.134833167100 gnorm: 0.000986101481 xtb: 6.7.1 (41059b4)
C            0.57699310028557        1.70647604659263       -0.00435215068009
C            1.39214562699815        0.43267951906041       -0.26342530014375
H            1.59144543056077        0.33852476656649       -1.34316223559212
C            0.56068693222087       -0.77110448490180        0.18960396406605
H            0.39360542749787       -0.68359398729200        1.27539299523471
C           -0.79134880532987       -0.75504980742737       -0.52963913426698
H           -0.62075766265771       -0.90055886775483       -1.60629226888606
C           -1.47733446881777        0.60829760912014       -0.30035756184415
H           -2.36615306683760        0.68457956317847       -0.94634308135762
O           -0.65738244686143        1.66190938101946       -0.69288645038410
O           -1.83777111412555        0.73642245296621        1.04460798015992
O           -1.64533529208532       -1.74936657560946       -0.02085597533974
O            1.19426094562008       -1.99516238342866       -0.09985369255385
O            2.60150313606014        0.40153940301043        0.46370641519608
H            1.09110341494740        2.58984260905595       -0.38960659774401
H            0.40948261742416        1.81937280487011        1.07363701041773
H           -2.21410320502263       -0.11355157050411        1.30976963133382
H           -1.14247288294047       -2.57376708303546       -0.01085000990230
H            2.10577554394018       -1.92149275662818        0.20531897936090
H            3.11690136779375        1.18716666674966        0.25364568204940
20
 energy: -36.134834009669 gnorm: 0.000178986731 xtb: 6.7.1 (41059b4)
C            0.57690730823477        1.70672556269693       -0.00442664558301
C            1.39219237301789        0.43277917508710       -0.26338595489456
H            1.59132909868849        0.33840947063875       -1.34324843858999
C            0.56084316163362       -0.77132557476415        0.18953794197806
H            0.39364987643872       -0.68364918190515        1.27538762799185
C           -0.79145929437728       -0.75529148199308       -0.52962707283606
H           -0.62095581051908       -0.90074789412681       -1.60631762197204
C           -1.47729190374943        0.60842040401523       -0.30035740929698
H           -2.36596380920579        0.68459344336430       -0.94673398068360
O           -0.65723631712795        1.66182493007647       -0.69306246757937
O           -1.83776884242856        0.73660284846559        1.04447410032778
O           -1.64555129531331       -1.74923809032493       -0.02038668142834
O            1.19427286907930       -1.99517530189572       -0.10035883039628
O            2.60107824964840        0.40173433805321        0.46404168489241
H            1.09126666025272        2.59007397516075       -0.38956122757306
H            0.40967429824176        1.81971883315477        1.07369088843384
H           -2.21323897833422       -0.11403923837845        1.30990035701649
H           -1.14347103311534       -2.57406243612020       -0.01076920198383
H            2.10634749622450       -1.92157162951569        0.20515409126941
H            3.11662049138135        1.18738115391916        0.25410704003110
20
 energy: -36.134834201987 gnorm: 0.000296150534 xtb: 6.7.1 (41059b4)
C            0.57677663567663        1.70686145125473       -0.00455692050799
C            1.39230765379218        0.43297066283084       -0.26348064347008
H            1.59132291245443        0.33865731336685       -1.34342550844800
C            0.56104730405448       -0.77135208026715        0.18923811131380
H            0.39372406251299       -0.68380182032587        1.27511881367268
C           -0.79151373094885       -0.75534599568664       -0.52968174477314
H           -0.62117480137711       -0.90082822227546       -1.60639672196724
C           -1.47740679516830        0.60847586192648       -0.30040998077318
H           -2.36599667618013        0.68454495518188       -0.94701890766914
O           -0.65730072008964        1.66178770249493       -0.69325943482331
O           -1.83790226109649        0.73677313159736        1.04437341630376
O           -1.64562986646121       -1.74907369328166       -0.01997788180039
O            1.19448048571495       -1.99500960662468       -0.10118314886964
O            2.60100550514727        0.40186092509988        0.46409287713451
H            1.09125584515658        2.59023198348954       -0.38957561238705
H            0.40977790499920        1.81985244673304        1.07365150407141
H           -2.21139977388030       -0.11455906626908        1.31044993147032
H           -1.14420684171144       -2.57424979918491       -0.01111720055774
H            2.10571645886314       -1.92259041212461        0.20654558359443
H            3.11636129721222        1.18795756767262        0.25467166760980
20
 energy: -36.134834382566 gnorm: 0.000132857953 xtb: 6.7.1 (41059b4)
C            0.57691522596455        1.70677514803298       -0.00477442030224
C            1.39232416873653        0.43285860669276       -0.26365250121766
H            1.59138750572842        0.33844604421574       -1.34355315149516
C            0.56102096599080       -0.77137371662496        0.18923208287128
H            0.39393934345799       -0.68379197191364        1.27512105970648
C           -0.79158212113034       -0.75532301444540       -0.52957310663263
H           -0.62130859080587       -0.90097381021381       -1.60625923355540
C           -1.47735380576269        0.60849559328339       -0.30039206075746
H           -2.36602685871365        0.68462929088887       -0.94684606498150
O           -0.65722945259282        1.66175063076916       -0.69336562488591
O           -1.83773586923158        0.73685959244638        1.04440960705846
O           -1.64569285212101       -1.74895460166129       -0.01972495287240
O            1.19432896689909       -1.99511782652974       -0.10116344382078
O            2.60111493184516        0.40183340745373        0.46383136020863
H            1.09135124848202        2.59008498886196       -0.38994396492868
H            0.40986853684042        1.81986562216881        1.07339894711761
H           -2.21060058225732       -0.11468642019064        1.31076920119551
H           -1.14467317679791       -2.57437338780385       -0.01198011788454
H            2.10569241232843       -1.92269161998734        0.20663129938684
H            3.11550460181037        1.18885075016499        0.25589328491339
20
 energy: -36.134834427803 gnorm: 0.000038558124 xtb: 6.7.1 (41059b4)
C            0.57701672796326        1.70672413405859       -0.00494518002510
C            1.39233305307352        0.43278338680497       -0.26377542531865
H            1.59145212582646        0.33832036300589       -1.34364495311277
C            0.56100717441639       -0.77138136468842        0.18920883740696
H            0.39408845198462       -0.68382542858311        1.27510820447860
C           -0.79162622810534       -0.75530209132659       -0.52951814635683
H           -0.62141626414384       -0.90108194908340       -1.60618863823401
C           -1.47730878805170        0.60850789976721       -0.30036446114411
H           -2.36604375242398        0.68470451347368       -0.94669206421568
O           -0.65718440994447        1.66173445264538       -0.69346020829145
O           -1.83763230358880        0.73696166654866        1.04445245743557
O           -1.64569174590626       -1.74890786905707       -0.01954206680754
O            1.19424877630207       -1.99517240348785       -0.10119937160943
O            2.60120810036478        0.40181992533292        0.46364118610171
H            1.09138314369763        2.59001064300467       -0.39023773157788
H            0.40991189652594        1.81989441582067        1.07320029811156
H           -2.20997179501322       -0.11476544768814        1.31106735419584
H           -1.14493028552652       -2.57446649723776       -0.01264970559148
H            2.10552881839121       -1.92288512619327        0.20681465618255
H            3.11487190282887        1.18949008249107        0.25678315749597
