
                                 *****************
                                 * O   R   C   A *
                                 *****************

                                            #,                                       
                                            ###                                      
                                            ####                                     
                                            #####                                    
                                            ######                                   
                                           ########,                                 
                                     ,,################,,,,,                         
                               ,,#################################,,                 
                          ,,##########################################,,             
                       ,#########################################, ''#####,          
                    ,#############################################,,   '####,        
                  ,##################################################,,,,####,       
                ,###########''''           ''''###############################       
              ,#####''   ,,,,##########,,,,          '''####'''          '####       
            ,##' ,,,,###########################,,,                        '##       
           ' ,,###''''                  '''############,,,                           
         ,,##''                                '''############,,,,        ,,,,,,###''
      ,#''                                            '''#######################'''  
     '                                                          ''''####''''         
             ,#######,   #######,   ,#######,      ##                                
            ,#'     '#,  ##    ##  ,#'     '#,    #''#        ,####,   ,####,        
            ##       ##  ##   ,#'  ##            #'  '#       #'       #'  '#        
            ##       ##  #######   ##           ,######,      #####,   #    #        
            '#,     ,#'  ##    ##  '#,     ,#' ,#      #,     #,   #   #,  ,#        
             '#######'   ##     ##  '#######'  #'      '#     '####' # '####'        



                #########################################################
                #                        -***-                          #
                #          Department of theory and spectroscopy        #
                #                                                       #
                #                      Frank Neese                      #
                #                                                       #
                #     Directorship, Architecture, Infrastructure        #
                #                    SHARK, DRIVERS                     #
                #        Core code/Algorithms in most modules           #
                #                                                       #
                #        Max Planck Institute fuer Kohlenforschung      #
                #                Kaiser Wilhelm Platz 1                 #
                #                 D-45470 Muelheim/Ruhr                 #
                #                      Germany                          #
                #                                                       #
                #                  All rights reserved                  #
                #                        -***-                          #
                #########################################################


                         Program Version 6.0.1  -  RELEASE   -


 With contributions from (in alphabetic order):
[Max-Planck-Institut fuer Kohlenforschung]                               
  Daniel Aravena         : Magnetic Suceptibility                        
  Michael Atanasov       : Ab Initio Ligand Field Theory (pilot matlab implementation)
  Alexander A. Auer      : GIAO ZORA, VPT2 properties, NMR spectrum      
  Ute Becker             : All parallelization in ORCA, NUMFREQ, NUMCALC 
  Giovanni Bistoni       : ED, misc. LED, open-shell LED, HFLD           
  Martin Brehm           : Molecular dynamics                            
  Dmytro Bykov           : pre 5.0 version of the SCF Hessian            
  Marcos Casanova-Páez   : Triplet and SCS-CIS(D). UHF-(DLPNO)-IP/EA/STEOM-CCSD. UHF-CVS-IP/STEOM-CCSD   
  Vijay G. Chilkuri      : MRCI spin determinant printing, contributions to CSF-ICE 
  Pauline Colinet        : FMM embedding                                 
  Dipayan Datta          : RHF DLPNO-CCSD density                        
  Achintya Kumar Dutta   : EOM-CC, STEOM-CC                              
  Nicolas Foglia         : Exact transition moments, OPA infrastructure, MCD improvements    
  Dmitry Ganyushin       : Spin-Orbit,Spin-Spin,Magnetic field MRCI      
  Miquel Garcia-Rates    : C-PCM and meta-GGA Hessian, CCSD/C-PCM, Gaussian charge scheme 
  Tiago L. C. Gouveia    : GS-ROHF, GS-ROCIS                             
  Yang Guo               : DLPNO-NEVPT2, F12-NEVPT2, CIM, IAO-localization        
  Andreas Hansen         : Spin unrestricted coupled pair/coupled cluster methods 
  Ingolf Harden          : AUTO-CI MPn and infrastructure                
  Benjamin Helmich-Paris : MC-RPA, TRAH-(SCF,CASSCF), AVAS, COSX integrals, SCF dyn. polar. 
  Lee Huntington         : MR-EOM, pCC                                   
  Robert Izsak           : Overlap fitted RIJCOSX, COSX-SCS-MP3, EOM     
  Riya Kayal             : Wick's Theorem for AUTO-CI, AUTO-CI UHF-CCSDT 
  Emily Kempfer          : AUTO-CI, RHF CISDT and CCSDT                  
  Christian Kollmar      : KDIIS, OOCD, Brueckner-CCSD(T), CCSD density, CASPT2, CASPT2-K, improved NEVPT2 
  Axel Koslowski         : Symmetry handling                             
  Simone Kossmann        : meta-GGA functionals, TD-DFT gradient, OOMP2, (MP2 Hessian; deprecated post 5.0) 
  Lucas Lang             : DCDCAS                                        
  Marvin Lechner         : AUTO-CI (C++ implementation), FIC-MRCC        
  Spencer Leger          : CASSCF response                               
  Dagmar Lenk            : GEPOL surface, SMD, ORCA-2-JSON               
  Dimitrios Liakos       : Extrapolation schemes; Compound Job, initial MDCI parallelization 
  Dimitrios Manganas     : Further ROCIS development; embedding schemes. LFT, Crystal Embedding 
  Dimitrios Pantazis     : SARC Basis sets                               
  Anastasios Papadopoulos: AUTO-CI, single reference methods and gradients 
  Taras Petrenko         : pre 6.0 DFT Hessian and TD-DFT gradient, (ASA, deprecated), ECA, 1-Electron XAS/XES, NRVS 
  Peter Pinski           : DLPNO-MP2, DLPNO-MP2 Gradient                 
  Christoph Reimann      : Effective Core Potentials                     
  Marius Retegan         : Local ZFS, SOC                                
  Christoph Riplinger    : Optimizer, TS searches, QM/MM, DLPNO-CCSD(T), (RO)-DLPNO pert. Triples 
  Michael Roemelt        : Original ROCIS implementation                 
  Masaaki Saitow         : Open-shell DLPNO-CCSD energy and density      
  Barbara Sandhoefer     : DKH picture change effects                    
  Kantharuban Sivalingam : CASSCF convergence/infrastructure, NEVPT2 and variants, FIC-MRCI 
  Bernardo de Souza      : ESD, SOC TD-DFT                               
  Georgi L. Stoychev     : AutoAux, RI-MP2 NMR, DLPNO-MP2 response, X2C  
  Van Anh Tran           : RI-MP2 g-tensors                              
  Willem Van den Heuvel  : Paramagnetic NMR                              
  Zikuan Wang            : NOTCH, Electric field optimization            
  Frank Wennmohs         : Technical directorship and infrastructure     
  Hang Xu                : AUTO-CI-Response properties                   
                                                                         
[FACCTs GmbH]                                                            
  Markus Bursch, Miquel Garcia-Rates, Christoph Riplinger, Bernardo de Souza, Georgi L. Stoychev 
                                                                 
  APM, Basis sets (HGBS, AHGBS, def-TZVP (Ac-Lr), def2-XVPD (La-Lu)), CI-OPT, improved COSX, DLPNO-Multilevel,           
  DOCKER, DRACO, updates on ESD, GOAT, IRC, LR-CPCM, MBIS, meta-GGA TD-DFT gradient, ML-optimized integration grids, 
  MM, NACMEs, nearIR, NEB, NEB-TS, NL-DFT gradient (VV10), 2- and 3-layer-ONIOM, interface openCOSMO-RS, QMMM,   
  Crystal-QMMM, SF, symmetry and pop. for TD-DFT, r2SCAN hybrids, SOLVATOR                                   
                                                                         
[Other institutions]                                                     
  V. Asgeirsson          : NEB                                           
  Christoph Bannwarth    : sTDA-DFT, sTD-DFT, PBEh-3c, B97-3c, D3        
  Sebastian Ehlert       : rSCAN, r2SCAN, r2SCAN-3c, D4, dhf basis sets  
  Marvin Friede          : D4 for Fr, Ra, Ac-Lr                          
  Lars Goerigk           : TD-DFT with DH, B97 family of functionals     
  Stefan Grimme          : VdW corrections, initial TS optimization, DFT functionals, gCP, sTDA/sTD-DF 
  Waldemar Hujo          : DFT-NL                                        
  H. Jonsson             : NEB                                           
  Holger Kruse           : gCP                                           
  Marcel Mueller         : wB97X-3c, vDZP basis set                      
  Hagen Neugebauer       : wr2SCAN                                       
  Tobias Risthaus        : range-separated hybrid DFT                    
  Lukas Wittmann         : regularized MP2, r2SCAN double-hybrids, wr2SCAN        
                                                                         
We gratefully acknowledge several colleagues who have allowed us to      
interface, adapt or use parts of their codes:                            
  Ed Valeev, F. Pavosevic, A. Kumar             : LibInt (2-el integral package), F12 methods 
  Garnet Chan, S. Sharma, J. Yang, R. Olivares  : DMRG                   
  Ulf Ekstrom                                   : XCFun DFT Library      
  Mihaly Kallay                                 : mrcc  (arbitrary order and MRCC methods)
  Frank Weinhold                                : gennbo (NPA and NBO analysis)           
  Simon Mueller                                 : openCOSMO-RS                            
  Christopher J. Cramer and Donald G. Truhlar   : smd solvation model                     
  S Lehtola, MJT Oliveira, MAL Marques          : LibXC Library                           
  Liviu Ungur et al                             : ANISO software                          


 Your calculation uses the libint2 library for the computation of 2-el integrals
 For citations please refer to: http://libint.valeyev.net

 Your ORCA version has been built with support for libXC version: 6.2.2
 For citations please refer to: https://libxc.gitlab.io

 This ORCA versions uses:
   CBLAS   interface :  Fast vector & matrix operations
   LAPACKE interface :  Fast linear algebra routines
   SCALAPACK package :  Parallel linear algebra routines
   Shared memory     :  Shared parallel matrices
   BLAS/LAPACK       :  OpenBLAS 0.3.27  USE64BITINT DYNAMIC_ARCH NO_AFFINITY Zen SINGLE_THREADED
        Core in use  :  Zen
   Copyright (c) 2011-2014, The OpenBLAS Project


Your calculation utilizes the geometrical counterpoise correction gCP
Please cite in your paper:
H.Kruse, S. Grimme J.Chem.Phys., 136, (2012), 154101 
   

Your calculation utilizes the atom-pairwise dispersion correction
based on EEQ partial charges (D4)


================================================================================

----- Orbital basis set information -----
Your calculation utilizes the basis: def2-mTZVPP
   Stefan Grimme, Andreas Hansen, Sebastian Ehlert, and Jan-Michael Mewes 
   J. Chem. Phys. 154, 064103 (2021). DOI: 10.1063/5.0040021

----- AuxJ basis set information -----
Your calculation utilizes the auxiliary basis: def2/J
   F. Weigend, Phys. Chem. Chem. Phys. 8, 1057 (2006).

================================================================================
                                        WARNINGS
                       Please study these warnings very carefully!
================================================================================

WARNING: Old DensityContainer found on disk!
         Will remove this file - 
         If you want to keep old densities, please start your calculation with a different basename. 



WARNING: SCAN, rSCAN, or r2SCAN functional requested.
  ===> : libXC variant has now been activated.



================================================================================
                                       INPUT FILE
================================================================================
NAME = sp.inp
|  1> ! r2scan-3c def2/J RI DEFGRID2 scfconv6 printgap
|  2> %output
|  3>     printlevel normal
|  4> end
|  5> * xyz 0 1
|  6> C -2.6052798646 1.401890983 0.0003460629
|  7> C -1.6074599913 0.2921695743 -0.0004429191
|  8> C -1.8700438687 -1.046407598 -0.0003054625
|  9> N -0.7004417992 -1.7611995654 0.000121766
| 10> C 0.3488513978 -0.8907326586 0.0002467911
| 11> C -0.184051875 0.4222346893 6.29639e-05
| 12> C 0.6903690842 1.5094528858 9.011e-06
| 13> C 2.0452694737 1.2691405701 -0.0002003609
| 14> C 2.5545424479 -0.0326799703 -0.0001295658
| 15> C 1.7177111075 -1.1271346116 0.0001379469
| 16> H -3.2656564675 1.3284369461 -0.8632669159
| 17> H -3.2221979771 1.3665658581 0.8981316467
| 18> H -2.0997389038 2.3628081754 -0.0323786727
| 19> H -2.8177703572 -1.5509704232 -0.0009783603
| 20> H -0.6300076872 -2.7640016769 0.0002764829
| 21> H 0.3110181587 2.5208380874 0.0002184906
| 22> H 2.7364384445 2.0995484581 -0.0003358205
| 23> H 3.6246929299 -0.1793018215 -0.0003036848
| 24> H 2.1089250276 -2.1344044922 0.000228144
| 25> *
| 26> 
| 27>                          ****END OF INPUT****
================================================================================

                       ****************************
                       * Single Point Calculation *
                       ****************************

---------------------------------
CARTESIAN COORDINATES (ANGSTROEM)
---------------------------------
  C     -2.605280    1.401891    0.000346
  C     -1.607460    0.292170   -0.000443
  C     -1.870044   -1.046408   -0.000305
  N     -0.700442   -1.761200    0.000122
  C      0.348851   -0.890733    0.000247
  C     -0.184052    0.422235    0.000063
  C      0.690369    1.509453    0.000009
  C      2.045269    1.269141   -0.000200
  C      2.554542   -0.032680   -0.000130
  C      1.717711   -1.127135    0.000138
  H     -3.265656    1.328437   -0.863267
  H     -3.222198    1.366566    0.898132
  H     -2.099739    2.362808   -0.032379
  H     -2.817770   -1.550970   -0.000978
  H     -0.630008   -2.764002    0.000276
  H      0.311018    2.520838    0.000218
  H      2.736438    2.099548   -0.000336
  H      3.624693   -0.179302   -0.000304
  H      2.108925   -2.134404    0.000228

----------------------------
CARTESIAN COORDINATES (A.U.)
----------------------------
  NO LB      ZA    FRAG     MASS         X           Y           Z
   0 C     6.0000    0    12.011   -4.923265    2.649190    0.000654
   1 C     6.0000    0    12.011   -3.037659    0.552120   -0.000837
   2 C     6.0000    0    12.011   -3.533871   -1.977424   -0.000577
   3 N     7.0000    0    14.007   -1.323643   -3.328185    0.000230
   4 C     6.0000    0    12.011    0.659234   -1.683241    0.000466
   5 C     6.0000    0    12.011   -0.347808    0.797908    0.000119
   6 C     6.0000    0    12.011    1.304609    2.852453    0.000017
   7 C     6.0000    0    12.011    3.864999    2.398328   -0.000379
   8 C     6.0000    0    12.011    4.827386   -0.061756   -0.000245
   9 C     6.0000    0    12.011    3.246004   -2.129976    0.000261
  10 H     1.0000    0     1.008   -6.171196    2.510382   -1.631338
  11 H     1.0000    0     1.008   -6.089072    2.582435    1.697223
  12 H     1.0000    0     1.008   -3.967931    4.465060   -0.061187
  13 H     1.0000    0     1.008   -5.324814   -2.930909   -0.001849
  14 H     1.0000    0     1.008   -1.190542   -5.223206    0.000522
  15 H     1.0000    0     1.008    0.587739    4.763694    0.000413
  16 H     1.0000    0     1.008    5.171119    3.967572   -0.000635
  17 H     1.0000    0     1.008    6.849677   -0.338831   -0.000574
  18 H     1.0000    0     1.008    3.985291   -4.033440    0.000431

--------------------------------
INTERNAL COORDINATES (ANGSTROEM)
--------------------------------
 C      0   0   0     0.000000000000     0.00000000     0.00000000
 C      1   0   0     1.492356099251     0.00000000     0.00000000
 C      2   1   0     1.364089131167   126.94072267     0.00000000
 N      3   2   1     1.370728543572   110.33224291   180.05914572
 C      4   3   2     1.363352069253   108.89094552     0.00000000
 C      5   4   3     1.416993009371   107.58713202     0.00000000
 C      6   5   4     1.395225939982   119.10009318   180.00626646
 C      7   6   5     1.376046917216   118.75111661     0.00000000
 C      8   7   6     1.397889726219   121.42315328     0.00000000
 C      9   8   7     1.377721933375   121.23263054     0.00000000
 H      1   2   3     1.089642202903   110.77325824   301.98899808
 H      1   2   3     1.089887506332   110.78111754    61.71633890
 H      1   2   3     1.086280084516   110.27974850   181.82164601
 H      3   2   1     1.073671082953   129.12908190     0.09322804
 H      4   3   2     1.005272631130   125.44852278   180.00142908
 H      7   6   5     1.080188499557   120.63110330   180.02149867
 H      8   7   6     1.080412803052   119.71376069   179.99444835
 H      9   8   7     1.080148161916   119.16701477   179.99979222
 H     10   9   8     1.080574361985   121.37240742   180.00217078

---------------------------
INTERNAL COORDINATES (A.U.)
---------------------------
 C      0   0   0     0.000000000000     0.00000000     0.00000000
 C      1   0   0     2.820144321872     0.00000000     0.00000000
 C      2   1   0     2.577754880164   126.94072267     0.00000000
 N      3   2   1     2.590301551299   110.33224291   180.05914572
 C      4   3   2     2.576362035003   108.89094552     0.00000000
 C      5   4   3     2.677728721391   107.58713202     0.00000000
 C      6   5   4     2.636594921510   119.10009318   180.00626646
 C      7   6   5     2.600351820966   118.75111661     0.00000000
 C      8   7   6     2.641628747977   121.42315328     0.00000000
 C      9   8   7     2.603517142775   121.23263054     0.00000000
 H      1   2   3     2.059125347449   110.77325824   301.98899808
 H      1   2   3     2.059588903750   110.78111754    61.71633890
 H      1   2   3     2.052771864468   110.27974850   181.82164601
 H      3   2   1     2.028944304692   129.12908190     0.09322804
 H      4   3   2     1.899689962762   125.44852278   180.00142908
 H      7   6   5     2.041260437174   120.63110330   180.02149867
 H      8   7   6     2.041684309350   119.71376069   179.99444835
 H      9   8   7     2.041184210081   119.16701477   179.99979222
 H     10   9   8     2.041989611488   121.37240742   180.00217078

---------------------
BASIS SET INFORMATION
---------------------
There are 3 groups of distinct atoms

 Group   1 Type C   : 11s6p1d contracted to 5s3p1d pattern {62111/411/1}
 Group   2 Type N   : 11s6p2d contracted to 5s3p2d pattern {62111/411/11}
 Group   3 Type H   : 4s1p contracted to 2s1p pattern {31/1}

Atom   0C    basis set group =>   1
Atom   1C    basis set group =>   1
Atom   2C    basis set group =>   1
Atom   3N    basis set group =>   2
Atom   4C    basis set group =>   1
Atom   5C    basis set group =>   1
Atom   6C    basis set group =>   1
Atom   7C    basis set group =>   1
Atom   8C    basis set group =>   1
Atom   9C    basis set group =>   1
Atom  10H    basis set group =>   3
Atom  11H    basis set group =>   3
Atom  12H    basis set group =>   3
Atom  13H    basis set group =>   3
Atom  14H    basis set group =>   3
Atom  15H    basis set group =>   3
Atom  16H    basis set group =>   3
Atom  17H    basis set group =>   3
Atom  18H    basis set group =>   3
---------------------------------
AUXILIARY/J BASIS SET INFORMATION
---------------------------------
There are 3 groups of distinct atoms

 Group   1 Type C   : 12s5p4d2f1g contracted to 6s4p3d1f1g pattern {711111/2111/211/2/1}
 Group   2 Type N   : 12s5p4d2f1g contracted to 6s4p3d1f1g pattern {711111/2111/211/2/1}
 Group   3 Type H   : 5s2p1d contracted to 3s1p1d pattern {311/2/1}

Atom   0C    basis set group =>   1
Atom   1C    basis set group =>   1
Atom   2C    basis set group =>   1
Atom   3N    basis set group =>   2
Atom   4C    basis set group =>   1
Atom   5C    basis set group =>   1
Atom   6C    basis set group =>   1
Atom   7C    basis set group =>   1
Atom   8C    basis set group =>   1
Atom   9C    basis set group =>   1
Atom  10H    basis set group =>   3
Atom  11H    basis set group =>   3
Atom  12H    basis set group =>   3
Atom  13H    basis set group =>   3
Atom  14H    basis set group =>   3
Atom  15H    basis set group =>   3
Atom  16H    basis set group =>   3
Atom  17H    basis set group =>   3
Atom  18H    basis set group =>   3

Checking for AutoStart:
The File: sp.gbw exists
Trying to determine its content:
     ... Fine, the file contains calculation information
     ... Fine, the calculation information was read
     ... Fine, the file contains a basis set
     ... Fine, the basis set was read
     ... Fine, the file contains a geometry
     ... Fine, the geometry was read
     ... Fine, the file contains a set of orbitals
     ... Fine, the orbitals can be read
     => possible old guess file was deleted
     => GBW file was renamed to GES file
     => GES file is set as startup file
     => Guess is set to MORead
     ... now leaving AutoStart

------------------------------------------------------------------------------
                             ORCA STARTUP CALCULATIONS
                           -- RI-GTO INTEGRALS CHOSEN --
------------------------------------------------------------------------------
------------------------------------------------------------------------------
                   ___                                                        
                  /   \      - P O W E R E D   B Y -                         
                 /     \                                                     
                 |  |  |   _    _      __       _____    __    __             
                 |  |  |  | |  | |    /  \     |  _  \  |  |  /  |          
                  \  \/   | |  | |   /    \    | | | |  |  | /  /          
                 / \  \   | |__| |  /  /\  \   | |_| |  |  |/  /          
                |  |  |   |  __  | /  /__\  \  |    /   |      \           
                |  |  |   | |  | | |   __   |  |    \   |  |\   \          
                \     /   | |  | | |  |  |  |  | |\  \  |  | \   \       
                 \___/    |_|  |_| |__|  |__|  |_| \__\ |__|  \__/        
                                                                              
                      - O R C A' S   B I G   F R I E N D -                    
                                      &                                       
                       - I N T E G R A L  F E E D E R -                       
                                                                              
 v1 FN, 2020, v2 2021, v3 2022-2024                                           
------------------------------------------------------------------------------


----------------------
SHARK INTEGRAL PACKAGE
----------------------

Number of atoms                             ...     19
Number of basis functions                   ...    240
Number of shells                            ...    118
Maximum angular momentum                    ...      2
Integral batch strategy                     ... SHARK/LIBINT Hybrid
RI-J (if used) integral strategy            ... SPLIT-RIJ (Revised 2003 algorithm where possible)
Printlevel                                  ...      1
Contraction scheme used                     ... SEGMENTED contraction
Prescreening option                         ... SCHWARTZ
   Thresh                                   ... 1.000e-10
   Tcut                                     ... 1.000e-11
   Tpresel                                  ... 1.000e-11 
Coulomb Range Separation                    ... NOT USED
Exchange Range Separation                   ... NOT USED
Multipole approximations                    ... NOT USED
Finite Nucleus Model                        ... NOT USED
CABS basis                                  ... NOT available
Auxiliary Coulomb fitting basis             ... AVAILABLE
   # of basis functions in Aux-J            ...    589
   # of shells in Aux-J                     ...    195
   Maximum angular momentum in Aux-J        ...      4
Auxiliary J/K fitting basis                 ... NOT available
Auxiliary Correlation fitting basis         ... NOT available
Auxiliary 'external' fitting basis          ... NOT available

Checking pre-screening integrals            ... done (  0.0 sec) Dimension = 118
Check shell pair data                       ... done (  0.0 sec)
Shell pair information
Shell pair cut-off parameter TPreSel        ...   1.0e-11
Total number of shell pairs                 ...      7021
Shell pairs after pre-screening             ...      6213
Total number of primitive shell pairs       ...     25898
Primitive shell pairs kept                  ...     15986
          la=0 lb=0:   2011 shell pairs
          la=1 lb=0:   2365 shell pairs
          la=1 lb=1:    717 shell pairs
          la=2 lb=0:    662 shell pairs
          la=2 lb=1:    394 shell pairs
          la=2 lb=2:     64 shell pairs

Calculating one electron integrals          ... done (  0.0 sec)
Calculating RI/J V-Matrix + Cholesky decomp.... done (  0.0 sec)
Calculating Nuclear repulsion               ... done (  0.0 sec) ENN=    486.714817235673 Eh

Diagonalization of the overlap matrix:
Smallest eigenvalue                        ... 2.413e-05
Time for diagonalization                   ...    0.004 sec
Threshold for overlap eigenvalues          ... 1.000e-07
Number of eigenvalues below threshold      ... 0
Time for construction of square roots      ...    0.001 sec
Total time needed                          ...    0.006 sec

-------------------
DFT GRID GENERATION
-------------------

General Integration Accuracy     IntAcc      ... 4.388
Radial Grid Type                 RadialGrid  ... OptM3 with GC (2021)
Angular Grid (max. ang.)         AngularGrid ... 4 (Lebedev-302)
Angular grid pruning method      GridPruning ... 4 (adaptive)
Weight generation scheme         WeightScheme... mBecke (2022)
Basis function cutoff            BFCut       ... 1.0000e-10
Integration weight cutoff        WCut        ... 1.0000e-14
Partially contracted basis set               ... off
Rotationally invariant grid construction     ... off
Angular grids for H and He will be reduced by one unit

Total number of grid points                  ...    88842
Total number of batches                      ...     1397
Average number of points per batch           ...       63
Average number of grid points per atom       ...     4676
Initializing property integral containers    ... done (  0.0 sec)

SHARK setup successfully completed in   0.6 seconds

Maximum memory used throughout the entire STARTUP-calculation: 41.2 MB
-------------------------------------------------------------------------------
                                 ORCA GUESS
                   Start orbitals & Density for SCF / CASSCF
-------------------------------------------------------------------------------

------------
SCF SETTINGS
------------
Hamiltonian:
 Density Functional     Method          .... DFT(GTOs)
  Functional kind                       .... Exchange
  Functional name                       .... Re-regularized SCAN exchange by Furness et al
  Functional family                     .... MGGA
  Functional refs                              
    [ 0] J. W. Furness, A. D. Kaplan, J. Ning, J. P. Perdew, and J. Sun.,  J. Phys. Chem. Lett. 11, 8208-8215 (2020), doi: 10.1021/acs.jpclett.0c02405
    [ 1] J. W. Furness, A. D. Kaplan, J. Ning, J. P. Perdew, and J. Sun.,  J. Phys. Chem. Lett. 11, 9248-9248 (2020), doi: 10.1021/acs.jpclett.0c03077
  Functional external parameters        .... 6
    Parameter  0 _c1        =  6.670000e-01 : c1 parameter        
    Parameter  1 _c2        =  8.000000e-01 : c2 parameter        
    Parameter  2 _d         =  1.240000e+00 : d parameter         
    Parameter  3 _k1        =  6.500000e-02 : k1 parameter        
    Parameter  4 _eta       =  1.000000e-03 : eta parameter       
    Parameter  5 _dp2       =  3.610000e-01 : dp2 parameter       
  Functional kind                       .... Correlation
  Functional name                       .... Re-regularized SCAN correlation by Furness et al
  Functional family                     .... MGGA
  Functional refs                              
    [ 0] J. W. Furness, A. D. Kaplan, J. Ning, J. P. Perdew, and J. Sun.,  J. Phys. Chem. Lett. 11, 8208-8215 (2020), doi: 10.1021/acs.jpclett.0c02405
    [ 1] J. W. Furness, A. D. Kaplan, J. Ning, J. P. Perdew, and J. Sun.,  J. Phys. Chem. Lett. 11, 9248-9248 (2020), doi: 10.1021/acs.jpclett.0c03077
  Functional external parameters        .... 1
    Parameter  0 _eta       =  1.000000e-03 : Regularization parameter
 Gradients option       PostSCFGGA      .... off
 RI-approximation to the Coulomb term is turned on
   Number of AuxJ basis functions       .... 589


General Settings:
 Integral files         IntName         .... sp
 Hartree-Fock type      HFTyp           .... RHF
 Total Charge           Charge          ....    0
 Multiplicity           Mult            ....    1
 Number of Electrons    NEL             ....   70
 Basis Dimension        Dim             ....  240
 Nuclear Repulsion      ENuc            ....    486.7148172357 Eh

Convergence Acceleration:
 AO-DIIS                CNVDIIS         .... on
   Start iteration      DIISMaxIt       ....    12
   Startup error        DIISStart       ....  0.200000
   # of expansion vecs  DIISMaxEq       ....     5
   Bias factor          DIISBfac        ....   1.050
   Max. coefficient     DIISMaxC        ....  10.000
 MO-DIIS                CNVKDIIS        .... off
 Trust-Rad. Augm. Hess. CNVTRAH         .... auto
   Auto Start mean grad. ratio tolernc. ....  1.125000
   Auto Start start iteration           ....     1
   Auto Start num. interpolation iter.  ....    10
   Max. Number of Micro iterations      ....    24
   Max. Number of Macro iterations      .... Maxiter - #DIIS iter
   Number of Davidson start vectors     ....     2
   Converg. threshold    (grad. norm)   ....   3.330e-04
   Grad. Scal. Fac. for Micro threshold ....   0.100
   Minimum threshold for Micro iter.    ....   1.000e-02
   NR start threshold (gradient norm)   ....   1.000e-04
   Initial trust radius                 ....   0.400
   Minimum AH scaling param. (alpha)    ....   1.000
   Maximum AH scaling param. (alpha)    .... 1000.000
   Quad. conv. algorithm                .... NR
   White noise on init. David. guess    .... on
   Maximum white noise                  ....   0.010
   Pseudo random numbers                .... off
   Inactive MOs                         .... canonical
   Orbital update algorithm             .... Taylor
   Preconditioner                       .... Diag
   Full preconditioner red. dimension   ....   250
   COSX micro iterations for RIJONX calc.... off
 SOSCF                  CNVSOSCF        .... on
   Start iteration      SOSCFMaxIt      ....   150
   Startup grad/error   SOSCFStart      ....  0.003300
   Hessian update       SOSCFHessUp     .... L-BFGS
 Level Shifting         CNVShift        .... on
   Level shift para.    LevelShift      ....    0.2500
   Turn off err/grad.   ShiftErr        ....    0.0010
 Zerner damping         CNVZerner       .... off
 Static damping         CNVDamp         .... on
   Fraction old density DampFac         ....    0.7000
   Max. Damping (<1)    DampMax         ....    0.9800
   Min. Damping (>=0)   DampMin         ....    0.0000
   Turn off err/grad.   DampErr         ....    0.1000

SCF Procedure:
 Maximum # iterations   MaxIter         ....   125
 SCF integral mode      SCFMode         .... Direct
   Integral package                     .... SHARK and LIBINT hybrid scheme
 Reset frequency        DirectResetFreq ....    20
 Integral Threshold     Thresh          ....  1.000e-10 Eh
 Primitive CutOff       TCut            ....  1.000e-11 Eh

Convergence Tolerance:
 Convergence Check Mode ConvCheckMode   .... Total+1el-Energy
 Convergence forced     ConvForced      .... 0
 Energy Change          TolE            ....  1.000e-06 Eh
 1-El. energy change                    ....  1.000e-03 Eh
 Orbital Gradient       TolG            ....  3.330e-04
 Orbital Rotation angle TolX            ....  3.330e-04
 DIIS Error             TolErr          ....  1.000e-06

---------------------
INITIAL GUESS: MOREAD
---------------------
Guess MOs are being read from file: sp.ges
Input Geometry matches current geometry (good)
Atom 0: N(Shells)= 9 and 6 - projection required
Input basis set needs projection
NBasis(read)= 158
NBasis(calc)= 240
Basis set overlap was calculated
Using GuessMode=FMatrix for the initial guess
C*T matrix was formed
Effective Fockian was calculated
Effective Fockian was diagonalized
Initial density was built
                      ------------------
                      INITIAL GUESS DONE (   0.0 sec)
                      ------------------
             **** ENERGY FILE WAS UPDATED (sp.en.tmp) ****
Finished Guess after   0.1 sec
Maximum memory used throughout the entire GUESS-calculation: 18.6 MB

-------------------------------------------------------------------------------------------
                                      ORCA LEAN-SCF
                              memory conserving SCF solver
-------------------------------------------------------------------------------------------

----------------------------------------D-I-I-S--------------------------------------------
Iteration    Energy (Eh)           Delta-E    RMSDP     MaxDP     DIISErr   Damp  Time(sec)
-------------------------------------------------------------------------------------------
               ***  Starting incremental Fock matrix formation  ***
    1    -402.8402151550146755     0.00e+00  1.86e-02  7.16e-01  4.23e-01  0.700   1.6
    2    -402.8951160017040820    -5.49e-02  1.41e-02  5.49e-01  2.98e-01  0.700   1.4
    3    -402.9338653236736718    -3.87e-02  1.01e-02  3.92e-01  2.09e-01  0.700   1.4
                               ***Turning on AO-DIIS***
    4    -402.9610559585121337    -2.72e-02  7.12e-03  2.76e-01  1.46e-01  0.700   1.4
    5    -402.9801177624545971    -1.91e-02  4.99e-03  1.93e-01  1.02e-01  0.700   1.4
    6    -402.9934837657506250    -1.34e-02  3.49e-03  1.35e-01  7.14e-02  0.700   1.4
    7    -403.0028505859530696    -9.37e-03  8.14e-03  3.16e-01  5.00e-02  0.000   1.3
                              *** Initializing SOSCF ***
---------------------------------------S-O-S-C-F--------------------------------------
Iteration    Energy (Eh)           Delta-E    RMSDP     MaxDP     MaxGrad    Time(sec)
--------------------------------------------------------------------------------------
    8    -403.0247372283818095    -2.19e-02  1.90e-05  5.03e-04  4.74e-04     1.4
               *** Restarting incremental Fock matrix formation ***
    9    -403.0247372276105580     7.71e-10  2.89e-05  8.27e-04  1.36e-04     1.6
   10    -403.0247336684085440     3.56e-06  1.77e-05  5.29e-04  3.97e-04     1.2
   11    -403.0247380323702373    -4.36e-06  9.52e-06  3.49e-04  5.88e-05     1.2
                  *** Gradient check signals convergence ***

               *****************************************************
               *                     SUCCESS                       *
               *           SCF CONVERGED AFTER  11 CYCLES          *
               *****************************************************

             **** ENERGY FILE WAS UPDATED (sp.en.tmp) ****

----------------
TOTAL SCF ENERGY
----------------

Total Energy       :       -403.02473803237024 Eh          -10966.86067 eV

Components:
Nuclear Repulsion  :        486.71481723567285 Eh           13244.18350 eV
Electronic Energy  :       -889.73955526804309 Eh          -24211.04416 eV
One Electron Energy:      -1508.20554836032443 Eh          -41040.35942 eV
Two Electron Energy:        618.46599309228134 Eh           16829.31526 eV

Virial components:
Potential Energy   :       -804.47998395536956 Eh          -21891.01328 eV
Kinetic Energy     :        401.45524592299932 Eh           10924.15261 eV
Virial Ratio       :          2.00390950703798

DFT components:
N(Alpha)           :       34.999987929635 electrons
N(Beta)            :       34.999987929635 electrons
N(Total)           :       69.999975859270 electrons
E(X)               :      -56.793444069038 Eh       
E(C)               :       -2.269949012554 Eh       
E(XC)              :      -59.063393081591 Eh       

---------------
SCF CONVERGENCE
---------------

  Last Energy change         ...    4.3640e-06  Tolerance :   1.0000e-06
  Last MAX-Density change    ...    3.4939e-04  Tolerance :   1.0000e-05
  Last RMS-Density change    ...    9.5242e-06  Tolerance :   1.0000e-06
  Last DIIS Error            ...    4.7412e-04  Tolerance :   1.0000e-06
  Last Orbital Gradient      ...    5.8837e-05  Tolerance :   3.3300e-04
  Last Orbital Rotation      ...    3.2416e-04  Tolerance :   3.3300e-04


----------------
ORBITAL ENERGIES
----------------

  NO   OCC          E(Eh)            E(eV) 
   0   2.0000     -14.203434      -386.4951 
   1   2.0000     -10.059689      -273.7381 
   2   2.0000     -10.055630      -273.6276 
   3   2.0000     -10.029457      -272.9154 
   4   2.0000     -10.024816      -272.7891 
   5   2.0000     -10.024647      -272.7845 
   6   2.0000     -10.024510      -272.7808 
   7   2.0000     -10.024143      -272.7708 
   8   2.0000     -10.023111      -272.7427 
   9   2.0000     -10.018838      -272.6264 
  10   2.0000      -0.949972       -25.8501 
  11   2.0000      -0.806808       -21.9544 
  12   2.0000      -0.764022       -20.7901 
  13   2.0000      -0.703170       -19.1342 
  14   2.0000      -0.694485       -18.8979 
  15   2.0000      -0.658703       -17.9242 
  16   2.0000      -0.590008       -16.0549 
  17   2.0000      -0.558509       -15.1978 
  18   2.0000      -0.526204       -14.3188 
  19   2.0000      -0.505467       -13.7545 
  20   2.0000      -0.451184       -12.2773 
  21   2.0000      -0.437770       -11.9123 
  22   2.0000      -0.407294       -11.0830 
  23   2.0000      -0.403525       -10.9805 
  24   2.0000      -0.396425       -10.7873 
  25   2.0000      -0.377997       -10.2858 
  26   2.0000      -0.369702       -10.0601 
  27   2.0000      -0.358561        -9.7570 
  28   2.0000      -0.341528        -9.2935 
  29   2.0000      -0.315835        -8.5943 
  30   2.0000      -0.309490        -8.4217 
  31   2.0000      -0.298343        -8.1183 
  32   2.0000      -0.250534        -6.8174 
  33   2.0000      -0.203577        -5.5396 
  34   2.0000      -0.180374        -4.9082 
  35   0.0000      -0.034038        -0.9262 
  36   0.0000       0.003063         0.0834 
  37   0.0000       0.039133         1.0649 
  38   0.0000       0.071765         1.9528 
  39   0.0000       0.087645         2.3849 
  40   0.0000       0.106260         2.8915 
  41   0.0000       0.109398         2.9769 
  42   0.0000       0.125670         3.4196 
  43   0.0000       0.140511         3.8235 
  44   0.0000       0.148513         4.0413 
  45   0.0000       0.149193         4.0598 
*Only the first 10 virtual orbitals were printed.

                    ********************************
                    * MULLIKEN POPULATION ANALYSIS *
                    ********************************

-----------------------
MULLIKEN ATOMIC CHARGES
-----------------------
   0 C :   -0.601403
   1 C :    0.087393
   2 C :   -0.189580
   3 N :   -0.044549
   4 C :    0.100510
   5 C :    0.230398
   6 C :   -0.309784
   7 C :   -0.160622
   8 C :   -0.150681
   9 C :   -0.378334
  10 H :    0.156767
  11 H :    0.158147
  12 H :    0.150940
  13 H :    0.136058
  14 H :    0.244996
  15 H :    0.141090
  16 H :    0.143005
  17 H :    0.145397
  18 H :    0.140253
Sum of atomic charges:   -0.0000000

--------------------------------
MULLIKEN REDUCED ORBITAL CHARGES
--------------------------------
  0 C s       :     3.419336  s :     3.419336
      pz      :     1.089055  p :     3.153948
      px      :     1.039976
      py      :     1.024918
      dz2     :     0.004924  d :     0.028118
      dxz     :     0.008498
      dyz     :     0.002233
      dx2y2   :     0.004761
      dxy     :     0.007702

  1 C s       :     3.148104  s :     3.148104
      pz      :     1.067483  p :     2.716847
      px      :     0.833001
      py      :     0.816363
      dz2     :     0.003752  d :     0.047657
      dxz     :     0.006597
      dyz     :     0.007867
      dx2y2   :     0.017613
      dxy     :     0.011827

  2 C s       :     3.245781  s :     3.245781
      pz      :     1.056018  p :     2.893874
      px      :     0.916125
      py      :     0.921731
      dz2     :     0.004194  d :     0.049925
      dxz     :     0.005989
      dyz     :     0.009935
      dx2y2   :     0.011600
      dxy     :     0.018207

  3 N s       :     3.285688  s :     3.285688
      pz      :     1.598613  p :     3.644857
      px      :     0.960513
      py      :     1.085731
      dz2     :     0.004595  d :     0.114004
      dxz     :     0.023265
      dyz     :     0.019985
      dx2y2   :     0.043553
      dxy     :     0.022607

  4 C s       :     3.173829  s :     3.173829
      pz      :     0.980560  p :     2.663286
      px      :     0.878564
      py      :     0.804163
      dz2     :     0.004738  d :     0.062375
      dxz     :     0.011499
      dyz     :     0.008983
      dx2y2   :     0.015297
      dxy     :     0.021857

  5 C s       :     3.111749  s :     3.111749
      pz      :     1.026713  p :     2.609149
      px      :     0.751436
      py      :     0.831000
      dz2     :     0.003971  d :     0.048704
      dxz     :     0.008462
      dyz     :     0.006013
      dx2y2   :     0.015655
      dxy     :     0.014603

  6 C s       :     3.251911  s :     3.251911
      pz      :     1.012396  p :     3.019533
      px      :     0.971843
      py      :     1.035294
      dz2     :     0.003329  d :     0.038340
      dxz     :     0.007081
      dyz     :     0.002862
      dx2y2   :     0.011898
      dxy     :     0.013171

  7 C s       :     3.166810  s :     3.166810
      pz      :     1.021793  p :     2.956190
      px      :     0.957072
      py      :     0.977325
      dz2     :     0.003300  d :     0.037623
      dxz     :     0.005448
      dyz     :     0.004135
      dx2y2   :     0.011400
      dxy     :     0.013341

  8 C s       :     3.176478  s :     3.176478
      pz      :     1.016011  p :     2.936399
      px      :     1.015005
      py      :     0.905382
      dz2     :     0.003315  d :     0.037804
      dxz     :     0.002358
      dyz     :     0.007574
      dx2y2   :     0.012997
      dxy     :     0.011561

  9 C s       :     3.258523  s :     3.258523
      pz      :     1.050356  p :     3.081815
      px      :     0.981832
      py      :     1.049626
      dz2     :     0.003414  d :     0.037997
      dxz     :     0.006989
      dyz     :     0.003152
      dx2y2   :     0.013882
      dxy     :     0.010559

 10 H s       :     0.824918  s :     0.824918
      pz      :     0.008292  p :     0.018315
      px      :     0.006372
      py      :     0.003651

 11 H s       :     0.823550  s :     0.823550
      pz      :     0.008641  p :     0.018303
      px      :     0.006023
      py      :     0.003639

 12 H s       :     0.830703  s :     0.830703
      pz      :     0.003813  p :     0.018357
      px      :     0.005066
      py      :     0.009478

 13 H s       :     0.843134  s :     0.843134
      pz      :     0.005158  p :     0.020808
      px      :     0.010949
      py      :     0.004702

 14 H s       :     0.722334  s :     0.722334
      pz      :     0.009477  p :     0.032670
      px      :     0.003983
      py      :     0.019210

 15 H s       :     0.839129  s :     0.839129
      pz      :     0.004369  p :     0.019781
      px      :     0.004250
      py      :     0.011162

 16 H s       :     0.837402  s :     0.837402
      pz      :     0.004465  p :     0.019593
      px      :     0.006738
      py      :     0.008390

 17 H s       :     0.834985  s :     0.834985
      pz      :     0.004438  p :     0.019618
      px      :     0.011879
      py      :     0.003301

 18 H s       :     0.839980  s :     0.839980
      pz      :     0.004544  p :     0.019767
      px      :     0.004449
      py      :     0.010774


------------------------
MULLIKEN OVERLAP CHARGES
------------------------
B(  0-C ,  1-C ) :   0.3369 B(  0-C ,  2-C ) :  -0.2309 B(  0-C ,  4-C ) :   0.0759 
B(  0-C ,  5-C ) :  -0.0661 B(  0-C ,  6-C ) :  -0.0750 B(  0-C , 10-H ) :   0.8536 
B(  0-C , 11-H ) :   0.8517 B(  0-C , 12-H ) :   0.8337 B(  1-C ,  2-C ) :   0.5040 
B(  1-C ,  3-N ) :  -0.2961 B(  1-C ,  5-C ) :   0.5791 B(  1-C ,  6-C ) :  -0.5592 
B(  1-C ,  7-C ) :   0.0853 B(  1-C ,  9-C ) :   0.1083 B(  1-C , 10-H ) :  -0.1057 
B(  1-C , 11-H ) :  -0.1024 B(  1-C , 12-H ) :  -0.1138 B(  2-C ,  3-N ) :   0.8518 
B(  2-C ,  4-C ) :  -0.6078 B(  2-C ,  5-C ) :   0.1260 B(  2-C ,  6-C ) :   0.1508 
B(  2-C , 13-H ) :   0.7579 B(  2-C , 14-H ) :  -0.1072 B(  3-N ,  4-C ) :   0.8077 
B(  3-N ,  5-C ) :  -0.1361 B(  3-N ,  9-C ) :  -0.0745 B(  3-N , 13-H ) :  -0.0616 
B(  3-N , 14-H ) :   0.7183 B(  4-C ,  5-C ) :   0.9718 B(  4-C ,  7-C ) :  -0.1110 
B(  4-C ,  8-C ) :  -0.1107 B(  4-C ,  9-C ) :   0.3871 B(  4-C , 14-H ) :  -0.0828 
B(  5-C ,  6-C ) :   0.5309 B(  5-C ,  7-C ) :  -0.0821 B(  5-C ,  9-C ) :  -0.3554 
B(  6-C ,  7-C ) :   0.6798 B(  6-C ,  8-C ) :  -0.1015 B(  6-C ,  9-C ) :  -0.2266 
B(  6-C , 15-H ) :   0.7607 B(  7-C ,  8-C ) :   0.9621 B(  7-C , 16-H ) :   0.7856 
B(  7-C , 17-H ) :  -0.0574 B(  8-C ,  9-C ) :   0.8105 B(  8-C , 16-H ) :  -0.0551 
B(  8-C , 17-H ) :   0.8066 B(  9-C , 17-H ) :  -0.0704 B(  9-C , 18-H ) :   0.7242 
B( 10-H , 11-H ) :  -0.0533 


                     *******************************
                     * LOEWDIN POPULATION ANALYSIS *
                     *******************************

----------------------
LOEWDIN ATOMIC CHARGES
----------------------
   0 C :   -0.381877
   1 C :   -0.089840
   2 C :    0.064596
   3 N :   -0.650672
   4 C :    0.143518
   5 C :   -0.030596
   6 C :   -0.154003
   7 C :   -0.186838
   8 C :   -0.177286
   9 C :   -0.149978
  10 H :    0.161691
  11 H :    0.161708
  12 H :    0.160943
  13 H :    0.184593
  14 H :    0.277051
  15 H :    0.167301
  16 H :    0.164973
  17 H :    0.165872
  18 H :    0.168843

-------------------------------
LOEWDIN REDUCED ORBITAL CHARGES
-------------------------------
  0 C s       :     2.947963  s :     2.947963
      pz      :     1.154881  p :     3.368838
      px      :     1.110467
      py      :     1.103490
      dz2     :     0.011893  d :     0.065076
      dxz     :     0.021173
      dyz     :     0.003724
      dx2y2   :     0.010546
      dxy     :     0.017740

  1 C s       :     2.846766  s :     2.846766
      pz      :     1.041116  p :     3.146273
      px      :     1.049893
      py      :     1.055265
      dz2     :     0.006525  d :     0.096800
      dxz     :     0.011069
      dyz     :     0.013054
      dx2y2   :     0.039077
      dxy     :     0.027075

  2 C s       :     2.825651  s :     2.825651
      pz      :     0.991778  p :     2.997993
      px      :     0.993159
      py      :     1.013055
      dz2     :     0.008219  d :     0.111760
      dxz     :     0.010230
      dyz     :     0.019476
      dx2y2   :     0.031640
      dxy     :     0.042196

  3 N s       :     3.086040  s :     3.086040
      pz      :     1.541861  p :     3.982809
      px      :     1.232077
      py      :     1.208870
      dz2     :     0.054329  d :     0.581823
      dxz     :     0.133198
      dyz     :     0.056269
      dx2y2   :     0.194264
      dxy     :     0.143763

  4 C s       :     2.766809  s :     2.766809
      pz      :     0.943964  p :     2.955114
      px      :     1.026515
      py      :     0.984636
      dz2     :     0.009648  d :     0.134558
      dxz     :     0.021032
      dyz     :     0.016777
      dx2y2   :     0.037830
      dxy     :     0.049271

  5 C s       :     2.829596  s :     2.829596
      pz      :     1.010263  p :     3.100682
      px      :     1.048215
      py      :     1.042204
      dz2     :     0.006994  d :     0.100318
      dxz     :     0.014898
      dyz     :     0.010154
      dx2y2   :     0.035447
      dxy     :     0.032825

  6 C s       :     2.893265  s :     2.893265
      pz      :     0.995954  p :     3.177828
      px      :     1.090468
      py      :     1.091406
      dz2     :     0.005593  d :     0.082910
      dxz     :     0.012895
      dyz     :     0.004625
      dx2y2   :     0.029214
      dxy     :     0.030583

  7 C s       :     2.900296  s :     2.900296
      pz      :     1.012527  p :     3.204348
      px      :     1.097649
      py      :     1.094173
      dz2     :     0.005562  d :     0.082194
      dxz     :     0.009747
      dyz     :     0.007156
      dx2y2   :     0.027067
      dxy     :     0.032662

  8 C s       :     2.901063  s :     2.901063
      pz      :     1.002514  p :     3.193924
      px      :     1.097641
      py      :     1.093769
      dz2     :     0.005543  d :     0.082299
      dxz     :     0.003560
      dyz     :     0.014112
      dx2y2   :     0.031713
      dxy     :     0.027371

  9 C s       :     2.889187  s :     2.889187
      pz      :     1.025201  p :     3.179642
      px      :     1.050007
      py      :     1.104434
      dz2     :     0.005586  d :     0.081148
      dxz     :     0.012480
      dyz     :     0.004939
      dx2y2   :     0.031413
      dxy     :     0.026729

 10 H s       :     0.795021  s :     0.795021
      pz      :     0.020458  p :     0.043289
      px      :     0.014841
      py      :     0.007990

 11 H s       :     0.794991  s :     0.794991
      pz      :     0.021419  p :     0.043302
      px      :     0.013945
      py      :     0.007938

 12 H s       :     0.795733  s :     0.795733
      pz      :     0.008253  p :     0.043324
      px      :     0.012173
      py      :     0.022898

 13 H s       :     0.771139  s :     0.771139
      pz      :     0.010999  p :     0.044269
      px      :     0.022159
      py      :     0.011110

 14 H s       :     0.637621  s :     0.637621
      pz      :     0.022610  p :     0.085328
      px      :     0.011610
      py      :     0.051108

 15 H s       :     0.787813  s :     0.787813
      pz      :     0.009470  p :     0.044885
      px      :     0.009745
      py      :     0.025670

 16 H s       :     0.790468  s :     0.790468
      pz      :     0.009677  p :     0.044559
      px      :     0.015434
      py      :     0.019448

 17 H s       :     0.789510  s :     0.789510
      pz      :     0.009645  p :     0.044617
      px      :     0.027657
      py      :     0.007315

 18 H s       :     0.786193  s :     0.786193
      pz      :     0.009938  p :     0.044965
      px      :     0.009988
      py      :     0.025039


---------------------------------
LOEWDIN BOND ORDERS (THRESH 0.050000)
---------------------------------
B(  0-C ,  1-C ) :   1.1119 B(  0-C ,  2-C ) :   0.0838 B(  0-C ,  5-C ) :   0.0704 
B(  0-C , 10-H ) :   0.9157 B(  0-C , 11-H ) :   0.9153 B(  0-C , 12-H ) :   0.9166 
B(  1-C ,  2-C ) :   1.4684 B(  1-C ,  3-N ) :   0.3232 B(  1-C ,  4-C ) :   0.0977 
B(  1-C ,  5-C ) :   1.1967 B(  1-C ,  6-C ) :   0.0761 B(  1-C , 13-H ) :   0.0531 
B(  2-C ,  3-N ) :   1.5353 B(  2-C ,  4-C ) :   0.1254 B(  2-C ,  5-C ) :   0.1016 
B(  2-C , 13-H ) :   0.8247 B(  3-N ,  4-C ) :   1.4938 B(  3-N ,  5-C ) :   0.2561 
B(  3-N ,  9-C ) :   0.1811 B(  3-N , 13-H ) :   0.0930 B(  3-N , 14-H ) :   0.8705 
B(  4-C ,  5-C ) :   1.1314 B(  4-C ,  6-C ) :   0.0803 B(  4-C ,  7-C ) :   0.0851 
B(  4-C ,  8-C ) :   0.0983 B(  4-C ,  9-C ) :   1.3016 B(  4-C , 18-H ) :   0.0569 
B(  5-C ,  6-C ) :   1.3598 B(  5-C ,  7-C ) :   0.0952 B(  5-C ,  8-C ) :   0.0924 
B(  5-C ,  9-C ) :   0.0747 B(  5-C , 15-H ) :   0.0540 B(  6-C ,  7-C ) :   1.5656 
B(  6-C ,  8-C ) :   0.0859 B(  6-C ,  9-C ) :   0.1262 B(  6-C , 15-H ) :   0.8679 
B(  6-C , 16-H ) :   0.0558 B(  7-C ,  8-C ) :   1.4365 B(  7-C ,  9-C ) :   0.0868 
B(  7-C , 15-H ) :   0.0549 B(  7-C , 16-H ) :   0.8751 B(  7-C , 17-H ) :   0.0527 
B(  8-C ,  9-C ) :   1.5513 B(  8-C , 16-H ) :   0.0529 B(  8-C , 17-H ) :   0.8747 
B(  8-C , 18-H ) :   0.0543 B(  9-C , 17-H ) :   0.0558 B(  9-C , 18-H ) :   0.8684 


------------------------------------------
LOEWDIN REDUCED ORBITAL POPULATIONS PER MO
-------------------------------------------
THRESHOLD FOR PRINTING IS 0.1%%
                      0         1         2         3         4         5   
                 -14.20343 -10.05969 -10.05563 -10.02946 -10.02482 -10.02465
                   2.00000   2.00000   2.00000   2.00000   2.00000   2.00000
                  --------  --------  --------  --------  --------  --------
 0 C  s               0.0       0.0       0.0       0.0       7.5      10.0
 1 C  s               0.0       0.0       0.0       0.0      70.2      11.0
 1 C  py              0.0       0.0       0.1       0.0       0.0       0.0
 2 C  s               0.0       0.0      99.3       0.0       0.0       0.0
 2 C  py              0.0       0.0       0.0       0.0       0.1       0.0
 3 N  s              99.8       0.0       0.0       0.0       0.0       0.0
 3 N  dxy             0.0       0.2       0.2       0.0       0.0       0.0
 4 C  s               0.0      99.2       0.0       0.0       0.0       0.0
 4 C  px              0.0       0.0       0.0       0.1       0.0       0.0
 5 C  s               0.0       0.0       0.0       0.0      13.3      11.9
 6 C  s               0.0       0.0       0.0       0.0       8.6      66.5
 7 C  s               0.0       0.0       0.0       0.0       0.0       0.1
 8 C  s               0.0       0.0       0.0       0.2       0.0       0.0
 9 C  s               0.0       0.0       0.0      99.4       0.0       0.0
 9 C  px              0.0       0.1       0.0       0.0       0.0       0.0

                      6         7         8         9        10        11   
                 -10.02451 -10.02414 -10.02311 -10.01884  -0.94997  -0.80681
                   2.00000   2.00000   2.00000   2.00000   2.00000   2.00000
                  --------  --------  --------  --------  --------  --------
 0 C  s              82.0       0.3       0.0       0.0       0.2       0.3
 0 C  px              0.0       0.0       0.0       0.0       0.1       0.1
 0 C  py              0.0       0.0       0.0       0.0       0.2       0.0
 1 C  s              12.6       5.8       0.0       0.0       3.3       1.1
 1 C  px              0.0       0.1       0.0       0.0       0.6       1.1
 1 C  py              0.0       0.0       0.0       0.0       2.2       0.5
 2 C  s               0.0       0.0       0.0       0.0      10.4       0.6
 2 C  px              0.0       0.0       0.0       0.0       6.4       0.2
 2 C  py              0.0       0.0       0.0       0.0       0.4       1.4
 2 C  dz2             0.0       0.0       0.0       0.0       0.2       0.0
 2 C  dxy             0.0       0.0       0.0       0.0       0.2       0.1
 3 N  s               0.0       0.0       0.0       0.0      38.0       4.1
 3 N  px              0.0       0.0       0.0       0.0       0.0       1.1
 3 N  py              0.0       0.0       0.0       0.0       1.8       0.6
 3 N  dz2             0.0       0.0       0.0       0.0       0.8       0.1
 3 N  dxy             0.0       0.0       0.0       0.0       0.0       0.3
 4 C  s               0.0       0.0       0.0       0.0      11.6       4.4
 4 C  px              0.0       0.0       0.0       0.0       5.3       3.7
 4 C  py              0.0       0.1       0.0       0.0       1.2       3.8
 4 C  dz2             0.0       0.0       0.0       0.0       0.3       0.0
 4 C  dxy             0.0       0.0       0.0       0.0       0.2       0.1
 5 C  s               0.2      74.1       0.0       0.0       3.5       9.8
 5 C  px              0.0       0.0       0.0       0.0       0.2       2.3
 5 C  py              0.0       0.0       0.0       0.0       2.6       0.2
 5 C  dz2             0.0       0.0       0.0       0.0       0.1       0.1
 6 C  s               5.0      19.4       0.0       0.2       0.4      12.2
 6 C  px              0.0       0.0       0.0       0.1       0.1       0.5
 6 C  py              0.0       0.1       0.0       0.0       0.3       2.1
 6 C  dz2             0.0       0.0       0.0       0.0       0.0       0.1
 7 C  s               0.0       0.0       0.2      99.2       0.1      12.6
 7 C  px              0.0       0.0       0.0       0.0       0.1       1.1
 7 C  py              0.0       0.0       0.1       0.0       0.1       1.5
 7 C  dz2             0.0       0.0       0.0       0.0       0.0       0.1
 8 C  s               0.0       0.0      99.2       0.3       0.2      12.2
 8 C  px              0.0       0.0       0.0       0.0       0.2       2.4
 8 C  py              0.0       0.0       0.0       0.1       0.0       0.1
 8 C  dz2             0.0       0.0       0.0       0.0       0.0       0.1
 9 C  s               0.0       0.0       0.2       0.0       1.2       9.8
 9 C  px              0.0       0.0       0.1       0.0       1.3       0.0
 9 C  py              0.0       0.0       0.1       0.0       0.0       2.6
 9 C  dz2             0.0       0.0       0.0       0.0       0.0       0.1
13 H  s               0.0       0.0       0.0       0.0       0.7       0.1
14 H  s               0.0       0.0       0.0       0.0       4.4       1.1
14 H  py              0.0       0.0       0.0       0.0       0.7       0.2
15 H  s               0.0       0.0       0.0       0.0       0.0       1.1
16 H  s               0.0       0.0       0.0       0.0       0.0       1.2
17 H  s               0.0       0.0       0.0       0.0       0.0       1.2
18 H  s               0.0       0.0       0.0       0.0       0.1       0.9

                     12        13        14        15        16        17   
                  -0.76402  -0.70317  -0.69448  -0.65870  -0.59001  -0.55851
                   2.00000   2.00000   2.00000   2.00000   2.00000   2.00000
                  --------  --------  --------  --------  --------  --------
 0 C  s              10.1       2.1       9.3      20.6       0.3       0.3
 0 C  px              1.0       0.0       0.0       0.1       0.0       1.1
 0 C  py              1.2       0.0       0.2       0.6       0.1       0.0
 1 C  s              21.1       1.1       1.9       0.4       0.1       0.5
 1 C  px              0.1       0.1       8.2       1.9       0.3       6.4
 1 C  py              0.2       0.3       0.0      13.3       0.2       3.5
 1 C  dz2             0.2       0.0       0.0       0.0       0.0       0.0
 1 C  dx2y2           0.0       0.0       0.2       0.0       0.0       0.2
 1 C  dxy             0.0       0.0       0.0       0.1       0.1       0.0
 2 C  s               4.7       0.8       5.0       7.9       4.6       3.6
 2 C  px              0.2       0.1       0.6       0.2       2.3       1.7
 2 C  py              6.6       2.3       0.0       0.6       2.4       0.3
 2 C  dx2y2           0.1       0.0       0.0       0.0       0.0       0.0
 2 C  dxy             0.1       0.1       0.0       0.1       0.0       0.0
 3 N  s               4.3       1.9       0.4       2.7       0.1       1.1
 3 N  px              2.6       4.3       4.7       6.5       7.9       0.2
 3 N  py              2.2       1.5       1.2       5.8       6.5       8.0
 3 N  dz2             0.1       0.1       0.0       0.1       0.1       0.1
 3 N  dx2y2           0.3       0.0       0.3       0.0       0.7       2.0
 3 N  dxy             0.7       0.6       1.1       0.7       0.3       0.0
 4 C  s               1.5       7.4       4.1       0.5       1.1       3.4
 4 C  px              2.4       3.3       1.4       0.0       8.7       1.7
 4 C  py              4.4       0.1       1.8       2.3       0.2       1.2
 4 C  dx2y2           0.0       0.1       0.1       0.1       0.0       0.2
 4 C  dxy             0.1       0.1       0.0       0.1       0.1       0.0
 5 C  s               6.4       0.0       8.9       0.0       0.4       6.2
 5 C  px              5.2       1.1       1.5       0.9       1.6       2.1
 5 C  py              0.3       5.7       0.1       2.0       6.1       2.0
 5 C  dxy             0.0       0.2       0.0       0.0       0.0       0.0
 6 C  s               0.7      13.8       2.6       2.4       4.9       0.4
 6 C  px              1.7       2.5       2.7       0.1       3.7       8.4
 6 C  py              0.1       0.3       0.7       0.1       0.1       1.6
 7 C  s               0.6      13.9       3.1       0.0       5.8       3.0
 7 C  px              0.4       1.8       3.0       1.2       5.9       1.7
 7 C  py              0.7       0.9       1.9       0.8       0.3       4.6
 7 C  dx2y2           0.0       0.1       0.1       0.0       0.1       0.1
 8 C  s               3.7       0.0      13.2       2.3       1.9       7.0
 8 C  px              0.3       0.2       0.1       0.1       1.4       2.4
 8 C  py              0.3       8.8       0.0       0.1       8.5       0.9
 8 C  dxy             0.0       0.2       0.0       0.0       0.2       0.0
 9 C  s               5.5      11.9       2.7       0.2       6.5       0.4
 9 C  px              0.0       1.1       4.8       1.5       0.0       8.0
 9 C  py              0.2       0.3       0.8       0.6       0.8       1.4
 9 C  dxy             0.0       0.0       0.1       0.0       0.0       0.1
10 H  s               1.3       0.4       1.9       4.7       0.1       0.3
10 H  pz              0.1       0.0       0.1       0.2       0.0       0.0
10 H  px              0.0       0.0       0.1       0.1       0.0       0.0
11 H  s               1.3       0.4       1.8       4.7       0.1       0.3
11 H  pz              0.1       0.0       0.1       0.3       0.0       0.0
11 H  px              0.0       0.0       0.1       0.1       0.0       0.0
12 H  s               1.4       0.3       1.6       5.4       0.1       0.0
12 H  px              0.0       0.0       0.0       0.1       0.0       0.0
12 H  py              0.1       0.0       0.1       0.3       0.0       0.0
13 H  s               0.5       0.3       1.5       1.5       4.0       2.1
13 H  px              0.0       0.0       0.1       0.1       0.2       0.1
14 H  s               2.1       1.1       0.5       3.7       1.8       4.0
14 H  py              0.3       0.1       0.0       0.4       0.1       0.3
15 H  s               0.1       2.4       0.4       0.7       1.9       0.1
15 H  py              0.0       0.2       0.0       0.0       0.1       0.0
16 H  s               0.1       2.4       0.6       0.0       2.7       1.5
16 H  px              0.0       0.1       0.0       0.0       0.0       0.1
16 H  py              0.0       0.1       0.0       0.0       0.2       0.0
17 H  s               0.5       0.0       2.5       0.6       0.9       4.3
17 H  px              0.0       0.0       0.2       0.1       0.1       0.3
18 H  s               0.8       2.2       0.5       0.0       2.6       0.1
18 H  py              0.1       0.2       0.0       0.0       0.2       0.0

                     18        19        20        21        22        23   
                  -0.52620  -0.50547  -0.45118  -0.43777  -0.40729  -0.40352
                   2.00000   2.00000   2.00000   2.00000   2.00000   2.00000
                  --------  --------  --------  --------  --------  --------
 0 C  s               3.2       0.5       0.1       0.0       0.1       0.0
 0 C  pz              0.0       0.0       0.0       0.0       0.0      15.2
 0 C  px              3.5       0.4       0.7       0.2      14.0       0.0
 0 C  py              3.7       2.5       2.0       2.5       0.4       0.0
 0 C  dz2             0.0       0.0       0.0       0.0       0.1       0.0
 0 C  dxy             0.1       0.1       0.0       0.0       0.0       0.0
 1 C  s               8.6       2.0       0.2       1.1       0.4       0.0
 1 C  pz              0.0       0.0       0.0       0.0       0.0      13.0
 1 C  px              0.1       0.4       6.6       2.6       0.1       0.0
 1 C  py              0.1       0.2       1.2       1.6       4.9       0.0
 1 C  dx2y2           0.0       0.0       0.0       0.1       0.1       0.0
 1 C  dxy             0.1       0.1       0.1       0.0       0.0       0.0
 2 C  s               0.5       0.4       1.0       0.7       0.0       0.0
 2 C  pz              0.0       0.0       0.0       0.0       0.0      11.7
 2 C  px              0.3       6.9      12.2       4.7       0.9       0.0
 2 C  py              9.9       0.7       1.4       7.2       1.5       0.0
 2 C  dxz             0.0       0.0       0.0       0.0       0.0       0.2
 2 C  dx2y2           0.3       0.3       0.0       0.1       0.1       0.0
 2 C  dxy             0.1       0.1       0.1       0.1       0.1       0.0
 3 N  s               0.0       0.3       0.0       0.5       0.1       0.0
 3 N  pz              0.0       0.0       0.0       0.0       0.0      21.2
 3 N  px              8.4       0.6      15.0       0.2       0.5       0.0
 3 N  py              2.8      19.7       0.7       0.0       3.8       0.0
 3 N  dz2             0.0       0.4       0.0       0.2       0.1       0.0
 3 N  dyz             0.0       0.0       0.0       0.0       0.0       0.8
 3 N  dx2y2           0.1       0.1       0.6       1.3       1.8       0.0
 3 N  dxy             0.5       0.0       0.2       0.3       0.0       0.0
 4 C  s               0.4       0.6       0.9       1.1       0.2       0.0
 4 C  pz              0.0       0.0       0.0       0.0       0.0      13.4
 4 C  px              0.1       4.3       2.5       0.4       3.5       0.0
 4 C  py              9.5       1.5       2.7       0.1       4.8       0.0
 4 C  dx2y2           0.0       0.2       0.1       0.0       0.6       0.0
 4 C  dxy             0.0       0.1       0.4       0.3       0.2       0.0
 5 C  s               0.6       0.7       0.1       2.4       1.7       0.0
 5 C  pz              0.0       0.0       0.0       0.0       0.0       9.3
 5 C  px              9.2       0.1       4.0       0.2       2.1       0.0
 5 C  py              1.6       1.3       1.4       0.1       5.0       0.0
 5 C  dx2y2           0.2       0.1       0.3       0.1       0.0       0.0
 5 C  dxy             0.1       0.1       0.1       0.1       0.0       0.0
 6 C  s               0.8       3.7       1.8       0.5       0.0       0.0
 6 C  pz              0.0       0.0       0.0       0.0       0.0       1.8
 6 C  px              0.2       0.6       4.3       5.0       3.7       0.0
 6 C  py              5.4       6.2       0.1       0.4       2.4       0.0
 6 C  dx2y2           0.1       0.0       0.2       0.0       0.0       0.0
 6 C  dxy             0.0       0.0       0.0       0.2       0.1       0.0
 7 C  s               1.0       0.9       2.3       0.6       0.1       0.0
 7 C  pz              0.0       0.0       0.0       0.0       0.0       0.7
 7 C  px              0.1       1.0       0.1      15.9       1.0       0.0
 7 C  py              3.7       1.4       3.4       3.7       4.8       0.0
 7 C  dx2y2           0.0       0.0       0.0       0.0       0.2       0.0
 7 C  dxy             0.0       0.0       0.1       0.0       0.0       0.0
 8 C  s               0.2       0.5       2.7       0.3       0.4       0.0
 8 C  pz              0.0       0.0       0.0       0.0       0.0       0.9
 8 C  px              0.5       1.8       5.5      10.9       3.8       0.0
 8 C  py              0.1       6.4       0.0       2.5       3.5       0.0
 8 C  dx2y2           0.0       0.0       0.1       0.0       0.0       0.0
 9 C  s               1.6       1.2       2.5       0.2       0.2       0.0
 9 C  pz              0.0       0.0       0.0       0.0       0.0       2.8
 9 C  px              0.2       8.4       0.0       1.9       8.0       0.0
 9 C  py              6.1       1.6       1.2       7.6       5.6       0.0
 9 C  dxy             0.0       0.1       0.1       0.2       0.0       0.0
10 H  s               2.1       0.3       0.0       0.0       2.7       3.8
10 H  pz              0.1       0.0       0.0       0.0       0.1       0.0
10 H  px              0.0       0.0       0.0       0.0       0.0       0.1
11 H  s               2.1       0.3       0.0       0.0       2.4       4.0
11 H  pz              0.1       0.0       0.0       0.0       0.1       0.0
11 H  px              0.0       0.0       0.0       0.0       0.0       0.1
12 H  s               1.8       1.0       0.9       1.2       1.6       0.0
13 H  s               0.9       1.7       5.1       7.1       0.0       0.0
13 H  px              0.1       0.0       0.0       0.2       0.0       0.0
13 H  py              0.0       0.1       0.2       0.0       0.0       0.0
14 H  s               1.3       7.0       0.2       0.1       2.0       0.0
14 H  pz              0.0       0.0       0.0       0.0       0.0       0.2
14 H  px              0.1       0.0       0.2       0.0       0.0       0.0
14 H  py              0.1       0.3       0.0       0.0       0.0       0.0
15 H  s               1.8       5.5       1.8       0.2       2.3       0.0
15 H  py              0.1       0.3       0.1       0.0       0.1       0.0
16 H  s               1.6       0.2       3.4       7.6       0.8       0.0
16 H  py              0.0       0.0       0.1       0.3       0.0       0.0
17 H  s               0.0       1.4       5.5       2.8       1.2       0.0
17 H  px              0.0       0.1       0.2       0.1       0.0       0.0
18 H  s               3.4       2.9       2.5       1.9       5.2       0.0
18 H  py              0.1       0.2       0.1       0.0       0.1       0.0

                     24        25        26        27        28        29   
                  -0.39642  -0.37800  -0.36970  -0.35856  -0.34153  -0.31583
                   2.00000   2.00000   2.00000   2.00000   2.00000   2.00000
                  --------  --------  --------  --------  --------  --------
 0 C  s               0.0       0.0       0.0       0.3       0.0       0.0
 0 C  pz              0.0       0.0      39.3       0.0       0.0       0.0
 0 C  px              0.5      11.4       0.0       4.2      10.9       2.2
 0 C  py              0.5       3.5       0.0      27.8       6.1       3.2
 0 C  dz2             0.0       0.1       0.0       0.0       0.1       0.0
 0 C  dxz             0.0       0.0       0.4       0.0       0.0       0.0
 0 C  dx2y2           0.0       0.0       0.0       0.0       0.2       0.2
 0 C  dxy             0.0       0.0       0.0       0.5       0.0       0.0
 1 C  s               0.0       0.0       0.0       0.5       0.2       0.1
 1 C  pz              0.0       0.0       1.3       0.0       0.0       0.0
 1 C  px              0.3       1.0       0.0       7.8       2.0       4.5
 1 C  py              1.0       4.4       0.0      14.2       1.4       3.3
 1 C  dxz             0.0       0.0       0.2       0.0       0.0       0.0
 1 C  dyz             0.0       0.0       0.2       0.0       0.0       0.0
 1 C  dx2y2           0.0       0.0       0.0       0.0       0.6       0.5
 1 C  dxy             0.0       0.0       0.0       0.4       0.0       0.1
 2 C  s               0.0       0.2       0.0       0.7       0.2       0.4
 2 C  pz              0.0       0.0       1.6       0.0       0.0       0.0
 2 C  px              0.1      10.4       0.0       0.5       1.9       0.1
 2 C  py              0.2       3.3       0.0       4.4       2.4       5.1
 2 C  dx2y2           0.1       0.2       0.0       0.0       0.2       0.0
 2 C  dxy             0.0       0.3       0.0       0.5       0.1       0.1
 3 N  s               0.2       0.0       0.0       0.4       0.1       0.3
 3 N  pz              0.0       0.0      13.6       0.0       0.0       0.0
 3 N  px              0.2       4.5       0.0       2.4       1.2       0.9
 3 N  py              3.5       0.0       0.0       1.4       0.5       0.1
 3 N  dz2             0.1       0.0       0.0       0.1       0.0       0.1
 3 N  dyz             0.0       0.0       0.2       0.0       0.0       0.0
 3 N  dx2y2           0.9       0.0       0.0       0.2       0.0       0.1
 3 N  dxy             0.2       0.3       0.0       0.9       0.1       0.4
 4 C  s               1.2       0.0       0.0       0.4       0.3       0.2
 4 C  pz              0.0       0.0       9.3       0.0       0.0       0.0
 4 C  px              1.0       6.5       0.0       0.0       2.4       0.1
 4 C  py              4.6       0.1       0.0       1.3       0.5       0.1
 4 C  dxy             0.0       0.1       0.0       0.0       0.1       0.5
 5 C  s               0.2       0.0       0.0       0.0       0.7       0.0
 5 C  pz              0.0       0.0       1.8       0.0       0.0       0.0
 5 C  px              0.7       1.5       0.0       2.4       3.4       7.8
 5 C  py              7.8       2.4       0.0       0.1       0.9       4.2
 5 C  dx2y2           0.1       0.0       0.0       0.0       0.0       0.1
 5 C  dxy             0.3       0.1       0.0       0.3       0.0       0.1
 6 C  s               0.2       0.2       0.0       0.0       0.3       0.1
 6 C  pz              0.0       0.0       0.7       0.0       0.0       0.0
 6 C  px              0.0       7.6       0.0       0.6       4.1       6.2
 6 C  py             22.8       0.0       0.0       0.4       0.9       5.4
 6 C  dx2y2           0.1       0.1       0.0       0.0       0.0       0.0
 6 C  dxy             0.1       0.0       0.0       0.1       0.0       0.5
 7 C  s               0.7       0.2       0.0       0.1       0.2       0.1
 7 C  pz              0.0       0.0       0.7       0.0       0.0       0.0
 7 C  px              0.3       5.3       0.0       0.1       4.8       7.4
 7 C  py              6.9       0.7       0.0       5.8       0.3       7.8
 7 C  dx2y2           0.0       0.0       0.0       0.1       0.4       0.0
 7 C  dxy             0.0       0.0       0.0       0.1       0.1       1.0
 8 C  s               0.3       0.0       0.0       0.1       0.2       0.2
 8 C  pz              0.0       0.0       1.2       0.0       0.0       0.0
 8 C  px              0.3       1.9       0.0       2.7      16.2       1.7
 8 C  py              5.0       4.7       0.0       3.2       0.1       5.1
 8 C  dx2y2           0.2       0.0       0.0       0.1       0.5       0.1
 8 C  dxy             0.3       0.0       0.0       0.0       0.2       0.4
 9 C  s               0.1       0.0       0.0       0.0       0.4       0.2
 9 C  pz              0.0       0.0       3.1       0.0       0.0       0.0
 9 C  px              0.6       7.1       0.0       0.1       3.7       2.2
 9 C  py             15.2       0.8       0.0       0.6       1.8       3.6
 9 C  dx2y2           0.2       0.1       0.0       0.1       0.2       0.0
 9 C  dxy             0.0       0.1       0.0       0.0       0.1       0.1
10 H  s               0.1       2.2      12.0       0.3       2.6       0.8
10 H  px              0.0       0.0       0.3       0.0       0.0       0.0
10 H  py              0.0       0.0       0.0       0.2       0.0       0.0
11 H  s               0.1       1.8      12.9       0.4       2.1       0.7
11 H  px              0.0       0.0       0.3       0.0       0.0       0.0
11 H  py              0.0       0.0       0.0       0.2       0.0       0.0
12 H  s               0.1       4.6       0.0       7.6       7.9       3.7
12 H  pz              0.0       0.0       0.3       0.0       0.0       0.0
12 H  px              0.0       0.0       0.0       0.2       0.0       0.0
12 H  py              0.0       0.1       0.0       0.0       0.1       0.0
13 H  s               0.0       9.4       0.0       0.2       2.2       0.9
13 H  px              0.0       0.1       0.0       0.0       0.0       0.0
14 H  s               1.5       0.0       0.0       0.6       0.2       0.0
14 H  pz              0.0       0.0       0.2       0.0       0.0       0.0
15 H  s              10.0       1.0       0.0       0.6       0.5       1.6
15 H  px              0.1       0.0       0.0       0.0       0.0       0.1
15 H  py              0.1       0.1       0.0       0.0       0.0       0.0
16 H  s               1.1       0.1       0.0       1.6       2.1      12.1
17 H  s               0.8       0.6       0.0       1.6      10.7       1.6
17 H  px              0.0       0.0       0.0       0.0       0.1       0.0
18 H  s               8.6       0.0       0.0       0.3       0.0       0.7
18 H  py              0.1       0.0       0.0       0.0       0.0       0.0

                     30        31        32        33        34        35   
                  -0.30949  -0.29834  -0.25053  -0.20358  -0.18037  -0.03404
                   2.00000   2.00000   2.00000   2.00000   2.00000   0.00000
                  --------  --------  --------  --------  --------  --------
 0 C  s               0.0       0.1       0.0       0.0       0.0       0.0
 0 C  pz              0.2       0.0       1.9       0.0       1.1       0.1
 0 C  px              0.0       5.0       0.0       0.0       0.0       0.0
 0 C  py              0.0       0.7       0.0       0.0       0.0       0.0
 0 C  dxz             0.0       0.0       0.2       0.0       0.3       0.1
 0 C  dyz             0.0       0.0       0.0       0.0       0.1       0.0
 0 C  dx2y2           0.0       0.1       0.0       0.0       0.0       0.0
 1 C  pz              0.3       0.0      13.0       0.3      24.1       4.6
 1 C  px              0.0       8.2       0.0       0.0       0.0       0.0
 1 C  dxz             0.0       0.0       0.2       0.2       0.0       0.3
 1 C  dyz             0.1       0.0       0.0       0.1       0.2       0.3
 1 C  dxy             0.0       0.2       0.0       0.0       0.0       0.0
 2 C  pz              8.0       0.0       2.6      11.2      14.5      16.3
 2 C  py              0.0       0.2       0.0       0.0       0.0       0.0
 2 C  dxz             0.1       0.0       0.0       0.0       0.1       0.2
 2 C  dyz             0.0       0.0       0.2       0.1       0.6       0.0
 2 C  dxy             0.0       0.1       0.0       0.0       0.0       0.0
 3 N  pz             16.3       0.0       4.3       7.9      13.7       2.5
[...]
 1 C  py              0.1       0.1       0.0       0.0       0.1       0.0
 1 C  dx2y2           1.0       0.3       0.0       0.0       0.0       0.0
 1 C  dxy             1.1       0.1       0.0       0.0       0.0       0.0
 2 C  s               0.6       0.1       0.6      17.6       0.1       3.2
 2 C  px              3.5       0.1       0.0       0.0       0.0       0.0
 2 C  py              0.3       0.3       0.0       0.0       0.0       0.0
 2 C  dz2             0.0       0.2       0.0       0.0       0.0       0.0
 2 C  dx2y2           0.1       1.5       0.0       0.0       0.0       0.0
 2 C  dxy             7.6       0.3       0.0       0.0       0.0       0.0
 3 N  s               2.2       0.7       0.2       0.1       0.0       0.0
 3 N  px              8.2       1.9       0.0       0.0       0.0       0.0
 3 N  py              2.0      10.1       0.0       0.0       0.0       0.0
 3 N  dz2             2.9       0.8       0.0       0.0       0.0       0.0
 3 N  dx2y2          15.0      19.2       0.0       0.0       0.0       0.0
 3 N  dxy            11.1       9.0       0.0       0.0       0.0       0.0
 4 C  s               1.1       0.4       8.9       0.1      10.9       0.0
 4 C  px              0.4       2.4       0.0       0.0       0.1       0.1
 4 C  py              1.3       1.1       0.0       0.0       0.0       0.1
 4 C  dz2             0.7       0.1       0.0       0.0       0.0       0.0
 4 C  dx2y2           2.2       0.4       0.0       0.0       0.0       0.0
 4 C  dxy             3.8       6.8       0.0       0.0       0.0       0.0
 5 C  s               0.1       0.2      21.1      11.2       2.4      15.6
 5 C  px              0.9       0.2       0.0       0.1       0.0       0.1
 5 C  py              0.2       0.0       0.0       0.0       0.0       0.1
 5 C  dx2y2           1.4       1.8       0.0       0.0       0.0       0.0
 6 C  s               0.1       0.1      15.6       0.4       6.6      21.0
 6 C  px              0.2       0.1       0.0       0.0       0.0       0.0
 6 C  py              0.3       0.2       0.0       0.0       0.0       0.0
 6 C  dx2y2           0.9       1.5       0.0       0.0       0.0       0.0
 6 C  dxy             0.4       0.8       0.0       0.0       0.0       0.0
 7 C  s               0.1       0.1      16.2       6.4      13.8       3.0
 7 C  px              0.2       0.2       0.0       0.0       0.0       0.0
 7 C  py              0.1       0.2       0.0       0.0       0.0       0.0
 7 C  dx2y2           0.2       0.1       0.0       0.0       0.0       0.0
 7 C  dxy             1.4       2.3       0.0       0.0       0.0       0.0
 8 C  s               0.2       0.1      17.3       8.8       0.0      19.1
 8 C  px              0.4       0.5       0.0       0.0       0.0       0.0
 8 C  dx2y2           2.0       3.0       0.0       0.0       0.0       0.0
 8 C  dxy             0.3       0.2       0.0       0.0       0.0       0.0
 9 C  s               0.3       0.1      14.1       5.9       8.0      20.3
 9 C  px              0.1       0.3       0.0       0.0       0.0       0.0
 9 C  py              0.3       1.0       0.0       0.0       0.0       0.0
 9 C  dz2             0.3       0.0       0.0       0.0       0.0       0.0
 9 C  dx2y2           0.3       2.8       0.0       0.0       0.0       0.0
 9 C  dxy             2.1       1.6       0.0       0.0       0.0       0.0
13 H  s               1.5       0.4       0.0       0.0       0.0       0.0
13 H  px              1.6       0.4       0.0       0.0       0.0       0.0
13 H  py              0.7       0.2       0.0       0.0       0.0       0.0
14 H  s               4.3       7.2       0.0       0.0       0.0       0.0
14 H  px              0.8       0.0       0.0       0.0       0.0       0.0
14 H  py              6.1      10.3       0.0       0.0       0.0       0.0
15 H  s               0.3       0.5       0.0       0.0       0.0       0.0
15 H  px              0.1       0.1       0.0       0.0       0.0       0.0
15 H  py              0.6       0.7       0.0       0.0       0.0       0.0
16 H  s               0.4       0.5       0.0       0.0       0.0       0.0
16 H  px              0.2       0.4       0.0       0.0       0.0       0.0
16 H  py              0.4       0.5       0.0       0.0       0.0       0.0
17 H  s               0.6       0.7       0.0       0.0       0.0       0.0
17 H  px              1.0       1.0       0.0       0.0       0.0       0.0
18 H  s               0.6       1.1       0.0       0.0       0.0       0.0
18 H  px              0.1       0.2       0.0       0.0       0.0       0.0
18 H  py              0.8       1.6       0.0       0.0       0.0       0.0

                    234       235       236       237       238       239   
                  22.08445  22.19401  22.24672  22.29407  22.37373  31.94468
                   0.00000   0.00000   0.00000   0.00000   0.00000   0.00000
                  --------  --------  --------  --------  --------  --------
 0 C  s              19.3       0.2       1.5       3.4       0.2       0.0
 1 C  s               6.6       1.7      29.4       1.0       6.1       0.0
 1 C  py              0.1       0.0       0.0       0.1       0.0       0.0
 2 C  s              10.5      23.3      22.6      16.2       5.3       0.0
 3 N  s               0.0       0.1       0.1       0.0       0.0      99.7
 4 C  s               3.1      18.6       8.6      21.8      27.0       0.0
 4 C  px              0.0       0.1       0.0       0.0       0.0       0.0
 5 C  s               7.9      16.1       8.5       1.6      15.1       0.0
 5 C  py              0.0       0.0       0.0       0.2       0.0       0.0
 6 C  s               2.8       3.6       4.7      32.5      12.2       0.0
 7 C  s              29.2       4.3       1.8      16.4       8.3       0.0
 8 C  s               6.9      25.2       9.9       4.5       7.9       0.0
 9 C  s              13.1       6.3      12.5       1.8      17.5       0.0



                      *****************************
                      * MAYER POPULATION ANALYSIS *
                      *****************************

  NA   - Mulliken gross atomic population
  ZA   - Total nuclear charge
  QA   - Mulliken gross atomic charge
  VA   - Mayer's total valence
  BVA  - Mayer's bonded valence
  FA   - Mayer's free valence

  ATOM       NA         ZA         QA         VA         BVA        FA
  0 C      6.6014     6.0000    -0.6014     3.7245     3.7245     0.0000
  1 C      5.9126     6.0000     0.0874     3.3448     3.3448     0.0000
  2 C      6.1896     6.0000    -0.1896     3.7309     3.7309    -0.0000
  3 N      7.0445     7.0000    -0.0445     3.3801     3.3801    -0.0000
  4 C      5.8995     6.0000     0.1005     3.9563     3.9563     0.0000
  5 C      5.7696     6.0000     0.2304     3.8099     3.8099    -0.0000
  6 C      6.3098     6.0000    -0.3098     3.6457     3.6457    -0.0000
  7 C      6.1606     6.0000    -0.1606     3.8553     3.8553    -0.0000
  8 C      6.1507     6.0000    -0.1507     3.8720     3.8720    -0.0000
  9 C      6.3783     6.0000    -0.3783     3.7538     3.7538     0.0000
 10 H      0.8432     1.0000     0.1568     0.9581     0.9581     0.0000
 11 H      0.8419     1.0000     0.1581     0.9572     0.9572     0.0000
 12 H      0.8491     1.0000     0.1509     0.9647     0.9647     0.0000
 13 H      0.8639     1.0000     0.1361     0.9802     0.9802    -0.0000
 14 H      0.7550     1.0000     0.2450     0.9229     0.9229    -0.0000
 15 H      0.8589     1.0000     0.1411     0.9733     0.9733    -0.0000
 16 H      0.8570     1.0000     0.1430     0.9696     0.9696    -0.0000
 17 H      0.8546     1.0000     0.1454     0.9694     0.9694     0.0000
 18 H      0.8597     1.0000     0.1403     0.9740     0.9740     0.0000

  Mayer bond orders larger than 0.100000
B(  0-C ,  1-C ) :   0.7601 B(  0-C , 10-H ) :   0.9864 B(  0-C , 11-H ) :   0.9848 
B(  0-C , 12-H ) :   0.9920 B(  1-C ,  2-C ) :   1.5045 B(  1-C ,  5-C ) :   1.1951 
B(  2-C ,  3-N ) :   1.1529 B(  2-C , 13-H ) :   0.9359 B(  3-N ,  4-C ) :   1.2022 
B(  3-N , 14-H ) :   0.9113 B(  4-C ,  5-C ) :   1.4077 B(  4-C ,  9-C ) :   1.2678 
B(  5-C ,  6-C ) :   1.2142 B(  6-C ,  7-C ) :   1.4746 B(  6-C , 15-H ) :   0.9415 
B(  7-C ,  8-C ) :   1.3675 B(  7-C , 16-H ) :   0.9457 B(  8-C ,  9-C ) :   1.4628 
B(  8-C , 17-H ) :   0.9535 B(  9-C , 18-H ) :   0.9291 

-------
TIMINGS
-------

Total SCF time: 0 days 0 hours 0 min 15 sec 

Total time                  ....      15.349 sec
Sum of individual times     ....      15.320 sec  ( 99.8%)

SCF preparation             ....       0.036 sec  (  0.2%)
Fock matrix formation       ....      15.048 sec  ( 98.0%)
  Startup                   ....       0.003 sec  (  0.0% of F)
  Split-RI-J                ....       3.613 sec  ( 24.0% of F)
  XC integration            ....      11.405 sec  ( 75.8% of F)
    Basis function eval.    ....       2.014 sec  ( 17.7% of XC)
    Density eval.           ....       3.937 sec  ( 34.5% of XC)
    XC-Functional eval.     ....       1.137 sec  ( 10.0% of XC)
    XC-Potential eval.      ....       4.129 sec  ( 36.2% of XC)
Diagonalization             ....       0.000 sec  (  0.0%)
Density matrix formation    ....       0.013 sec  (  0.1%)
Total Energy calculation    ....       0.002 sec  (  0.0%)
Population analysis         ....       0.107 sec  (  0.7%)
Orbital Transformation      ....       0.014 sec  (  0.1%)
Orbital Orthonormalization  ....       0.000 sec  (  0.0%)
DIIS solution               ....       0.078 sec  (  0.5%)
  MO trafo                  ....       0.000 sec  (  0.0 % of DIIS)
  Orb grad                  ....       0.000 sec  (  0.0 % of DIIS)
  Energy W gradient         ....       0.000 sec  (  0.0 % of DIIS)
  DIIS error                ....       0.013 sec  ( 17.1 % of DIIS)
  DIIS work                 ....       0.057 sec  ( 73.1 % of DIIS)
  Form Q                    ....       0.000 sec  (  0.0 % of DIIS)
  Form QpQm                 ....       0.000 sec  (  0.0 % of DIIS)
  Exp/Cayley                ....       0.000 sec  (  0.0 % of DIIS)
  Orb update                ....       0.000 sec  (  0.0 % of DIIS)
  Wake-sleep                ....       0.001 sec  (  0.8 % of DIIS)
SOSCF solution              ....       0.021 sec  (  0.1%)
  MO trafo                  ....       0.012 sec  ( 56.3 % of SOSCF)
  Orb grad                  ....       0.000 sec  (  0.7 % of SOSCF)
  Rot update                ....       0.000 sec  (  2.2 % of SOSCF)
  Step                      ....       0.009 sec  ( 40.7 % of SOSCF)
Finished LeanSCF after  15.4 sec

Maximum memory used throughout the entire LEANSCF-calculation: 27.8 MB


-------------------------------------------------------------------------------
                          DFT DISPERSION CORRECTION                            
                                                                               
                                DFTD4 V3.4.0                                   
-------------------------------------------------------------------------------
The R2SCAN3C composite method is recognized
Using three-body term ABC
Active option DFTDOPT                   ...         5   

-------------------------   ----------------
Dispersion correction           -0.006991077
-------------------------   ----------------

------------------   -----------------
gCP correction             0.007430595
------------------   -----------------

-------------------------   --------------------
FINAL SINGLE POINT ENERGY      -403.024298514819
-------------------------   --------------------


------------------------------------------------------------------------------
                              ORCA PROPERTY CALCULATIONS
------------------------------------------------------------------------------

GBWName                                 ... sp.gbw
Number of atoms                         ...     19
Number of basis functions               ...    240
Max core memory                         ...   1024 MB

Electric properties:
Dipole moment                           ... YES
Quadrupole moment                       ...  NO
Static polarizability (Dipole/Dipole)   ...  NO
Static polarizability (Dipole/Quad.)    ...  NO
Static polarizability (Quad./Quad.)     ...  NO
Static polarizability (Velocity)        ...  NO

Atomic electric properties:
Dipole moment                           ...  NO
Quadrupole moment                       ...  NO
Static polarizability                   ...  NO

Choice of electric origin               ... Center of mass
Position of electric origin             ...    -0.000008    -0.000003     0.000000

General magnetic properties:
Magnetizability                         ...  NO

EPR properties:
g-Tensor (aka g-matrix)                 ...  NO
Zero-Field splitting spin-orbit         ...  NO
Zero-field splitting spin-spin          ...  NO
Hyperfine couplings                     ...  NO (   0 nuclei)
Quadrupole couplings                    ...  NO (   0 nuclei)
Contact density                         ...  NO (   0 nuclei)

NMR properties:
Chemical shifts                         ...  NO (   0 nuclei)
Spin-rotation constants                 ...  NO (   0 nuclei)
Spin-spin couplings                     ...  NO (   0 nuclei,    0 pairs)

Choice of magnetic origin               ... GIAO
Position of magnetic origin             ...     0.000000     0.000000     0.000000

Properties with geometric perturbations:
SCF Hessian                             ...  NO
IR spectrum                             ...  NO
VCD spectrum                            ...  NO
X-ray spectroscopy properties:
SCF XES/XAS/RIXS spectra                ...  NO


-------------
DIPOLE MOMENT
-------------

Method             : SCF
Type of density    : Electron Density
Multiplicity       :   1
Irrep              :   0
Energy             :  -403.0247380323702373 Eh
Relativity type    : 
Basis              : AO
                                X                 Y                 Z
Electronic contribution:      2.606670342      -3.564598451      -0.000600307
Nuclear contribution   :     -3.056927135       2.851302985       0.001493587
                        -----------------------------------------
Total Dipole Moment    :     -0.450256793      -0.713295466       0.000893281
                        -----------------------------------------
Magnitude (a.u.)       :      0.843517871
Magnitude (Debye)      :      2.144052037



--------------------
Rotational spectrum 
--------------------
 
Rotational constants in cm-1:             0.088104             0.042776             0.028950 
Rotational constants in MHz :          2641.291866          1282.390618           867.903775 

Dipole components along the rotational axes: 
x,y,z [a.u.] :     0.449490    -0.713779     0.000894 
x,y,z [Debye]:     1.142512    -1.814282     0.002271 

 

Dipole moment calculation done in   0.0 sec 

Maximum memory used throughout the entire PROP-calculation: 17.0 MB

--------------------------------
SUGGESTED CITATIONS FOR THIS RUN
--------------------------------

Below you find a list of papers that are relevant to this ORCA run
We neither can nor want to force you to cite these papers, but we appreciate if you do
You receive ORCA, which is the product of decades of hard work by many enthusiastic individuals, for free
The only thing we kindly ask in return is that you cite our papers,
We deeply appreciate it, if you show your appreciation for ORCA by not just citing the generic ORCA reference.

Please note that relegating all ORCA citations to the supporting information does *not* help us.
SI sections are not indexed - citations you put there will not count into any citation statistics
But we need these citations in order to attract the funding resources that allow us to do what we are doing

Therefore, if you are a happy ORCA user, please consider citing a few of the papers listed below in the main body of your paper

In addition to the list printed below, the program has created the file sp.bibtex that contains the list in bibtex format
You can import this file easily into all common literature databanks and citation aid programs


List of essential papers. We consider these as the minimum necessary citations

  1. Neese,F.
     Software update: the ORCA program system, version 5.0
     WIRES Comput. Molec. Sci., 2022 12(1)e1606
     doi.org/10.1002/wcms.1606
  2. Grimme,S.; Hansen,A.; Ehlert,S.; Mewes,J.
     r2SCAN-3c: A 'Swiss army knife' composite electronic-structure method
     J. Chem. Phys., 2021 154 064103
     doi.org/10.1063/5.0040021

List of papers to cite with high priority. The work reported in these papers was absolutely
necessary for this run to complete.
Our perspective: the developers of density functionals and basis sets usually get cited in chemistry papers
Good! But without the algorithms to do something with them, the functionals or basis sets would not do anything.
Hence, in our opinion, the algorithm design and method developments papers are equally worthy of getting cited

  1. Neese,F.
     An improvement of the resolution of the identity approximation for the formation of the Coulomb matrix
     J. Comp. Chem., 2003 24(14)1740-1747
     doi.org/10.1002/jcc.10318
  2. Neese,F.
     The SHARK Integral Generation and Digestion System
     J. Comp. Chem., 2022  1-16
     doi.org/10.1002/jcc.26942
  3. Lehtola,S.; Steigemann,C.; Oliveira,M.; Marques,M.
     Recent developments in Libxc - A comprehensive library of functionals for density functional theory
     Software X, 2018 7 
     doi.org/10.1016/j.softx.2017.11.002
  4. Caldeweyher,E.; Bannwarth,C.; Grimme,S.
     Extension of the D3 dispersion coefficient model
     J. Chem. Phys., 2017 147 034112
     doi.org/10.1063/1.4993215
  5. Caldeweyher,E.; Ehlert,S.; Hansen,A.; Neugebauer,H.; Spicher,S.; Bannwarth,C.; Grimme,S.
     A generally applicable atomic-charge dependent London dispersion correction
     J. Chem. Phys., 2019 150 154122
     doi.org/10.1063/1.5090222
  6. Caldeweyher,E.; Mewes,J.; Ehlert,S.; Grimme,S.
     Extension and evaluation of the D4 London-dispersion model for periodic systems
     Phys. Chem. Chem. Phys., 2020 22(16)8499-8512
     doi.org/10.1039/D0CP00502A
  7. Wittmann,L.; Gordiy,I.; Friede,M.; Helmich-Paris,B.; Grimme,S.; Hansen,A.; Bursch,M.
     Extension of the D3 and D4 London Dispersion Corrections to the full Actinides Series
     Phys. Chem. Chem. Phys., 2024 26(32)21379-21394
     doi.org/https://doi.org/10.1039/D4CP01514B 

List of suggested additional citations. These are papers that are important in the 'surrounding' of 
of this run, or papers that preceded the highly important papers. If you like your results we are grateful for a citation.

  1. Neese,F.
     The ORCA program system
     WIRES Comput. Molec. Sci., 2012 2(1)73-78
     doi.org/10.1002/wcms.81
  2. Neese,F.
     Software update: the ORCA program system, version 4.0
     WIRES Comput. Molec. Sci., 2018 8(1)1-6
     doi.org/10.1002/wcms.1327
  3. Neese,F.; Wennmohs,F.; Becker,U.; Riplinger,C.
     The ORCA quantum chemistry program package
     J. Chem. Phys., 2020 152 Art. No. L224108
     doi.org/10.1063/5.0004608

List of optional additional citations

  1. Neese,F.
     Approximate second-order SCF convergence for spin unrestricted wavefunctions
     Chem. Phys. Lett., 2000 325(1-3)93-98
     doi.org/10.1016/s0009-2614(00)00662-x

Timings for individual modules:

Sum of individual times          ...       16.116 sec (=   0.269 min)
Startup calculation              ...        0.642 sec (=   0.011 min)   4.0 %
SCF iterations                   ...       15.433 sec (=   0.257 min)  95.8 %
Property calculations            ...        0.041 sec (=   0.001 min)   0.3 %
                             ****ORCA TERMINATED NORMALLY****
TOTAL RUN TIME: 0 days 0 hours 0 minutes 16 seconds 186 msec
