 Entering Gaussian System
 *********************************************
 Gaussian 98:
 frequency output generated by the xtb code
 *********************************************
                         Standard orientation:
 --------------------------------------------------------------------
  Center     Atomic     Atomic              Coordinates (Angstroms)
  Number     Number      Type              X           Y           Z
 --------------------------------------------------------------------
    1          6             0        0.882207    1.343859   -0.697438
    2          6             0        1.591126    0.168058   -0.021750
    3          1             0        2.619887    0.064216   -0.392708
    4          6             0        0.790121   -1.118100   -0.339667
    5          1             0        1.211619   -1.954280    0.240333
    6          6             0       -0.671796   -0.930842    0.092496
    7          1             0       -1.276759   -1.740963   -0.328745
    8          6             0       -1.249299    0.408679   -0.432725
    9          1             0       -1.363545    0.361090   -1.525688
   10          8             0       -0.384394    1.493278   -0.105465
   11          8             0       -2.481240    0.648663    0.119950
   12          8             0       -0.818727   -0.994736    1.489837
   13          8             0        0.802922   -1.399191   -1.716696
   14          8             0        1.639176    0.379088    1.374551
   15          1             0        0.795075    1.163325   -1.776444
   16          1             0        1.417922    2.279565   -0.520828
   17          1             0       -2.437502    0.385238    1.053827
   18          1             0       -0.035753   -0.586624    1.892830
   19          1             0        1.696379   -1.642701   -1.983895
   20          1             0        1.092270    1.156492    1.563785
 --------------------------------------------------------------------
     1 basis functions        1 primitive gaussians
     1 alpha electrons        1 beta electrons

 Harmonic frequencies (cm**-1), IR intensities (km*mol⁻¹),
 Raman scattering activities (A**4/amu), Raman depolarization ratios,
 reduced masses (AMU), force constants (mDyne/A) and normal coordinates:
                      1                      2                      3
                        a                      a                      a 
 Frequencies --    87.4977               141.1135               182.5945
 Red. masses --     4.8213                 5.2238                 3.2988
 Frc consts  --     0.0000                 0.0000                 0.0000
 IR Inten    --     7.8666                 3.3521                44.3721
 Raman Activ --     0.0000                 0.0000                 0.0000
 Depolar     --     0.0000                 0.0000                 0.0000
 Atom AN      X      Y      Z        X      Y      Z        X      Y      Z
   1   6    -0.07   0.10   0.22     0.13  -0.14  -0.06     0.04   0.05  -0.05
   2   6     0.02   0.00  -0.04     0.01  -0.09   0.14     0.06   0.05  -0.08
   3   1    -0.02   0.01  -0.09     0.03  -0.04   0.11     0.01  -0.01  -0.01
   4   6    -0.03   0.02   0.01    -0.00  -0.04  -0.04     0.00   0.02   0.06
   5   1     0.01   0.00  -0.01     0.02  -0.07  -0.11     0.03   0.01  -0.00
   6   6     0.00   0.01   0.11     0.07  -0.07   0.18     0.01  -0.06   0.11
   7   1    -0.00  -0.02   0.08     0.00  -0.03   0.09     0.01   0.00  -0.02
   8   6     0.00  -0.08  -0.08     0.08  -0.15  -0.03     0.14  -0.01   0.09
   9   1     0.08  -0.03  -0.03     0.03  -0.10  -0.01     0.12  -0.00   0.02
  10   8    -0.13  -0.06   0.16     0.07  -0.09  -0.24     0.17  -0.06   0.28
  11   8    -0.19  -0.16  -0.49     0.08  -0.04  -0.11    -0.01   0.09  -0.34
  12   8     0.11   0.29   0.15     0.24   0.11   0.22    -0.15  -0.39   0.09
  13   8    -0.19   0.07  -0.00    -0.31   0.48  -0.17    -0.27  -0.01   0.06
  14   8     0.43  -0.25  -0.01    -0.35   0.01   0.16     0.14   0.37  -0.17
  15   1     0.00   0.09   0.05     0.07  -0.07  -0.02    -0.05   0.03  -0.01
  16   1    -0.03   0.03   0.12     0.03  -0.04  -0.02     0.02   0.01  -0.02
  17   1    -0.09   0.05  -0.10     0.02   0.06  -0.01    -0.10   0.06  -0.07
  18   1     0.04   0.09   0.00     0.10  -0.02   0.02    -0.02  -0.20   0.09
  19   1    -0.06   0.01  -0.03    -0.10   0.14  -0.12    -0.07   0.05  -0.04
  20   1     0.25   0.02   0.07    -0.11  -0.00  -0.02    -0.36  -0.17  -0.06
                      4                      5                      6
                        a                      a                      a 
 Frequencies --   224.0202               262.8372               267.3011
 Red. masses --     5.2542                 3.7476                 4.1545
 Frc consts  --     0.0000                 0.0000                 0.0000
 IR Inten    --     1.8138                19.3787                40.3394
 Raman Activ --     0.0000                 0.0000                 0.0000
 Depolar     --     0.0000                 0.0000                 0.0000
 Atom AN      X      Y      Z        X      Y      Z        X      Y      Z
   1   6    -0.05   0.17   0.08     0.08   0.05   0.05     0.10   0.28   0.04
   2   6    -0.10   0.04  -0.09     0.07  -0.01  -0.04     0.02   0.18  -0.05
   3   1    -0.01   0.05   0.03     0.03  -0.00   0.02     0.01   0.08  -0.02
   4   6     0.02  -0.03  -0.13     0.06  -0.02  -0.02     0.10   0.11   0.05
   5   1     0.02   0.02   0.01     0.03  -0.01  -0.01     0.09   0.07   0.03
   6   6     0.08   0.07   0.03     0.08   0.04  -0.09     0.13   0.01   0.09
   7   1    -0.02   0.03   0.04     0.03   0.00  -0.02     0.07   0.01  -0.03
   8   6     0.09   0.10   0.07     0.11   0.01  -0.07     0.14  -0.02  -0.03
   9   1     0.07   0.04   0.01     0.03   0.08  -0.02     0.03  -0.07  -0.01
  10   8     0.01   0.14   0.24     0.14  -0.05   0.21    -0.06   0.25  -0.34
  11   8    -0.02   0.03  -0.17     0.16  -0.43   0.15     0.17  -0.10   0.02
  12   8     0.43   0.08   0.07    -0.30   0.50  -0.12    -0.15  -0.34   0.03
  13   8     0.02  -0.41  -0.07    -0.23  -0.10  -0.01    -0.38  -0.19   0.14
  14   8    -0.50  -0.15  -0.05    -0.09   0.06  -0.06    -0.10  -0.21   0.03
  15   1    -0.04   0.10   0.02     0.00   0.05   0.01     0.11   0.14  -0.01
  16   1     0.01   0.03   0.06     0.03   0.00   0.04     0.01   0.08   0.09
  17   1    -0.03   0.08  -0.02     0.06  -0.35  -0.02     0.04  -0.08  -0.01
  18   1     0.18  -0.07  -0.03    -0.05   0.04  -0.00    -0.12   0.03   0.07
  19   1    -0.01  -0.17   0.01    -0.05   0.09  -0.08    -0.10   0.05  -0.07
  20   1    -0.16  -0.05  -0.03    -0.21  -0.11  -0.04     0.23   0.11   0.04
                      7                      8                      9
                        a                      a                      a 
 Frequencies --   286.2701               298.9159               363.2152
 Red. masses --     1.2931                 1.2490                 2.9315
 Frc consts  --     0.0000                 0.0000                 0.0000
 IR Inten    --     7.3078               222.5432                15.5005
 Raman Activ --     0.0000                 0.0000                 0.0000
 Depolar     --     0.0000                 0.0000                 0.0000
 Atom AN      X      Y      Z        X      Y      Z        X      Y      Z
   1   6    -0.01  -0.08  -0.08    -0.06  -0.09  -0.09     0.06   0.19   0.20
   2   6     0.05   0.01  -0.01    -0.03  -0.04  -0.06     0.01   0.07  -0.05
   3   1     0.02   0.00   0.00    -0.00  -0.01  -0.01     0.01   0.01   0.00
   4   6     0.03   0.01  -0.01     0.01  -0.05   0.01     0.02   0.01  -0.06
   5   1    -0.00  -0.00  -0.02     0.01  -0.01   0.01     0.04   0.03  -0.01
   6   6     0.02   0.00   0.01    -0.00  -0.03   0.02    -0.04  -0.24  -0.05
   7   1     0.01   0.01  -0.01    -0.00  -0.00   0.01     0.03  -0.12   0.03
   8   6     0.09   0.03   0.07     0.05   0.03   0.08    -0.04  -0.29  -0.13
   9   1     0.06   0.04   0.01     0.05   0.04   0.02    -0.05  -0.07  -0.03
  10   8     0.14  -0.04   0.25     0.12  -0.05   0.26    -0.05  -0.46   0.08
  11   8     0.01  -0.08  -0.07     0.00   0.08  -0.10     0.20   0.33   0.10
  12   8    -0.05  -0.12  -0.03     0.02  -0.05   0.00    -0.06   0.10  -0.05
  13   8    -0.07   0.19  -0.07     0.03  -0.10   0.04    -0.04  -0.09  -0.06
  14   8    -0.18   0.13  -0.01    -0.21   0.01  -0.08    -0.09   0.18  -0.05
  15   1    -0.08  -0.08  -0.01    -0.10  -0.06  -0.02     0.10   0.23   0.03
  16   1     0.01  -0.02  -0.11     0.01  -0.03  -0.11    -0.05   0.06   0.25
  17   1    -0.05  -0.12  -0.04    -0.06  -0.03  -0.04     0.13   0.25   0.07
  18   1    -0.19   0.32  -0.01    -0.12   0.26  -0.02    -0.07   0.16  -0.05
  19   1    -0.17  -0.60   0.08     0.16   0.68  -0.12    -0.02  -0.05  -0.02
  20   1     0.30   0.29  -0.07     0.31   0.26  -0.07     0.04   0.09  -0.04
                     10                     11                     12
                        a                      a                      a 
 Frequencies --   374.0749               421.8320               456.4013
 Red. masses --     5.3319                 2.5589                 1.4843
 Frc consts  --     0.0000                 0.0000                 0.0000
 IR Inten    --     8.8731                16.2505               100.5642
 Raman Activ --     0.0000                 0.0000                 0.0000
 Depolar     --     0.0000                 0.0000                 0.0000
 Atom AN      X      Y      Z        X      Y      Z        X      Y      Z
   1   6    -0.11   0.06  -0.18    -0.17  -0.16  -0.13    -0.03  -0.01   0.04
   2   6     0.03   0.10  -0.22     0.20   0.20   0.11    -0.12  -0.10   0.01
   3   1     0.01   0.07  -0.06     0.07   0.13   0.06    -0.04  -0.03  -0.02
   4   6     0.14   0.08  -0.00     0.26   0.17   0.03    -0.06  -0.15   0.01
   5   1     0.09   0.05  -0.01     0.08   0.06   0.02    -0.01  -0.05  -0.02
   6   6     0.09  -0.04   0.23     0.18   0.05  -0.16    -0.00  -0.01  -0.03
   7   1     0.06  -0.03   0.06     0.13  -0.03  -0.08    -0.05   0.05  -0.03
   8   6     0.06  -0.10   0.11    -0.09  -0.01  -0.06     0.15   0.06   0.03
   9   1     0.04  -0.07   0.03    -0.06   0.04  -0.01     0.02   0.03   0.01
  10   8     0.01  -0.07   0.05    -0.04  -0.18   0.14     0.00   0.21   0.07
  11   8     0.06   0.09  -0.02    -0.04   0.11  -0.01     0.10  -0.39  -0.02
  12   8    -0.40   0.13   0.26     0.03   0.08  -0.24    -0.16   0.03  -0.05
  13   8     0.30   0.20  -0.04    -0.29  -0.10   0.13     0.02   0.03  -0.04
  14   8    -0.16  -0.42  -0.22     0.01  -0.15   0.23    -0.00   0.14  -0.04
  15   1    -0.08  -0.02  -0.04    -0.13  -0.24   0.00    -0.03   0.01   0.01
  16   1    -0.04   0.03  -0.10    -0.10   0.02  -0.26     0.05  -0.03   0.01
  17   1     0.01   0.12   0.02     0.07   0.26   0.06     0.29   0.67   0.20
  18   1    -0.07  -0.08   0.13     0.07  -0.13  -0.04     0.04  -0.15   0.00
  19   1     0.06  -0.06   0.05    -0.11  -0.01  -0.09     0.01   0.01  -0.00
  20   1    -0.06  -0.13  -0.00     0.02  -0.03   0.09     0.14   0.14  -0.03
                     13                     14                     15
                        a                      a                      a 
 Frequencies --   495.9889               507.6107               545.8637
 Red. masses --     3.5498                 2.4537                 1.7112
 Frc consts  --     0.0000                 0.0000                 0.0000
 IR Inten    --    70.7774                26.0220                78.3759
 Raman Activ --     0.0000                 0.0000                 0.0000
 Depolar     --     0.0000                 0.0000                 0.0000
 Atom AN      X      Y      Z        X      Y      Z        X      Y      Z
   1   6     0.35   0.01  -0.00    -0.15  -0.11   0.13     0.07  -0.03   0.06
   2   6     0.31  -0.01  -0.06     0.02  -0.08   0.12     0.11   0.04   0.07
   3   1     0.11  -0.03   0.05     0.02   0.08   0.04     0.04   0.02   0.04
   4   6     0.06   0.17  -0.07     0.23  -0.21  -0.19     0.06   0.00  -0.21
   5   1    -0.02   0.05   0.01     0.07  -0.09  -0.11     0.04  -0.02  -0.10
   6   6    -0.00   0.16   0.04     0.21  -0.00   0.09     0.03  -0.02   0.08
   7   1     0.05   0.01   0.01     0.04   0.01   0.04     0.01  -0.00  -0.00
   8   6    -0.27   0.06   0.12     0.03   0.02   0.09    -0.05  -0.02   0.11
   9   1    -0.12   0.02   0.04     0.01  -0.03   0.03    -0.00  -0.03   0.03
  10   8     0.21  -0.10  -0.07    -0.22   0.24  -0.07     0.03  -0.04  -0.03
  11   8    -0.51  -0.21   0.05    -0.01   0.12  -0.01    -0.14   0.08   0.00
  12   8    -0.01  -0.06   0.03    -0.12   0.00   0.07    -0.25   0.09   0.15
  13   8     0.02  -0.07  -0.03     0.01  -0.20  -0.36     0.04  -0.21  -0.34
  14   8    -0.09  -0.04  -0.06     0.14   0.11   0.15    -0.01   0.21   0.13
  15   1     0.15   0.08  -0.01    -0.04  -0.08   0.04     0.04  -0.01   0.01
  16   1     0.05   0.01   0.09    -0.02  -0.04  -0.01    -0.00   0.01   0.01
  17   1    -0.07   0.26   0.09    -0.04   0.09   0.01    -0.12  -0.16  -0.05
  18   1    -0.12   0.19   0.03    -0.27   0.39   0.09     0.21  -0.52   0.07
  19   1     0.02   0.03  -0.01    -0.00   0.00  -0.15     0.02  -0.02  -0.08
  20   1    -0.08  -0.03  -0.07    -0.19  -0.13   0.03     0.31   0.28  -0.02
                     16                     17                     18
                        a                      a                      a 
 Frequencies --   579.4606               700.9980               807.3037
 Red. masses --     3.8884                 4.5964                 4.1982
 Frc consts  --     0.0000                 0.0000                 0.0000
 IR Inten    --    31.6885                18.7562                27.3192
 Raman Activ --     0.0000                 0.0000                 0.0000
 Depolar     --     0.0000                 0.0000                 0.0000
 Atom AN      X      Y      Z        X      Y      Z        X      Y      Z
   1   6     0.08   0.17  -0.22     0.11   0.22  -0.19     0.00  -0.23   0.25
   2   6    -0.13   0.27   0.13    -0.17   0.07   0.01     0.08  -0.04   0.00
   3   1    -0.04  -0.01   0.07    -0.05  -0.00   0.01     0.01  -0.04  -0.03
   4   6    -0.32   0.25  -0.21     0.11  -0.24   0.08    -0.19   0.38  -0.10
   5   1    -0.06   0.11  -0.03     0.13  -0.03  -0.00    -0.11   0.11   0.02
   6   6    -0.26  -0.06   0.04    -0.01  -0.50  -0.10     0.00   0.05  -0.03
   7   1    -0.11  -0.01   0.06    -0.01  -0.13  -0.03     0.04   0.02  -0.07
   8   6     0.09  -0.07   0.01     0.02  -0.13   0.35     0.22  -0.27   0.48
   9   1     0.04  -0.02   0.00    -0.01  -0.00   0.10     0.10  -0.18   0.12
  10   8     0.19  -0.09   0.03     0.17   0.22  -0.03    -0.13   0.07  -0.13
  11   8     0.13  -0.16  -0.02    -0.23   0.07   0.01     0.13  -0.00  -0.05
  12   8     0.01  -0.03   0.13    -0.01   0.18  -0.22    -0.01   0.11  -0.26
  13   8     0.05  -0.21  -0.24    -0.03   0.07   0.08    -0.01  -0.03   0.04
  14   8     0.15  -0.04   0.30     0.06  -0.03   0.08    -0.04   0.01  -0.14
  15   1    -0.02  -0.12  -0.03     0.03   0.06  -0.05     0.03  -0.13   0.07
  16   1    -0.03   0.10  -0.22     0.07   0.04  -0.05    -0.01  -0.05   0.02
  17   1     0.07   0.05   0.02    -0.22   0.03   0.01    -0.18   0.04   0.01
  18   1    -0.06   0.16  -0.02     0.06   0.03  -0.15     0.00   0.01  -0.06
  19   1     0.06   0.02   0.05    -0.04  -0.03  -0.05     0.03   0.01   0.10
  20   1    -0.04  -0.09   0.17     0.00  -0.03   0.08    -0.03   0.00  -0.07
                     19                     20                     21
                        a                      a                      a 
 Frequencies --   833.6842               876.9992               939.6071
 Red. masses --     3.6891                 3.0758                 2.6032
 Frc consts  --     0.0000                 0.0000                 0.0000
 IR Inten    --    25.6589                 9.7198                33.7266
 Raman Activ --     0.0000                 0.0000                 0.0000
 Depolar     --     0.0000                 0.0000                 0.0000
 Atom AN      X      Y      Z        X      Y      Z        X      Y      Z
   1   6     0.09  -0.01   0.25    -0.12   0.27  -0.19     0.06   0.27  -0.19
   2   6     0.45   0.06  -0.02     0.51  -0.02  -0.05     0.06  -0.32   0.01
   3   1     0.12   0.02  -0.01     0.16   0.00   0.07     0.02  -0.31   0.09
   4   6    -0.01   0.05  -0.01    -0.06  -0.34   0.06    -0.18   0.12  -0.01
   5   1     0.03   0.02  -0.01    -0.18  -0.18   0.00    -0.16  -0.04  -0.02
   6   6    -0.32  -0.40  -0.03    -0.19   0.18  -0.01     0.30   0.05   0.06
   7   1    -0.07  -0.15   0.04    -0.19   0.16  -0.03     0.25  -0.13   0.03
   8   6    -0.12  -0.02  -0.19     0.16  -0.01   0.20    -0.22  -0.32  -0.13
   9   1    -0.00   0.06  -0.05     0.05  -0.09   0.05    -0.02  -0.10  -0.03
  10   8    -0.11   0.36   0.06    -0.20  -0.12  -0.05    -0.10   0.24   0.20
  11   8     0.05   0.00  -0.00     0.06  -0.02  -0.01     0.02   0.07   0.00
  12   8     0.00  -0.01   0.16     0.00   0.00  -0.08     0.00   0.00  -0.10
  13   8     0.00  -0.00   0.02     0.01   0.04   0.01    -0.01  -0.01  -0.02
  14   8    -0.07  -0.02  -0.14    -0.02  -0.02   0.16     0.03   0.00   0.14
  15   1    -0.08  -0.22   0.11    -0.07   0.13  -0.06    -0.14   0.08  -0.03
  16   1     0.03   0.04  -0.19    -0.18   0.15  -0.02     0.11   0.03  -0.13
  17   1     0.11  -0.03  -0.01    -0.07   0.01   0.00     0.04  -0.02  -0.01
  18   1     0.07   0.03  -0.12     0.02   0.01  -0.07    -0.04  -0.05   0.12
  19   1     0.00   0.01   0.00     0.00   0.02   0.00     0.04   0.01   0.12
  20   1    -0.04   0.01  -0.14    -0.01   0.01  -0.06     0.01   0.04  -0.12
                     22                     23                     24
                        a                      a                      a 
 Frequencies --   978.1861              1034.9282              1063.1837
 Red. masses --     2.3465                 2.8904                 2.1600
 Frc consts  --     0.0000                 0.0000                 0.0000
 IR Inten    --    24.9680               105.0116                57.1450
 Raman Activ --     0.0000                 0.0000                 0.0000
 Depolar     --     0.0000                 0.0000                 0.0000
 Atom AN      X      Y      Z        X      Y      Z        X      Y      Z
   1   6    -0.28  -0.26  -0.26    -0.15  -0.10   0.08    -0.26  -0.02   0.14
   2   6     0.15  -0.17  -0.18     0.02   0.17  -0.10     0.16   0.12  -0.02
   3   1     0.06  -0.00   0.01    -0.00   0.37  -0.14     0.02   0.18  -0.09
   4   6     0.07   0.30  -0.04     0.05  -0.15   0.05    -0.35  -0.12  -0.06
   5   1     0.02   0.08  -0.01    -0.13  -0.09   0.03    -0.18  -0.14  -0.10
   6   6    -0.14  -0.19  -0.06    -0.16   0.25   0.12     0.32  -0.22   0.05
   7   1     0.06  -0.10  -0.05    -0.05   0.04   0.07     0.19  -0.16   0.06
   8   6    -0.00   0.11   0.05    -0.29  -0.43  -0.06     0.04   0.19  -0.03
   9   1     0.01   0.10   0.01     0.02  -0.19  -0.01    -0.05   0.17  -0.00
  10   8     0.03   0.13   0.01     0.38   0.22   0.04     0.28  -0.03  -0.16
  11   8     0.09  -0.03  -0.05     0.07   0.01  -0.01    -0.06  -0.01   0.00
  12   8    -0.02   0.00   0.13     0.01  -0.03  -0.15     0.01   0.02  -0.06
  13   8     0.00  -0.02   0.02     0.01   0.01  -0.04    -0.07   0.01   0.01
  14   8     0.02   0.02   0.32    -0.01   0.01   0.08    -0.03   0.01   0.02
  15   1    -0.03   0.38  -0.14    -0.03   0.06   0.00     0.02  -0.01   0.02
  16   1     0.03  -0.20   0.34     0.16  -0.14   0.06    -0.18   0.06   0.05
  17   1     0.03   0.00  -0.01     0.04  -0.02  -0.01    -0.02   0.01   0.00
  18   1     0.05   0.04  -0.10     0.01  -0.02  -0.03    -0.06  -0.02   0.12
  19   1    -0.00  -0.01  -0.00    -0.01   0.00  -0.03     0.11   0.05   0.38
  20   1    -0.02  -0.00   0.01    -0.01  -0.01   0.07    -0.01   0.00   0.01
                     25                     26                     27
                        a                      a                      a 
 Frequencies --  1080.7723              1099.2762              1110.2141
 Red. masses --     2.9396                 2.6068                 4.6386
 Frc consts  --     0.0000                 0.0000                 0.0000
 IR Inten    --    56.1767                81.1357               122.6891
 Raman Activ --     0.0000                 0.0000                 0.0000
 Depolar     --     0.0000                 0.0000                 0.0000
 Atom AN      X      Y      Z        X      Y      Z        X      Y      Z
   1   6     0.13  -0.12  -0.02    -0.24   0.23   0.31    -0.23   0.04  -0.01
   2   6     0.05   0.03  -0.24    -0.06  -0.30  -0.27     0.04  -0.03   0.28
   3   1     0.01  -0.02  -0.06    -0.09  -0.18  -0.23     0.01  -0.15   0.11
   4   6    -0.07   0.00  -0.07     0.11   0.08  -0.04     0.02   0.15   0.54
   5   1     0.25   0.10  -0.06     0.14   0.11   0.04     0.00   0.03   0.11
   6   6    -0.00  -0.09   0.47    -0.07   0.04   0.01    -0.10  -0.04   0.23
   7   1    -0.18   0.04   0.23    -0.04   0.04  -0.02     0.11  -0.07  -0.01
   8   6     0.16   0.14  -0.16     0.02   0.02  -0.00     0.04   0.07  -0.04
   9   1     0.19  -0.17  -0.04    -0.02  -0.00   0.00     0.14  -0.06  -0.02
  10   8    -0.15  -0.02   0.07     0.33  -0.10  -0.23     0.17   0.02  -0.06
  11   8    -0.21   0.04   0.10    -0.05  -0.02   0.02    -0.08  -0.00   0.04
  12   8     0.02   0.01  -0.43    -0.01  -0.01   0.02     0.04   0.00  -0.19
  13   8     0.01   0.01   0.03     0.05   0.02   0.06     0.01  -0.08  -0.43
  14   8    -0.01   0.03   0.19     0.01   0.04   0.29     0.00  -0.06  -0.23
  15   1    -0.02   0.01  -0.00    -0.18  -0.12   0.10     0.01   0.04  -0.01
  16   1     0.07  -0.06   0.01    -0.12   0.14  -0.17    -0.15   0.05   0.07
  17   1     0.15  -0.04   0.00    -0.04   0.01   0.01     0.08  -0.01   0.00
  18   1    -0.03  -0.05   0.03     0.02   0.01  -0.03     0.03  -0.00  -0.08
  19   1     0.04   0.01   0.11    -0.05  -0.02  -0.15    -0.00  -0.02  -0.12
  20   1    -0.02   0.00   0.02    -0.07   0.03  -0.22     0.00  -0.01  -0.04
                     28                     29                     30
                        a                      a                      a 
 Frequencies --  1120.2559              1134.8326              1183.3967
 Red. masses --     3.0728                 2.0165                 1.4193
 Frc consts  --     0.0000                 0.0000                 0.0000
 IR Inten    --    18.5107               180.3207                29.4264
 Raman Activ --     0.0000                 0.0000                 0.0000
 Depolar     --     0.0000                 0.0000                 0.0000
 Atom AN      X      Y      Z        X      Y      Z        X      Y      Z
   1   6     0.26  -0.05   0.05    -0.05   0.03   0.02     0.10   0.12  -0.15
   2   6    -0.00   0.11  -0.41    -0.01  -0.04   0.03    -0.10  -0.19   0.20
   3   1    -0.06   0.08  -0.26     0.00   0.11  -0.01    -0.11   0.36  -0.31
   4   6    -0.14  -0.08   0.44     0.01   0.04  -0.08     0.10   0.07  -0.08
   5   1    -0.07   0.02   0.18    -0.20  -0.09  -0.02    -0.04  -0.13  -0.17
   6   6     0.06   0.02  -0.08     0.02  -0.01  -0.22    -0.12   0.01   0.22
   7   1     0.22  -0.05  -0.19     0.12   0.01  -0.24     0.21  -0.07  -0.14
   8   6     0.06   0.05   0.03     0.37  -0.09  -0.16    -0.14   0.15   0.10
   9   1    -0.07   0.05   0.01     0.41  -0.27  -0.07     0.10  -0.03   0.02
  10   8    -0.21  -0.07   0.03     0.05   0.00  -0.01    -0.10  -0.07   0.07
  11   8     0.03  -0.00  -0.01    -0.44   0.10   0.20     0.09  -0.02  -0.07
  12   8    -0.00  -0.00   0.10    -0.03   0.01   0.22    -0.03  -0.01  -0.06
  13   8    -0.02  -0.01  -0.34    -0.01   0.00   0.07    -0.00  -0.03   0.05
  14   8    -0.04   0.04   0.26     0.00   0.01  -0.02     0.05  -0.05   0.05
  15   1    -0.01  -0.09   0.03    -0.08   0.02   0.00     0.27  -0.10  -0.04
  16   1     0.15  -0.05  -0.08     0.09  -0.05  -0.03    -0.06   0.07  -0.02
  17   1    -0.06   0.01   0.00     0.21  -0.04   0.02     0.14  -0.03  -0.02
  18   1     0.05   0.03  -0.10     0.04   0.05  -0.10     0.08   0.04  -0.22
  19   1     0.04   0.02   0.04    -0.00   0.01   0.01     0.02   0.01   0.07
  20   1    -0.04  -0.01   0.06    -0.00  -0.01   0.04    -0.07   0.04  -0.38
                     31                     32                     33
                        a                      a                      a 
 Frequencies --  1186.0360              1198.0002              1205.4303
 Red. masses --     1.1778                 1.3535                 1.3710
 Frc consts  --     0.0000                 0.0000                 0.0000
 IR Inten    --     8.6801                40.2564                 1.5680
 Raman Activ --     0.0000                 0.0000                 0.0000
 Depolar     --     0.0000                 0.0000                 0.0000
 Atom AN      X      Y      Z        X      Y      Z        X      Y      Z
   1   6     0.02  -0.01  -0.10    -0.03   0.16   0.02    -0.06  -0.07  -0.10
   2   6     0.03   0.01   0.11     0.00  -0.13   0.20     0.05   0.05   0.13
   3   1    -0.08   0.15  -0.28     0.02   0.24   0.01    -0.07  -0.06  -0.18
   4   6    -0.03   0.08   0.04     0.10   0.14   0.07    -0.04  -0.01   0.14
   5   1    -0.27   0.03   0.22     0.04  -0.07  -0.16     0.37   0.14  -0.04
   6   6    -0.03  -0.08  -0.17    -0.09   0.00   0.10     0.12   0.01  -0.23
   7   1    -0.11  -0.15   0.35    -0.07   0.04   0.03    -0.32   0.30  -0.13
   8   6     0.21  -0.05  -0.04     0.27  -0.02  -0.16     0.02  -0.24  -0.10
   9   1     0.01   0.14  -0.01    -0.30   0.12  -0.01     0.02   0.01  -0.02
  10   8    -0.07   0.02   0.04    -0.04  -0.12  -0.08     0.04   0.12   0.10
  11   8    -0.09   0.02   0.06    -0.02  -0.03   0.08    -0.07   0.05   0.05
  12   8     0.08   0.03  -0.06     0.00  -0.01  -0.04     0.02   0.01   0.12
  13   8     0.06   0.00   0.00    -0.06  -0.04  -0.07    -0.10  -0.01  -0.14
  14   8    -0.00  -0.05   0.07     0.02  -0.03  -0.07     0.02  -0.06   0.06
  15   1     0.11   0.00  -0.03    -0.34   0.11   0.02     0.22  -0.01  -0.05
  16   1     0.02  -0.02   0.03     0.41  -0.18  -0.09    -0.11   0.02   0.08
  17   1    -0.06   0.02   0.01    -0.33   0.07   0.04    -0.04   0.01   0.01
  18   1    -0.16  -0.10   0.43     0.02  -0.00  -0.05    -0.02   0.01   0.07
  19   1    -0.10  -0.03  -0.35     0.06   0.02   0.21     0.10   0.04   0.35
  20   1    -0.03   0.04  -0.26    -0.00   0.01  -0.09    -0.05   0.04  -0.31
                     34                     35                     36
                        a                      a                      a 
 Frequencies --  1241.1352              1264.9625              1287.9903
 Red. masses --     1.6871                 1.5811                 1.2070
 Frc consts  --     0.0000                 0.0000                 0.0000
 IR Inten    --    43.3490                32.7734                39.8460
 Raman Activ --     0.0000                 0.0000                 0.0000
 Depolar     --     0.0000                 0.0000                 0.0000
 Atom AN      X      Y      Z        X      Y      Z        X      Y      Z
   1   6    -0.04  -0.08  -0.05    -0.02  -0.06  -0.02    -0.05   0.07  -0.00
   2   6    -0.02  -0.03  -0.11     0.11   0.25   0.19     0.06   0.02  -0.07
   3   1     0.01  -0.06   0.03    -0.10  -0.17  -0.25    -0.12  -0.29  -0.31
   4   6    -0.01  -0.01  -0.09    -0.25   0.01  -0.07     0.21   0.23   0.18
   5   1    -0.07  -0.04  -0.03    -0.13  -0.02   0.01    -0.16  -0.40  -0.47
   6   6    -0.06   0.11   0.24     0.30  -0.18   0.21     0.01  -0.04  -0.07
   7   1     0.13  -0.02  -0.05    -0.13   0.28  -0.28    -0.19   0.06   0.13
   8   6     0.31  -0.26  -0.29    -0.06   0.07  -0.08    -0.03  -0.02   0.05
   9   1    -0.16   0.29  -0.06    -0.18  -0.11   0.00     0.04   0.07   0.01
  10   8    -0.00   0.16   0.13     0.02  -0.02   0.01    -0.02  -0.02   0.00
  11   8    -0.08   0.01   0.14     0.02   0.00  -0.02    -0.01   0.01  -0.02
  12   8    -0.06  -0.04  -0.02    -0.05   0.01   0.01     0.01  -0.00  -0.01
  13   8     0.05   0.00   0.07     0.12  -0.01   0.10    -0.00  -0.07   0.01
  14   8    -0.01   0.03   0.01    -0.02  -0.04  -0.01    -0.10   0.06  -0.01
  15   1     0.32  -0.12  -0.02    -0.13   0.11  -0.01     0.15  -0.12   0.01
  16   1    -0.26   0.11   0.06     0.12  -0.09   0.03     0.07  -0.04   0.00
  17   1    -0.33   0.09   0.06    -0.02  -0.01  -0.01     0.07  -0.02  -0.01
  18   1     0.10   0.03  -0.24     0.07   0.06  -0.19    -0.02   0.00   0.03
  19   1    -0.03  -0.01  -0.13    -0.10  -0.04  -0.38     0.02  -0.00   0.04
  20   1     0.01  -0.01   0.10    -0.04  -0.00  -0.11     0.02  -0.04   0.32
                     37                     38                     39
                        a                      a                      a 
 Frequencies --  1298.6386              1306.0899              1312.5888
 Red. masses --     1.2960                 1.4114                 1.3081
 Frc consts  --     0.0000                 0.0000                 0.0000
 IR Inten    --    14.7270                 0.3081                62.9884
 Raman Activ --     0.0000                 0.0000                 0.0000
 Depolar     --     0.0000                 0.0000                 0.0000
 Atom AN      X      Y      Z        X      Y      Z        X      Y      Z
   1   6     0.12  -0.15  -0.02     0.12  -0.02  -0.02    -0.33   0.17  -0.01
   2   6     0.05   0.15   0.15    -0.07  -0.31  -0.08     0.04   0.09  -0.10
   3   1    -0.12  -0.18  -0.28     0.04   0.28   0.03     0.06  -0.13   0.17
   4   6    -0.04  -0.11  -0.01     0.10   0.19   0.06    -0.03  -0.05  -0.03
   5   1     0.22  -0.04  -0.20    -0.23  -0.00   0.14    -0.00   0.02   0.04
   6   6    -0.18   0.17  -0.16     0.15  -0.21  -0.05     0.01  -0.01  -0.08
   7   1     0.27  -0.28   0.13    -0.26   0.15   0.04     0.04  -0.08   0.08
   8   6     0.06   0.13  -0.10    -0.02   0.16  -0.12    -0.02   0.23  -0.07
   9   1    -0.07  -0.43  -0.00    -0.25  -0.45   0.01    -0.03  -0.39   0.00
  10   8     0.03   0.08   0.06     0.05   0.08   0.12     0.02  -0.06   0.09
  11   8     0.06  -0.05   0.06     0.05  -0.02   0.00     0.08  -0.05   0.04
  12   8     0.01  -0.01   0.03    -0.02   0.01   0.02    -0.02  -0.01   0.03
  13   8     0.01  -0.01   0.05    -0.03  -0.00  -0.06    -0.00   0.01   0.02
  14   8    -0.04  -0.01  -0.00    -0.02   0.06  -0.02     0.03  -0.02   0.03
  15   1    -0.21   0.16  -0.01     0.01  -0.02   0.00     0.46  -0.26   0.00
  16   1    -0.20   0.09   0.04    -0.30   0.18  -0.01     0.36  -0.21   0.02
  17   1    -0.25   0.06   0.04    -0.13   0.01   0.01    -0.23   0.06   0.04
  18   1    -0.01  -0.01   0.02     0.01   0.00  -0.02     0.01   0.00  -0.03
  19   1     0.00  -0.01   0.00     0.01   0.01   0.05    -0.00   0.01  -0.01
  20   1    -0.01  -0.00   0.01     0.03  -0.01   0.19    -0.01   0.02  -0.12
                     40                     41                     42
                        a                      a                      a 
 Frequencies --  1330.1484              1335.0877              1349.0579
 Red. masses --     1.2882                 1.3943                 1.2638
 Frc consts  --     0.0000                 0.0000                 0.0000
 IR Inten    --    37.4274                82.9782               123.8638
 Raman Activ --     0.0000                 0.0000                 0.0000
 Depolar     --     0.0000                 0.0000                 0.0000
 Atom AN      X      Y      Z        X      Y      Z        X      Y      Z
   1   6     0.06  -0.09   0.05    -0.10   0.14  -0.06     0.06   0.00   0.01
   2   6    -0.15   0.14  -0.22     0.21  -0.30   0.11     0.00  -0.07  -0.01
   3   1     0.09   0.05   0.32    -0.01   0.16  -0.22     0.02   0.12   0.02
   4   6    -0.03   0.08   0.14    -0.21  -0.04  -0.03    -0.11   0.05   0.06
   5   1    -0.02  -0.24  -0.35     0.30   0.17  -0.00     0.04  -0.01  -0.07
   6   6    -0.17  -0.11   0.06    -0.13  -0.03   0.05     0.13  -0.06  -0.02
   7   1     0.06   0.10  -0.39     0.13   0.05  -0.33    -0.09   0.06   0.02
   8   6     0.01   0.01  -0.05    -0.00  -0.02   0.00    -0.29   0.07  -0.12
   9   1    -0.06  -0.08  -0.00    -0.05  -0.01   0.01     0.65   0.13  -0.12
  10   8     0.02   0.04   0.02    -0.00  -0.01   0.03    -0.03  -0.05  -0.06
  11   8     0.02  -0.01   0.01     0.01  -0.00  -0.01     0.18  -0.07   0.15
  12   8     0.15   0.09  -0.05     0.12   0.07  -0.04    -0.02   0.00   0.02
  13   8     0.06  -0.04   0.05     0.05   0.01   0.04     0.03  -0.01   0.02
  14   8     0.07  -0.06   0.08    -0.10   0.10  -0.10    -0.01   0.01  -0.01
  15   1    -0.02   0.00   0.01     0.13  -0.08  -0.01    -0.07   0.05  -0.01
  16   1    -0.10   0.04   0.01     0.09  -0.03  -0.02    -0.01   0.02  -0.05
  17   1    -0.05   0.01   0.01     0.01  -0.01  -0.01    -0.49   0.16   0.10
  18   1    -0.15  -0.05   0.41    -0.13  -0.03   0.32     0.01   0.00  -0.02
  19   1    -0.03  -0.03  -0.12    -0.04  -0.02  -0.13    -0.03  -0.01  -0.10
  20   1    -0.01   0.04  -0.27     0.05  -0.04   0.44     0.01  -0.00   0.05
                     43                     44                     45
                        a                      a                      a 
 Frequencies --  1358.8479              1450.1999              2863.1055
 Red. masses --     1.5544                 1.0857                 1.0728
 Frc consts  --     0.0000                 0.0000                 0.0000
 IR Inten    --    64.4439                 1.2135                57.0858
 Raman Activ --     0.0000                 0.0000                 0.0000
 Depolar     --     0.0000                 0.0000                 0.0000
 Atom AN      X      Y      Z        X      Y      Z        X      Y      Z
   1   6    -0.00   0.02   0.00    -0.09  -0.17   0.19    -0.00  -0.00  -0.01
   2   6     0.01  -0.12  -0.07    -0.01  -0.01   0.01    -0.01  -0.01   0.01
   3   1     0.10   0.28   0.17    -0.00  -0.01   0.01     0.04  -0.00  -0.02
   4   6    -0.39   0.08   0.22     0.01   0.01   0.01     0.10  -0.20   0.12
   5   1     0.30  -0.04  -0.34    -0.01  -0.01  -0.00    -0.37   0.74  -0.50
   6   6     0.21   0.12  -0.20    -0.01  -0.00   0.00     0.01  -0.00   0.01
   7   1    -0.05  -0.07   0.29    -0.00  -0.00   0.01    -0.01  -0.01  -0.01
   8   6     0.06  -0.06   0.07     0.02   0.02   0.02    -0.00   0.00  -0.01
   9   1    -0.10  -0.01   0.03    -0.03  -0.01   0.01     0.00   0.00   0.03
  10   8     0.01   0.01   0.01    -0.03  -0.02   0.02     0.00  -0.00  -0.00
  11   8    -0.07   0.04  -0.04    -0.00   0.00  -0.01     0.00  -0.00  -0.00
  12   8    -0.08  -0.07   0.06     0.00   0.00  -0.00    -0.00   0.00  -0.00
  13   8     0.12  -0.04   0.06    -0.00  -0.00  -0.01     0.00  -0.00   0.01
  14   8     0.03  -0.01  -0.00    -0.00   0.00  -0.01     0.00   0.00  -0.00
  15   1     0.02  -0.02   0.00     0.36   0.57  -0.11     0.00   0.01   0.02
  16   1    -0.01   0.01  -0.01     0.06   0.07  -0.67     0.00  -0.00  -0.00
  17   1     0.15  -0.05  -0.03     0.02  -0.01  -0.00    -0.00   0.00  -0.00
  18   1     0.08   0.03  -0.22    -0.00   0.00   0.00     0.00  -0.00  -0.00
  19   1    -0.08  -0.05  -0.30    -0.00  -0.00   0.00     0.00   0.00  -0.00
  20   1    -0.00   0.00  -0.04    -0.00  -0.01   0.02    -0.00  -0.00   0.00
                     46                     47                     48
                        a                      a                      a 
 Frequencies --  2892.6872              2898.0554              2912.2221
 Red. masses --     1.0714                 1.0734                 1.0724
 Frc consts  --     0.0000                 0.0000                 0.0000
 IR Inten    --    44.2134                51.3403                41.7260
 Raman Activ --     0.0000                 0.0000                 0.0000
 Depolar     --     0.0000                 0.0000                 0.0000
 Atom AN      X      Y      Z        X      Y      Z        X      Y      Z
   1   6    -0.00  -0.00   0.00     0.01   0.00   0.04     0.03   0.05   0.24
   2   6    -0.00  -0.00   0.00     0.24  -0.03  -0.07    -0.04   0.01   0.02
   3   1     0.00  -0.00  -0.00    -0.89   0.09   0.31     0.15  -0.02  -0.05
   4   6     0.00  -0.01   0.01     0.02  -0.01   0.00    -0.00  -0.00   0.00
   5   1    -0.01   0.02  -0.02    -0.02   0.04  -0.03    -0.00   0.01  -0.01
   6   6    -0.01  -0.01   0.01    -0.00   0.00   0.00     0.00   0.00   0.00
   7   1     0.02   0.03   0.02     0.00   0.00   0.00    -0.00  -0.00  -0.00
   8   6     0.02   0.00   0.25    -0.00   0.00  -0.00    -0.00   0.00  -0.01
   9   1    -0.10  -0.04  -0.96    -0.00  -0.00   0.00    -0.00  -0.00   0.02
  10   8     0.01   0.01   0.01    -0.00  -0.00   0.00    -0.01   0.00   0.01
  11   8    -0.01  -0.00   0.01     0.00  -0.00   0.00     0.00   0.00  -0.00
  12   8    -0.00  -0.00  -0.00     0.00   0.00  -0.00     0.00  -0.00  -0.00
  13   8    -0.00   0.00  -0.00    -0.00  -0.00   0.00     0.00   0.00  -0.00
  14   8    -0.00   0.00  -0.00    -0.00  -0.00  -0.01     0.00  -0.00   0.00
  15   1     0.00  -0.00  -0.02    -0.01  -0.03  -0.16    -0.08  -0.16  -0.93
  16   1     0.01   0.02   0.00     0.01   0.02   0.01    -0.01  -0.02   0.03
  17   1     0.00   0.00   0.01    -0.00   0.00  -0.00     0.00   0.00   0.00
  18   1     0.00   0.00  -0.00    -0.00  -0.00   0.00    -0.00   0.00  -0.00
  19   1     0.00  -0.00  -0.00     0.00   0.00   0.00    -0.00  -0.00  -0.00
  20   1    -0.00  -0.00  -0.00     0.01  -0.00  -0.00    -0.00  -0.00  -0.00
                     49                     50                     51
                        a                      a                      a 
 Frequencies --  2954.8802              2974.6867              3407.0720
 Red. masses --     1.0745                 1.0717                 1.0658
 Frc consts  --     0.0000                 0.0000                 0.0000
 IR Inten    --    27.3206                30.7437               103.8218
 Raman Activ --     0.0000                 0.0000                 0.0000
 Depolar     --     0.0000                 0.0000                 0.0000
 Atom AN      X      Y      Z        X      Y      Z        X      Y      Z
   1   6     0.01   0.01   0.00     0.12   0.22   0.04     0.00   0.00  -0.00
   2   6    -0.00   0.00   0.00     0.01   0.01   0.00     0.00   0.00   0.00
   3   1     0.00  -0.00  -0.00    -0.03   0.00   0.01    -0.00  -0.00  -0.00
   4   6    -0.00  -0.01  -0.00    -0.00  -0.00  -0.00     0.00   0.00  -0.00
   5   1    -0.00   0.01  -0.01     0.00   0.00   0.00     0.00  -0.00   0.00
   6   6    -0.15  -0.19  -0.09     0.01   0.01   0.00    -0.00  -0.00  -0.01
   7   1     0.53   0.71   0.37    -0.02  -0.03  -0.02     0.01   0.01   0.00
   8   6    -0.01  -0.01  -0.01    -0.00  -0.00   0.00     0.00   0.00  -0.00
   9   1     0.00   0.00   0.04    -0.00  -0.00  -0.02     0.00  -0.00   0.00
  10   8     0.00   0.00   0.00     0.01   0.00  -0.00    -0.00  -0.00  -0.00
  11   8     0.00   0.00  -0.00    -0.00  -0.00   0.00    -0.01   0.03  -0.10
  12   8     0.00   0.00  -0.01     0.00   0.00   0.00    -0.17  -0.09  -0.09
  13   8     0.00   0.00   0.00     0.00  -0.00  -0.00    -0.00  -0.00   0.00
  14   8    -0.00   0.00   0.00    -0.00  -0.00  -0.00     0.03  -0.03  -0.01
  15   1     0.00   0.00  -0.00     0.02   0.03   0.03    -0.00   0.00   0.00
  16   1    -0.02  -0.04  -0.01    -0.47  -0.82  -0.16    -0.00  -0.00   0.00
  17   1    -0.00  -0.00   0.00    -0.00   0.00  -0.00     0.01  -0.11   0.43
  18   1    -0.01  -0.01  -0.01    -0.00  -0.00  -0.00     0.68   0.35   0.37
  19   1    -0.00   0.00   0.00    -0.00   0.00  -0.00     0.00  -0.00  -0.00
  20   1     0.00  -0.00  -0.00     0.00   0.00  -0.00    -0.10   0.14   0.04
                     52                     53                     54
                        a                      a                      a 
 Frequencies --  3416.9573              3450.6307              3541.8048
 Red. masses --     1.0655                 1.0658                 1.0655
 Frc consts  --     0.0000                 0.0000                 0.0000
 IR Inten    --    60.8364                59.7591                13.7862
 Raman Activ --     0.0000                 0.0000                 0.0000
 Depolar     --     0.0000                 0.0000                 0.0000
 Atom AN      X      Y      Z        X      Y      Z        X      Y      Z
   1   6     0.00   0.00   0.00     0.00  -0.00  -0.00     0.00  -0.00   0.00
   2   6     0.00   0.00   0.00    -0.00   0.00   0.01    -0.00  -0.00   0.00
   3   1    -0.00  -0.00  -0.00     0.01   0.00  -0.00    -0.00  -0.00  -0.00
   4   6     0.00   0.00   0.00    -0.00   0.00   0.00     0.00  -0.00  -0.00
   5   1     0.00  -0.00   0.00     0.00  -0.00   0.00    -0.00   0.00  -0.00
   6   6    -0.00  -0.00  -0.00    -0.00  -0.00  -0.00    -0.00   0.00  -0.00
   7   1     0.00   0.01   0.00     0.00   0.00   0.00    -0.00  -0.00  -0.00
   8   6    -0.01   0.00   0.01    -0.00  -0.00  -0.00     0.00   0.00   0.00
   9   1    -0.00  -0.00  -0.00     0.00   0.00   0.00    -0.00   0.00  -0.00
  10   8     0.00  -0.00  -0.00     0.00   0.00   0.00    -0.00  -0.00   0.00
  11   8     0.01  -0.06   0.20     0.00  -0.00   0.00    -0.00  -0.00   0.00
  12   8    -0.09  -0.04  -0.04    -0.04  -0.02  -0.02    -0.00  -0.00  -0.00
  13   8    -0.00   0.00   0.00    -0.00  -0.00  -0.00     0.22  -0.06  -0.06
  14   8     0.01  -0.02  -0.01    -0.13   0.19   0.04    -0.00   0.00   0.00
  15   1     0.00   0.00  -0.00    -0.00  -0.00  -0.00     0.00  -0.00  -0.00
  16   1     0.00  -0.00  -0.00     0.00  -0.00   0.00    -0.00   0.00   0.00
  17   1    -0.02   0.22  -0.83    -0.00   0.00  -0.00    -0.00   0.00  -0.00
  18   1     0.34   0.18   0.19     0.16   0.08   0.08     0.00   0.00   0.00
  19   1     0.00  -0.00  -0.00     0.00  -0.00  -0.00    -0.90   0.25   0.27
  20   1    -0.05   0.07   0.02     0.52  -0.77  -0.20     0.00   0.00   0.00
