14
 energy: -307.632151653162 gnorm: 0.028387831027 xtb: 6.7.1 (41059b4)
C           -2.22221805748472        0.33852215435001        0.65786548109152
C           -1.31126814488106        0.47858595071207       -0.56306985624951
C            0.00468400880208       -0.20937763289278       -0.28500405682629
O            0.19462562538624       -1.39524432161827       -0.33511728854850
O            0.94901026812053        0.67622018449965        0.05837846232587
C            2.22438631248568        0.14171014596280        0.38517762247068
H           -2.37130600395079       -0.71229198151564        0.89400569969616
H           -1.77990265418872        0.83096859446822        1.52079398727390
H           -3.18907537471316        0.79265505035125        0.45651945390230
H           -1.12625967069908        1.52987924477793       -0.78073493124596
H           -1.77642389718718       -0.00248312550110       -1.42403447393103
H            2.60761740795550       -0.45610139050211       -0.44401776539676
H            2.15333372985420       -0.49271197461833        1.27086791106316
H            2.87248281247287        0.99289490233998        0.57613105525530
14
 energy: -307.632856592473 gnorm: 0.010748458668 xtb: 6.7.1 (41059b4)
C           -2.22579814362541        0.33872075083349        0.66130375254672
C           -1.31311619132351        0.48051380881634       -0.56388675993156
C            0.00713490202517       -0.20272272266279       -0.30212663072030
O            0.19451730556896       -1.39702780247240       -0.33614185998812
O            0.95374396854727        0.69048810950813        0.05071259793378
C            2.23092796349663        0.13713125706839        0.38691585072694
H           -2.37717581312913       -0.71549137475593        0.90234138293583
H           -1.78736042458829        0.83394683306552        1.53081211523764
H           -3.19902265919890        0.79221918179212        0.46371616429467
H           -1.14056895034892        1.53387453203751       -0.79434260088921
H           -1.77121829731541       -0.00753631358122       -1.42735089525241
H            2.62127647907360       -0.46038747390579       -0.44138826110830
H            2.15536386369511       -0.49927637871344        1.27323035262282
H            2.88098237877605        0.98877351111065        0.58396597278831
14
 energy: -307.632993701238 gnorm: 0.005195547959 xtb: 6.7.1 (41059b4)
C           -2.22978251358950        0.33735672716004        0.66135002378987
C           -1.31446681884179        0.48158853142017       -0.56369640726114
C            0.00474993276370       -0.19690488921652       -0.29225434759060
O            0.19609966666997       -1.39193404190252       -0.33567125532953
O            0.95901806235397        0.70218475550797        0.04960816648803
C            2.23912849633002        0.13347866368463        0.38528407365123
H           -2.38191777882255       -0.71829056248029        0.90496730711504
H           -1.79491740164007        0.83489547511982        1.53429400961873
H           -3.20530343332732        0.79062255640696        0.46247181137053
H           -1.15141518063627        1.53632875825312       -0.80121524021960
H           -1.76622952813628       -0.01174392614661       -1.42944489688794
H            2.62622920185637       -0.46420664423543       -0.44478743189531
H            2.15580228564425       -0.50343623646241        1.27134600402642
H            2.89269126609327        0.98328602776447        0.58550895217138
14
 energy: -307.633022230139 gnorm: 0.001789689916 xtb: 6.7.1 (41059b4)
C           -2.23128639583628        0.33737698528245        0.66146444230719
C           -1.31462010023996        0.48098990543244       -0.56227326336730
C            0.00688880435488       -0.19376470622970       -0.29523047540318
O            0.19752943883498       -1.38791282226747       -0.33213017333660
O            0.96214376591239        0.70629153521144        0.04688954029770
C            2.24188800273124        0.13231832186203        0.38534444527564
H           -2.38260983741543       -0.71803767107035        0.90481166774738
H           -1.79699929965421        0.83537927977741        1.53395918633004
H           -3.20671153516833        0.78991911516457        0.46173053934664
H           -1.15519097467630        1.53560475580236       -0.80199062640739
H           -1.76647060028039       -0.01522844588206       -1.42625568091097
H            2.62668596850922       -0.46345048842359       -0.44661220008362
H            2.15173751986914       -0.50630815366013        1.26894170074439
H            2.89670146574190        0.98004739984448        0.58911163039129
14
 energy: -307.633030072799 gnorm: 0.001317999816 xtb: 6.7.1 (41059b4)
C           -2.23195778507514        0.33721992372764        0.66127001310661
C           -1.31436681634005        0.48121465058110       -0.56108890795949
C            0.00757675999494       -0.19168392090499       -0.29250049213920
O            0.19829566994232       -1.38497610191001       -0.32498454224226
O            0.96398221880893        0.70925877864545        0.04487285250875
C            2.24331803280957        0.13178407000896        0.38393106799332
H           -2.38277088159938       -0.71767542407523        0.90384309046726
H           -1.79977177573847        0.83539306989303        1.53372641496148
H           -3.20638952475310        0.78880966142336        0.45868882093541
H           -1.15672052722611        1.53536706958037       -0.80164376203341
H           -1.76474693220172       -0.01773304413396       -1.42388272423584
H            2.62639022870675       -0.46087467592903       -0.45036698727495
H            2.14797340651269       -0.51000084323108        1.26379047059616
H            2.89887407780095        0.97712139634497        0.59210541693139
14
 energy: -307.633034989103 gnorm: 0.000859205185 xtb: 6.7.1 (41059b4)
C           -2.23285964395794        0.33728884902158        0.66088390519527
C           -1.31393782724926        0.48162853467833       -0.56045270495993
C            0.00768692986007       -0.19121185721050       -0.28962800380179
O            0.19750891347647       -1.38498449898591       -0.31797227281347
O            0.96497815190356        0.71003846265411        0.04298949214481
C            2.24384581899179        0.13176246673308        0.38227910253545
H           -2.38326262032816       -0.71772259502183        0.90323817280817
H           -1.80208718453524        0.83573117666237        1.53383764129291
H           -3.20729383717167        0.78821305526535        0.45695626921836
H           -1.15626137184271        1.53560378971421       -0.80132443804871
H           -1.76309410259500       -0.01808359987539       -1.42338947021167
H            2.62838854495833       -0.45785428941812       -0.45353282117322
H            2.14708308942324       -0.51347881913427        1.25932252520448
H            2.89899122169560        0.97629357603102        0.59455340802652
14
 energy: -307.633034989103 gnorm: 0.000859205185 xtb: 6.7.1 (41059b4)
C           -2.23285964395794        0.33728884902158        0.66088390519527
C           -1.31393782724926        0.48162853467833       -0.56045270495993
C            0.00768692986007       -0.19121185721050       -0.28962800380179
O            0.19750891347647       -1.38498449898591       -0.31797227281347
O            0.96497815190356        0.71003846265411        0.04298949214481
C            2.24384581899179        0.13176246673308        0.38227910253545
H           -2.38326262032816       -0.71772259502183        0.90323817280817
H           -1.80208718453524        0.83573117666237        1.53383764129291
H           -3.20729383717167        0.78821305526535        0.45695626921836
H           -1.15626137184271        1.53560378971421       -0.80132443804871
H           -1.76309410259500       -0.01808359987539       -1.42338947021167
H            2.62838854495833       -0.45785428941812       -0.45353282117322
H            2.14708308942324       -0.51347881913427        1.25932252520448
H            2.89899122169560        0.97629357603102        0.59455340802652
