      -----------------------------------------------------------      
     |                   =====================                   |     
     |                           x T B                           |     
     |                   =====================                   |     
     |                         S. Grimme                         |     
     |          Mulliken Center for Theoretical Chemistry        |     
     |                    University of Bonn                     |     
      -----------------------------------------------------------      

   * xtb version 6.7.1 (41059b4) compiled by 'michael@archlinux' on 2025-03-24

   xtb is free software: you can redistribute it and/or modify it under
   the terms of the GNU Lesser General Public License as published by
   the Free Software Foundation, either version 3 of the License, or
   (at your option) any later version.
   
   xtb is distributed in the hope that it will be useful,
   but WITHOUT ANY WARRANTY; without even the implied warranty of
   MERCHANTABILITY or FITNESS FOR A PARTICULAR PURPOSE.  See the
   GNU Lesser General Public License for more details.
   
   Cite this work as:
   * C. Bannwarth, E. Caldeweyher, S. Ehlert, A. Hansen, P. Pracht,
     J. Seibert, S. Spicher, S. Grimme, WIREs Comput. Mol. Sci., 2020, 11,
     e01493. DOI: 10.1002/wcms.1493
   
   for GFN2-xTB:
   * C. Bannwarth, S. Ehlert and S. Grimme., J. Chem. Theory Comput., 2019,
     15, 1652-1671. DOI: 10.1021/acs.jctc.8b01176
   for GFN1-xTB:
   * S. Grimme, C. Bannwarth, P. Shushkov, J. Chem. Theory Comput., 2017,
     13, 1989-2009. DOI: 10.1021/acs.jctc.7b00118
   for GFN0-xTB:
   * P. Pracht, E. Caldeweyher, S. Ehlert, S. Grimme, ChemRxiv, 2019, preprint.
     DOI: 10.26434/chemrxiv.8326202.v1
   for GFN-FF:
   * S. Spicher and S. Grimme, Angew. Chem. Int. Ed., 2020, 59, 15665-15673.
     DOI: 10.1002/anie.202004239
   
   for ALPB and GBSA implicit solvation:
   * S. Ehlert, M. Stahn, S. Spicher, S. Grimme, J. Chem. Theory Comput.,
     2021, 17, 4250-4261. DOI: 10.1021/acs.jctc.1c00471
   
   for ddCOSMO and CPCM-X implicit solvation:
   * M. Stahn, S. Ehlert, S. Grimme, J. Phys. Chem. A,
     2023, XX, XXXX-XXXX. DOI: 10.1021/acs.jpca.3c04382
   
   for DFT-D4:
   * E. Caldeweyher, C. Bannwarth and S. Grimme, J. Chem. Phys., 2017,
     147, 034112. DOI: 10.1063/1.4993215
   * E. Caldeweyher, S. Ehlert, A. Hansen, H. Neugebauer, S. Spicher,
     C. Bannwarth and S. Grimme, J. Chem. Phys., 2019, 150, 154122.
     DOI: 10.1063/1.5090222
   * E. Caldeweyher, J.-M. Mewes, S. Ehlert and S. Grimme, Phys. Chem. Chem. Phys.
     2020, 22, 8499-8512. DOI: 10.1039/D0CP00502A
   
   for sTDA-xTB:
   * S. Grimme and C. Bannwarth, J. Chem. Phys., 2016, 145, 054103.
     DOI: 10.1063/1.4959605
   
   in the mass-spec context:
   * V. Asgeirsson, C. Bauer and S. Grimme, Chem. Sci., 2017, 8, 4879.
     DOI: 10.1039/c7sc00601b
   * J. Koopman and S. Grimme, ACS Omega 2019, 4, 12, 15120-15133.
     DOI: 10.1021/acsomega.9b02011
   
   for metadynamics refer to:
   * S. Grimme, J. Chem. Theory Comput., 2019, 155, 2847-2862
     DOI: 10.1021/acs.jctc.9b00143
   
   for SPH calculations refer to:
   * S. Spicher and S. Grimme, J. Chem. Theory Comput., 2021, 17, 1701-1714
     DOI: 10.1021/acs.jctc.0c01306
   
   for ONIOM refer to:
   * C. Plett, A. Katbashev, S. Ehlert, S. Grimme, M. Bursch,
     Phys. Chem. Chem. Phys., 2023, 25, 17860-17868. DOI: 10.1039/D3CP02178E
   
   for DIPRO refer to:
   * J. Kohn, N. Gildemeister, S. Grimme, D. Fazzi, A. Hansen,
     J. Chem. Phys., 2023, just accepted.
   
   for PTB refer to:
   * S. Grimme, M. Mueller, A. Hansen, J. Chem. Phys., 2023, 158, 124111.
     DOI: 10.1063/5.0137838
   
   with help from (in alphabetical order)
   P. Atkinson, C. Bannwarth, F. Bohle, G. Brandenburg, E. Caldeweyher
   M. Checinski, S. Dohm, S. Ehlert, S. Ehrlich, I. Gerasimov, C. Hölzer
   A. Katbashev, J. Kohn, J. Koopman, C. Lavigne, S. Lehtola, F. März, M. Müller,
   F. Musil, H. Neugebauer, J. Pisarek, C. Plett, P. Pracht, F. Pultar,
   J. Seibert, P. Shushkov, S. Spicher, M. Stahn, M. Steiner, T. Strunk,
   J. Stückrath, T. Rose, and J. Unsleber
   
 * started run on 2025/04/09 at 03:06:53.217     
   ID    Z sym.   atoms
    1    6 C      1, 2, 4
    2   16 S      3
    3    1 H      5-12

           -------------------------------------------------
          |                Calculation Setup                |
           -------------------------------------------------

          program call               : /usr/bin/xtb xtb_rrho.coord --gfn2 --ohess vtight --chrg 0 --enso --norestart -I rrho-xcontrol-inp --parallel 1
          coordinate file            : xtb_rrho.coord
          omp threads                :                     1


           -------------------------------------------------
          |                 G F N 2 - x T B                 |
           -------------------------------------------------

        Reference                      10.1021/acs.jctc.8b01176
      * Hamiltonian:
        H0-scaling (s, p, d)           1.850000    2.230000    2.230000
        zeta-weighting                 0.500000
      * Dispersion:
        s8                             2.700000
        a1                             0.520000
        a2                             5.000000
        s9                             5.000000
      * Repulsion:
        kExp                           1.500000    1.000000
        rExp                           1.000000
      * Coulomb:
        alpha                          2.000000
        third order                    shell-resolved
        anisotropic                    true
        a3                             3.000000
        a5                             4.000000
        cn-shift                       1.200000
        cn-exp                         4.000000
        max-rad                        5.000000


          ...................................................
          :                      SETUP                      :
          :.................................................:
          :  # basis functions                  30          :
          :  # atomic orbitals                  29          :
          :  # shells                           17          :
          :  # electrons                        26          :
          :  max. iterations                   250          :
          :  Hamiltonian                  GFN2-xTB          :
          :  restarted?                      false          :
          :  GBSA solvation                  false          :
          :  PC potential                    false          :
          :  electronic temp.          300.0000000     K    :
          :  accuracy                    1.0000000          :
          :  -> integral cutoff          0.2500000E+02      :
          :  -> integral neglect         0.1000000E-07      :
          :  -> SCF convergence          0.1000000E-05 Eh   :
          :  -> wf. convergence          0.1000000E-03 e    :
          :  Broyden damping             0.4000000          :
          :  net charge                          0          :
          :  unpaired electrons                  0          :
          ...................................................

 iter      E             dE          RMSdq      gap      omega  full diag
   1    -13.8554807 -0.138555E+02  0.417E+00    5.10       0.0  T
   2    -13.8923078 -0.368271E-01  0.230E+00    4.51       1.0  T
   3    -13.8936967 -0.138894E-02  0.872E-01    4.38       1.0  T
   4    -13.8941804 -0.483674E-03  0.326E-01    4.26       1.0  T
   5    -13.8941894 -0.894559E-05  0.128E-01    4.26       1.0  T
   6    -13.8942140 -0.246279E-04  0.386E-02    4.26       1.0  T
   7    -13.8942148 -0.807172E-06  0.167E-02    4.26       1.7  T
   8    -13.8942149 -0.152527E-06  0.327E-03    4.26       8.8  T
   9    -13.8942150 -0.665915E-08  0.653E-04    4.26      44.2  T
  10    -13.8942150 -0.169742E-09  0.287E-04    4.26     100.7  T

   *** convergence criteria satisfied after 10 iterations ***

         #    Occupation            Energy/Eh            Energy/eV
      -------------------------------------------------------------
         1        2.0000           -0.7034490             -19.1418
       ...           ...                  ...                  ...
         7        2.0000           -0.4979190             -13.5491
         8        2.0000           -0.4894508             -13.3186
         9        2.0000           -0.4801091             -13.0644
        10        2.0000           -0.4663702             -12.6906
        11        2.0000           -0.4454266             -12.1207
        12        2.0000           -0.4352636             -11.8441
        13        2.0000           -0.3542891              -9.6407 (HOMO)
        14                         -0.1976758              -5.3790 (LUMO)
        15                         -0.1371042              -3.7308
        16                         -0.0024640              -0.0670
        17                          0.0069629               0.1895
        18                          0.0222990               0.6068
       ...                                ...                  ...
        29                          0.4042178              10.9993
      -------------------------------------------------------------
                  HL-Gap            0.1566132 Eh            4.2617 eV
             Fermi-level           -0.2759825 Eh           -7.5099 eV

 SCC (total)                   0 d,  0 h,  0 min,  0.004 sec
 SCC setup                      ...        0 min,  0.000 sec (  1.417%)
 Dispersion                     ...        0 min,  0.000 sec (  0.814%)
 classical contributions        ...        0 min,  0.000 sec (  0.287%)
 integral evaluation            ...        0 min,  0.001 sec ( 14.030%)
 iterations                     ...        0 min,  0.002 sec ( 52.008%)
 molecular gradient             ...        0 min,  0.001 sec ( 29.798%)
 printout                       ...        0 min,  0.000 sec (  1.447%)

         :::::::::::::::::::::::::::::::::::::::::::::::::::::
         ::                     SUMMARY                     ::
         :::::::::::::::::::::::::::::::::::::::::::::::::::::
         :: total energy             -13.736171097837 Eh    ::
         :: gradient norm              0.018154246573 Eh/a0 ::
         :: HOMO-LUMO gap              4.261662226884 eV    ::
         ::.................................................::
         :: SCC energy               -13.894209266998 Eh    ::
         :: -> isotropic ES            0.004204593126 Eh    ::
         :: -> anisotropic ES          0.003000640382 Eh    ::
         :: -> anisotropic XC          0.011173356335 Eh    ::
         :: -> dispersion             -0.006191719139 Eh    ::
         :: repulsion energy           0.158038169160 Eh    ::
         :: add. restraining           0.000000000000 Eh    ::
         :: total charge               0.000000000000 e     ::
         :::::::::::::::::::::::::::::::::::::::::::::::::::::

      ----------------------------------------------------------- 
     |                   =====================                   |
     |                        A N C O P T                        |
     |                   =====================                   |
     |               Approximate Normal Coordinate               |
     |                Rational Function Optimizer                |
      ----------------------------------------------------------- 

          ...................................................
          :                      SETUP                      :
          :.................................................:
          :   optimization level         verytight          :
          :   max. optcycles                   240          :
          :   ANC micro-cycles                  20          :
          :   degrees of freedom                30          :
          :.................................................:
          :   RF solver                   davidson          :
          :   write xtbopt.log                true          :
          :   linear?                        false          :
          :   energy convergence         0.1000000E-06 Eh   :
          :   grad. convergence          0.2000000E-03 Eh/α :
          :   maximum RF displ.          1.0000000          :
          :   Hlow (freq-cutoff)         0.1000000E-01      :
          :   Hmax (freq-cutoff)         5.0000000          :
          :   S6 in model hess.         20.0000000          :
          ...................................................

generating ANC from exact Hessian ...
Using Lindh-Hessian (1995)
 Shifting diagonal of input Hessian by    8.0390031748848335E-003
 Lowest  eigenvalues of input Hessian
    0.000000    0.000000    0.000000    0.000000    0.000000    0.000000
    0.010000    0.011748    0.012927    0.019281    0.027021    0.045331
    0.051723    0.056909    0.057637    0.073346    0.080322    0.095066
 Highest eigenvalues
    1.024172    1.081345    1.085799    1.111485    1.138932    1.220779


........................................................................
.............................. CYCLE    1 ..............................
........................................................................

 iter      E             dE          RMSdq      gap      omega  full diag
   1    -13.8942150 -0.138942E+02  0.524E-05    4.26       0.0  T
   2    -13.8942150 -0.252243E-11  0.293E-05    4.26     983.6  T
   3    -13.8942150 -0.291323E-12  0.153E-05    4.26    1881.0  T
     SCC iter.                  ...        0 min,  0.001 sec
     gradient                   ...        0 min,  0.001 sec
 * total energy  :   -13.7361711 Eh     change       -0.1016254E-09 Eh
   gradient norm :     0.0181553 Eh/α   predicted     0.0000000E+00 (-100.00%)
   displ. norm   :     0.1081135 α      lambda       -0.1398248E-02
   maximum displ.:     0.0395368 α      in ANC's #10, #4, #18, ...

........................................................................
.............................. CYCLE    2 ..............................
........................................................................

 iter      E             dE          RMSdq      gap      omega  full diag
   1    -13.9012833 -0.139013E+02  0.202E-01    4.38       0.0  T
   2    -13.9012886 -0.535019E-05  0.115E-01    4.37       1.0  T
   3    -13.9012893 -0.680393E-06  0.144E-02    4.37       2.0  T
   4    -13.9012898 -0.504504E-06  0.645E-03    4.37       4.5  T
   5    -13.9012898 -0.286790E-07  0.168E-03    4.37      17.2  T
   6    -13.9012898 -0.471935E-08  0.763E-04    4.37      37.8  T
   7    -13.9012898 -0.221338E-09  0.232E-04    4.37     124.2  T
     SCC iter.                  ...        0 min,  0.001 sec
     gradient                   ...        0 min,  0.001 sec
 * total energy  :   -13.7369246 Eh     change       -0.7534605E-03 Eh
   gradient norm :     0.0043691 Eh/α   predicted    -0.7072951E-03 (  -6.13%)
   displ. norm   :     0.0722856 α      lambda       -0.1387633E-03
   maximum displ.:     0.0478124 α      in ANC's #4, #3, #7, ...

........................................................................
.............................. CYCLE    3 ..............................
........................................................................

 iter      E             dE          RMSdq      gap      omega  full diag
   1    -13.9037293 -0.139037E+02  0.598E-02    4.35       0.0  T
   2    -13.9037310 -0.169674E-05  0.288E-02    4.35       1.0  T
   3    -13.9037311 -0.147362E-06  0.843E-03    4.34       3.4  T
   4    -13.9037312 -0.436251E-07  0.384E-03    4.34       7.5  T
   5    -13.9037312 -0.476180E-08  0.115E-03    4.34      25.0  T
   6    -13.9037312 -0.188172E-08  0.546E-04    4.34      52.9  T
   7    -13.9037312 -0.655778E-10  0.162E-04    4.34     177.7  T
     SCC iter.                  ...        0 min,  0.001 sec
     gradient                   ...        0 min,  0.001 sec
 * total energy  :   -13.7369905 Eh     change       -0.6593251E-04 Eh
   gradient norm :     0.0017128 Eh/α   predicted    -0.6974271E-04 (   5.78%)
   displ. norm   :     0.0339502 α      lambda       -0.1616274E-04
   maximum displ.:     0.0212238 α      in ANC's #4, #3, #5, ...

........................................................................
.............................. CYCLE    4 ..............................
........................................................................

 iter      E             dE          RMSdq      gap      omega  full diag
   1    -13.9038543 -0.139039E+02  0.408E-02    4.35       0.0  T
   2    -13.9038545 -0.212242E-06  0.204E-02    4.35       1.4  T
   3    -13.9038546 -0.463278E-07  0.341E-03    4.35       8.5  T
   4    -13.9038546 -0.555261E-09  0.584E-04    4.35      49.4  T
   5    -13.9038546 -0.626880E-09  0.145E-04    4.35     198.7  T
     SCC iter.                  ...        0 min,  0.001 sec
     gradient                   ...        0 min,  0.001 sec
 * total energy  :   -13.7370044 Eh     change       -0.1393160E-04 Eh
   gradient norm :     0.0007087 Eh/α   predicted    -0.8085881E-05 ( -41.96%)
   displ. norm   :     0.0293427 α      lambda       -0.4686664E-05
   maximum displ.:     0.0230859 α      in ANC's #4, #1, #3, ...

........................................................................
.............................. CYCLE    5 ..............................
........................................................................

 iter      E             dE          RMSdq      gap      omega  full diag
   1    -13.9035025 -0.139035E+02  0.276E-02    4.34       0.0  T
   2    -13.9035026 -0.126094E-06  0.131E-02    4.34       2.2  T
   3    -13.9035027 -0.269794E-07  0.200E-03    4.34      14.4  T
   4    -13.9035027 -0.106535E-08  0.988E-04    4.34      29.2  T
   5    -13.9035027 -0.109872E-08  0.180E-04    4.34     160.0  T
     SCC iter.                  ...        0 min,  0.001 sec
     gradient                   ...        0 min,  0.001 sec
 * total energy  :   -13.7370081 Eh     change       -0.3672481E-05 Eh
   gradient norm :     0.0003388 Eh/α   predicted    -0.2343437E-05 ( -36.19%)
   displ. norm   :     0.0165553 α      lambda       -0.1230795E-05
   maximum displ.:     0.0090216 α      in ANC's #4, #2, #1, ...

........................................................................
.............................. CYCLE    6 ..............................
........................................................................

 iter      E             dE          RMSdq      gap      omega  full diag
   1    -13.9035248 -0.139035E+02  0.104E-02    4.34       0.0  T
   2    -13.9035248 -0.135803E-07  0.521E-03    4.34       5.5  T
   3    -13.9035248 -0.301042E-08  0.910E-04    4.34      31.7  T
   4    -13.9035248 -0.166107E-10  0.188E-04    4.34     153.2  T
     SCC iter.                  ...        0 min,  0.001 sec
     gradient                   ...        0 min,  0.001 sec
 * total energy  :   -13.7370094 Eh     change       -0.1322140E-05 Eh
   gradient norm :     0.0002035 Eh/α   predicted    -0.6155531E-06 ( -53.44%)
   displ. norm   :     0.0203598 α      lambda       -0.9106046E-06
   maximum displ.:     0.0113848 α      in ANC's #3, #1, #2, ...

........................................................................
.............................. CYCLE    7 ..............................
........................................................................

 iter      E             dE          RMSdq      gap      omega  full diag
   1    -13.9035892 -0.139036E+02  0.114E-02    4.34       0.0  T
   2    -13.9035893 -0.174974E-07  0.560E-03    4.34       5.2  T
   3    -13.9035893 -0.390978E-08  0.100E-03    4.34      28.9  T
   4    -13.9035893  0.372324E-10  0.223E-04    4.34     129.3  T
   5    -13.9035893 -0.160716E-09  0.686E-05    4.34     420.8  T
     SCC iter.                  ...        0 min,  0.001 sec
     gradient                   ...        0 min,  0.001 sec
 * total energy  :   -13.7370101 Eh     change       -0.7047093E-06 Eh
   gradient norm :     0.0001084 Eh/α   predicted    -0.4557157E-06 ( -35.33%)
   displ. norm   :     0.0033917 α      lambda       -0.7399898E-07
   maximum displ.:     0.0021615 α      in ANC's #3, #1, #4, ...

........................................................................
.............................. CYCLE    8 ..............................
........................................................................

 iter      E             dE          RMSdq      gap      omega  full diag
   1    -13.9035754 -0.139036E+02  0.209E-03    4.34       0.0  T
   2    -13.9035754 -0.789541E-09  0.120E-03    4.34      24.0  T
   3    -13.9035754  0.848814E-10  0.299E-04    4.34      96.5  T
   4    -13.9035754 -0.238199E-09  0.903E-05    4.34     319.8  T
     SCC iter.                  ...        0 min,  0.001 sec
     gradient                   ...        0 min,  0.001 sec
 * total energy  :   -13.7370102 Eh     change       -0.6133970E-07 Eh
   gradient norm :     0.0000406 Eh/α   predicted    -0.3665455E-07 ( -40.24%)
   displ. norm   :     0.0029067 α      lambda       -0.3346314E-07
   maximum displ.:     0.0020135 α      in ANC's #2, #1, #3, ...

   *** GEOMETRY OPTIMIZATION CONVERGED AFTER 8 ITERATIONS ***

------------------------------------------------------------------------
 total energy gain   :        -0.0008391 Eh       -0.5265 kcal/mol
 total RMSD          :         0.0597148 a0        0.0316 Å
 total power (kW/mol):        -0.2753773 (step)  -95.5326 (real)
------------------------------------------------------------------------

 ANCopt (total)                0 d,  0 h,  0 min,  0.023 sec
 optimizer setup                ...        0 min,  0.000 sec (  0.169%)
 model hessian                  ...        0 min,  0.001 sec (  4.645%)
 ANC generation                 ...        0 min,  0.000 sec (  0.505%)
 coordinate transformation      ...        0 min,  0.000 sec (  0.079%)
 single point calculation       ...        0 min,  0.021 sec ( 89.915%)
 optimization log               ...        0 min,  0.000 sec (  0.999%)
 hessian update                 ...        0 min,  0.000 sec (  0.108%)
 rational function              ...        0 min,  0.000 sec (  1.266%)

================
 final structure:
================
$coord
       -3.54811870792175       -1.00181864529007       -0.56216346497589      C
       -1.86389530964275        0.68695457842929        1.02769651513032      C
        1.26998300798842        1.14110020708700       -0.34023880601648      S
        2.64391489683180       -1.94557076549605        0.25249304873355      C
       -5.42968150998972       -1.08890504432438        0.26396869102830      H
       -3.69964111734429       -0.25784313882574       -2.47184844650752      H
       -2.79725611600754       -2.91293044097977       -0.65974018105831      H
       -1.60611921300286       -0.06728450482387        2.92836772436675      H
       -2.64943555728146        2.58530996192419        1.16010451670319      H
        1.70451988811477       -3.36923195329316       -0.88880241002436      H
        2.48492250982421       -2.38979459934796        2.25083054304200      H
        4.61846644744439       -1.81940028341832       -0.28336801708007      H
$end

 Bond Distances (Angstroems)
 ---------------------------
C1-C2=1.5168         C1-H5=1.0884         C1-H6=1.0875         C1-H7=1.0878         C2-C1=1.5168         C2-S3=1.8254         
C2-H8=1.0907         C2-H9=1.0894         S3-C2=1.8254         S3-C4=1.8152         C4-S3=1.8152         C4-H10=1.0860        
C4-H11=1.0866        C4-H12=1.0847        H5-C1=1.0884         H6-C1=1.0875         H7-C1=1.0878         H8-C2=1.0907         
H9-C2=1.0894         H10-C4=1.0860        H11-C4=1.0866        H12-C4=1.0847        
 C  H  Rav=1.0876 sigma=0.0018  Rmin=1.0847  Rmax=1.0907     8
 C  C  Rav=1.5168 sigma=0.0000  Rmin=1.5168  Rmax=1.5168     1
 S  C  Rav=1.8203 sigma=0.0051  Rmin=1.8152  Rmax=1.8254     2

 selected bond angles (degree)
 --------------------
H5-C1-C2=109.86                H6-C1-C2=110.21                H6-C1-H5=108.73                H7-C1-C2=111.07                
H7-C1-H5=108.29                H7-C1-H6=108.63                S3-C2-C1=113.04                H8-C2-C1=111.68                
H8-C2-S3=107.47                H9-C2-C1=110.78                H9-C2-S3=104.52                H9-C2-H8=109.02                
C4-S3-C2=100.19                H10-C4-S3=110.17               H11-C4-S3=109.38               H11-C4-H10=110.84              
H12-C4-S3=106.57               H12-C4-H10=109.77              H12-C4-H11=110.02              

 selected dihedral angles (degree)
 ---------------------------------
S3-C2-C1-H5=184.33            S3-C2-C1-H6=304.12            S3-C2-C1-H7= 64.55            H8-C2-C1-H5= 62.99            
H8-C2-C1-H6=182.77            H8-C2-C1-H7=303.21            H9-C2-C1-H5=301.26            H9-C2-C1-H6= 61.05            
H9-C2-C1-H7=181.48            C4-S3-C2-C1=287.23            C4-S3-C2-H8= 50.92            C4-S3-C2-H9=166.67            
H10-C4-S3-C2= 67.90           H11-C4-S3-C2=305.83           H12-C4-S3-C2=186.93           
           -------------------------------------------------
          |                Final Singlepoint                |
           -------------------------------------------------

          ...................................................
          :                      SETUP                      :
          :.................................................:
          :  # basis functions                  30          :
          :  # atomic orbitals                  29          :
          :  # shells                           17          :
          :  # electrons                        26          :
          :  max. iterations                   250          :
          :  Hamiltonian                  GFN2-xTB          :
          :  restarted?                      false          :
          :  GBSA solvation                  false          :
          :  PC potential                    false          :
          :  electronic temp.          300.0000000     K    :
          :  accuracy                    1.0000000          :
          :  -> integral cutoff          0.2500000E+02      :
          :  -> integral neglect         0.1000000E-07      :
          :  -> SCF convergence          0.1000000E-05 Eh   :
          :  -> wf. convergence          0.1000000E-03 e    :
          :  Broyden damping             0.4000000          :
          :  net charge                          0          :
          :  unpaired electrons                  0          :
          ...................................................

 iter      E             dE          RMSdq      gap      omega  full diag
   1    -13.9035754 -0.139036E+02  0.192E-05    4.34       0.0  T
   2    -13.9035754 -0.976996E-13  0.132E-05    4.34    2192.6  T
   3    -13.9035754 -0.319744E-13  0.397E-06    4.34    7279.0  T

   *** convergence criteria satisfied after 3 iterations ***

         #    Occupation            Energy/Eh            Energy/eV
      -------------------------------------------------------------
         1        2.0000           -0.7046881             -19.1755
       ...           ...                  ...                  ...
         7        2.0000           -0.5001455             -13.6097
         8        2.0000           -0.4901883             -13.3387
         9        2.0000           -0.4813849             -13.0991
        10        2.0000           -0.4670090             -12.7080
        11        2.0000           -0.4464407             -12.1483
        12        2.0000           -0.4347111             -11.8291
        13        2.0000           -0.3536582              -9.6235 (HOMO)
        14                         -0.1940295              -5.2798 (LUMO)
        15                         -0.1326530              -3.6097
        16                         -0.0010012              -0.0272
        17                          0.0081694               0.2223
        18                          0.0238669               0.6495
       ...                                ...                  ...
        29                          0.4222363              11.4896
      -------------------------------------------------------------
                  HL-Gap            0.1596287 Eh            4.3437 eV
             Fermi-level           -0.2738439 Eh           -7.4517 eV

 SCC (total)                   0 d,  0 h,  0 min,  0.002 sec
 SCC setup                      ...        0 min,  0.000 sec (  1.207%)
 Dispersion                     ...        0 min,  0.000 sec (  0.680%)
 classical contributions        ...        0 min,  0.000 sec (  0.331%)
 integral evaluation            ...        0 min,  0.001 sec ( 21.452%)
 iterations                     ...        0 min,  0.001 sec ( 25.731%)
 molecular gradient             ...        0 min,  0.001 sec ( 48.624%)
 printout                       ...        0 min,  0.000 sec (  1.679%)

         :::::::::::::::::::::::::::::::::::::::::::::::::::::
         ::                     SUMMARY                     ::
         :::::::::::::::::::::::::::::::::::::::::::::::::::::
         :: total energy             -13.737010183241 Eh    ::
         :: gradient norm              0.000040693047 Eh/a0 ::
         :: HOMO-LUMO gap              4.343717144350 eV    ::
         ::.................................................::
         :: SCC energy               -13.903570067279 Eh    ::
         :: -> isotropic ES            0.004388802439 Eh    ::
         :: -> anisotropic ES          0.002580002796 Eh    ::
         :: -> anisotropic XC          0.011160021756 Eh    ::
         :: -> dispersion             -0.006217286641 Eh    ::
         :: repulsion energy           0.166559884038 Eh    ::
         :: add. restraining           0.000000000000 Eh    ::
         :: total charge              -0.000000000000 e     ::
         :::::::::::::::::::::::::::::::::::::::::::::::::::::

           ------------------------------------------------- 
          |                Numerical Hessian                |
           ------------------------------------------------- 
step length          :   0.00500
SCC accuracy         :   0.30000
Hessian scale factor :   1.00000
frozen atoms in %    :   0.00000    0
RMS gradient         :   0.00004
estimated CPU  time      0.00 min
estimated wall time      0.00 min

writing file <hessian>, containing the non-mass-weighted Hessian matrix in atomic units (Eₕ/Bohr²).

 projected vibrational frequencies (cm⁻¹)
eigval :       -0.00    -0.00    -0.00    -0.00     0.00     0.00
eigval :       68.37   148.63   204.54   257.57   328.79   674.83
eigval :      731.94   782.17   937.00   941.86  1015.85  1046.10
eigval :     1077.74  1229.98  1259.13  1316.50  1404.97  1444.15
eigval :     1450.42  1457.06  1491.66  1497.05  2971.00  3003.44
eigval :     3020.65  3023.56  3026.59  3037.10  3043.84  3063.95
           -------------------------------------------------
          |                Property Printout                |
           -------------------------------------------------

    * Orbital Energies and Occupations

         #    Occupation            Energy/Eh            Energy/eV
      -------------------------------------------------------------
         1        2.0000           -0.7046881             -19.1755
         2        2.0000           -0.6234268             -16.9643
         3        2.0000           -0.6022521             -16.3881
         4        2.0000           -0.5773695             -15.7110
         5        2.0000           -0.5210353             -14.1781
         6        2.0000           -0.5127485             -13.9526
         7        2.0000           -0.5001455             -13.6097
         8        2.0000           -0.4901883             -13.3387
         9        2.0000           -0.4813849             -13.0991
        10        2.0000           -0.4670090             -12.7080
        11        2.0000           -0.4464407             -12.1483
        12        2.0000           -0.4347110             -11.8291
        13        2.0000           -0.3536582              -9.6235 (HOMO)
        14                         -0.1940295              -5.2798 (LUMO)
        15                         -0.1326530              -3.6097
        16                         -0.0010012              -0.0272
        17                          0.0081694               0.2223
        18                          0.0238669               0.6495
        19                          0.1068759               2.9082
        20                          0.1272177               3.4618
        21                          0.1570926               4.2747
        22                          0.1760233               4.7898
        23                          0.1821616               4.9569
        24                          0.2000038               5.4424
       ...                                ...                  ...
        29                          0.4222363              11.4896
      -------------------------------------------------------------
                  HL-Gap            0.1596287 Eh            4.3437 eV
             Fermi-level           -0.2738438 Eh           -7.4517 eV

     #   Z          covCN         q      C6AA      α(0)
     1   6          3.775    -0.101    22.457     6.752
     2   6          3.793     0.001    20.579     6.460
     3  16          1.964    -0.220   150.444    20.644
     4   6          3.745    -0.047    21.482     6.612
     5   1          0.925     0.039     2.460     2.453
     6   1          0.925     0.049     2.327     2.386
     7   1          0.925     0.040     2.447     2.446
     8   1          0.925     0.039     2.466     2.456
     9   1          0.925     0.050     2.322     2.383
    10   1          0.925     0.047     2.359     2.402
    11   1          0.925     0.046     2.372     2.409
    12   1          0.925     0.057     2.231     2.336

 Mol. C6AA /au·bohr⁶  :       1475.065915
 Mol. C8AA /au·bohr⁸  :      41194.987536
 Mol. α(0) /au        :         59.738117


Wiberg/Mayer (AO) data.
largest (>0.10) Wiberg bond orders for each atom

 ---------------------------------------------------------------------------
     #   Z sym  total        # sym  WBO       # sym  WBO       # sym  WBO
 ---------------------------------------------------------------------------
     1   6      3.995 --     2      1.027     6      0.986     7      0.985
                             5      0.980
     2   6      3.981 --     1      1.027     3      0.988     8      0.976
                             9      0.973
     3  16      2.078 --     4      1.012     2      0.988
     4   6      3.982 --     3      1.012    11      0.985    10      0.985
                            12      0.982
     5   1      0.998 --     1      0.980
     6   1      0.998 --     1      0.986
     7   1      0.998 --     1      0.985
     8   1      0.999 --     2      0.976
     9   1      0.998 --     2      0.973
    10   1      0.998 --     4      0.985
    11   1      0.998 --     4      0.985
    12   1      0.997 --     4      0.982
 ---------------------------------------------------------------------------

Topologies differ in total number of bonds
Writing topology from bond orders to xtbtopo.mol

molecular dipole:
                 x           y           z       tot (Debye)
 q only:       -0.289      -0.476       0.199
   full:       -0.436      -0.797       0.385       2.508
molecular quadrupole (traceless):
                xx          xy          yy          xz          yz          zz
 q only:        1.244      -1.789      -0.467       0.160       0.321      -0.778
  q+dip:        0.892      -2.846      -1.129       0.452       0.597       0.237
   full:        1.449      -3.066      -0.844       0.132       0.426      -0.604

           -------------------------------------------------
          |                Geometry Summary                 |
           -------------------------------------------------

      molecular mass/u    :       76.1605211
   center of mass at/Å    :        0.0002921       0.0003166       0.0002231
  moments of inertia/u·Å² :        0.5198401E+02   0.1299168E+03   0.1574771E+03
rotational constants/cm⁻¹ :        0.3242849E+00   0.1297572E+00   0.1070482E+00

 * 9 selected distances

     #   Z          #   Z                                           value/Å
     1   6          2   6                                         1.5168309 (max)
     1   6          5   1                                         1.0884029
     1   6          6   1                                         1.0875018
     1   6          7   1                                         1.0877990
     2   6          8   1                                         1.0906543
     2   6          9   1                                         1.0894317
     4   6         10   1                                         1.0860168
     4   6         11   1                                         1.0865500
     4   6         12   1                                         1.0847385 (min)

 * 2 distinct bonds (by element types)

   Z      Z             #   av. dist./Å        max./Å        min./Å
   1 H    6 C           8     1.0876369     1.0906543     1.0847385
   6 C    6 C           1     1.5168309     1.5168309     1.5168309

           -------------------------------------------------
          |               Frequency Printout                |
           -------------------------------------------------
 projected vibrational frequencies (cm⁻¹)
eigval :       -0.00    -0.00    -0.00    -0.00     0.00     0.00
eigval :       68.37   148.63   204.54   257.57   328.79   674.83
eigval :      731.94   782.17   937.00   941.86  1015.85  1046.10
eigval :     1077.74  1229.98  1259.13  1316.50  1404.97  1444.15
eigval :     1450.42  1457.06  1491.66  1497.05  2971.00  3003.44
eigval :     3020.65  3023.56  3026.59  3037.10  3043.84  3063.95
 reduced masses (amu)
    1:      3.33    2:      6.69    3:      3.27    4:      5.20    5:      4.17    6:      4.31
    7:      1.69    8:      1.12    9:      1.32   10:      2.13   11:      3.08   12:      4.35
   13:      5.53   14:      1.20   15:      1.18   16:      1.18   17:      1.43   18:      1.29
   19:      2.96   20:      1.23   21:      1.28   22:      1.15   23:      1.20   24:      1.09
   25:      1.08   26:      1.06   27:      1.06   28:      1.06   29:      1.08   30:      1.07
   31:      1.05   32:      1.08   33:      1.09   34:      1.08   35:      1.06   36:      1.08
 IR intensities (km·mol⁻¹)
    1:      0.21    2:      0.12    3:      3.32    4:      0.12    5:      0.87    6:      1.60
    7:      2.09    8:      1.10    9:      0.44   10:      0.82   11:      1.37   12:      1.89
   13:     10.43   14:      7.60   15:      9.19   16:      2.46   17:      7.28   18:      8.34
   19:      3.08   20:      2.00   21:     20.52   22:      2.68   23:      4.22   24:      2.71
   25:      3.37   26:      5.61   27:      5.27   28:      1.57   29:     19.30   30:      6.36
   31:      9.56   32:     35.72   33:      9.08   34:     31.50   35:     15.95   36:      5.16
 Raman intensities (Ä⁴*amu⁻¹)
    1:      0.00    2:      0.00    3:      0.00    4:      0.00    5:      0.00    6:      0.00
    7:      0.00    8:      0.00    9:      0.00   10:      0.00   11:      0.00   12:      0.00
   13:      0.00   14:      0.00   15:      0.00   16:      0.00   17:      0.00   18:      0.00
   19:      0.00   20:      0.00   21:      0.00   22:      0.00   23:      0.00   24:      0.00
Molecule has no symmetry elements
It seems to be the C1 point group
   25:      0.00   26:      0.00   27:      0.00   28:      0.00   29:      0.00   30:      0.00
   31:      0.00   32:      0.00   33:      0.00   34:      0.00   35:      0.00   36:      0.00
 output can be read by thermo (or use thermo option).
 writing <g98.out> molden fake output.
 recommended (thermochemical) frequency scaling factor: 1.0
           -------------------------------------------------
          |             Thermodynamic Functions             |
           -------------------------------------------------

c1  symmetry found (for desy threshold:  0.10E+00) used in thermo

          ...................................................
          :                      SETUP                      :
          :.................................................:
          :  # frequencies                          30      :
          :  # imaginary freq.                       0      :
          :  linear?                             false      :
          :  only rotor calc.                    false      :
          :  symmetry                               c1      :
          :  rotational number                       1      :
          :  scaling factor                  1.0000000      :
          :  rotor cutoff                    0.0000000 cm⁻¹ :
          :  imag. cutoff                 -100.0000000 cm⁻¹ :
          :.................................................:

    mode    ω/cm⁻¹     T·S(HO)/kcal·mol⁻¹    T·S(FR)/kcal·mol⁻¹   T·S(vib)
   ------------------------------------------------------------------------
       1     68.37    -1.25212 (100.00%)    -0.96319 (  0.00%)    -1.25212
       2    148.63    -0.80193 (100.00%)    -0.73352 (  0.00%)    -0.80193
       3    204.54    -0.62369 (100.00%)    -0.63900 (  0.00%)    -0.62369
       4    257.57    -0.50036 (100.00%)    -0.57076 (  0.00%)    -0.50036
   ------------------------------------------------------------------------

   temp. (K)  partition function   enthalpy   heat capacity  entropy
                                   cal/mol     cal/K/mol   cal/K/mol   J/K/mol
 298.15  VIB   22.6                 2149.024     14.310     13.408
         ROT  0.788E+05              888.727      2.981     25.385
         INT  0.178E+07             3037.751     17.291     38.793
         TR   0.203E+26             1481.212      4.968     38.906
         TOT                        4518.9637    22.2585    77.6991   325.0932

       T/K    H(0)-H(T)+PV         H(T)/Eh          T*S/Eh         G(T)/Eh
   ------------------------------------------------------------------------
    298.15    0.720143E-02    0.109620E+00    0.369174E-01    0.727024E-01
   ------------------------------------------------------------------------

         :::::::::::::::::::::::::::::::::::::::::::::::::::::
         ::                  THERMODYNAMIC                  ::
         :::::::::::::::::::::::::::::::::::::::::::::::::::::
         :: total free energy         -13.664307780736 Eh   ::
         ::.................................................::
         :: total energy              -13.737010183241 Eh   ::
         :: zero point energy           0.102418339397 Eh   ::
         :: G(RRHO) w/o ZPVE           -0.029715936892 Eh   ::
         :: G(RRHO) contrib.            0.072702402505 Eh   ::
         :::::::::::::::::::::::::::::::::::::::::::::::::::::

optimized geometry written to: xtbopt.coord


           -------------------------------------------------
          | TOTAL ENERGY              -13.737010183241 Eh   |
          | TOTAL ENTHALPY            -13.627390416877 Eh   |
          | TOTAL FREE ENERGY         -13.664307780736 Eh   |
          | GRADIENT NORM               0.000040700621 Eh/α |
          | HOMO-LUMO GAP               4.343717310439 eV   |
           -------------------------------------------------

------------------------------------------------------------------------
 * finished run on 2025/04/09 at 03:06:53.441     
------------------------------------------------------------------------
 total:
 * wall-time:     0 d,  0 h,  0 min,  0.225 sec
 *  cpu-time:     0 d,  0 h,  0 min,  0.223 sec
 * ratio c/w:     0.994 speedup
 SCF:
 * wall-time:     0 d,  0 h,  0 min,  0.004 sec
 *  cpu-time:     0 d,  0 h,  0 min,  0.004 sec
 * ratio c/w:     0.994 speedup
 ANC optimizer:
 * wall-time:     0 d,  0 h,  0 min,  0.026 sec
 *  cpu-time:     0 d,  0 h,  0 min,  0.026 sec
 * ratio c/w:     0.992 speedup
 analytical hessian:
 * wall-time:     0 d,  0 h,  0 min,  0.191 sec
 *  cpu-time:     0 d,  0 h,  0 min,  0.190 sec
 * ratio c/w:     0.995 speedup

