12
 energy: -28.030009321438 gnorm: 0.024943522807 xtb: 6.7.1 (41059b4)
C           -0.93369451943717        1.05115955345321        0.00004646328002
C            0.43313371016150        1.30268565286416        0.00006574464227
C            1.37736172801254        0.28296920794660        0.00006844096410
C            0.91169397727181       -1.02639364248671        0.00008474055161
C           -0.44350541475780       -1.33413073539428        0.00004684792667
C           -1.34476419718953       -0.27626276693171        0.00001173274871
Cl          -3.05667010664202       -0.62811603947399        0.00002997547662
Cl           2.07197232139173       -2.33341818856667        0.00006235984389
Cl           0.98433748661427        2.96122416180072        0.00006528961036
H           -1.65189724689546        1.86006608585804        0.00004224802602
H            2.43697643183598        0.50064694532099        0.00007370547574
H           -0.78479046251497       -2.36060653837413        0.00003997060519
12
 energy: -28.030714127511 gnorm: 0.017190547552 xtb: 6.7.1 (41059b4)
C           -0.92944662349364        1.04645087080366        0.00005037037613
C            0.43272533116601        1.30146944218390        0.00005746208567
C            1.37106904048738        0.28167378845915        0.00006129455708
C            0.91080490528535       -1.02547252560649        0.00005112263645
C           -0.44153874396094       -1.32815734043628        0.00004720706374
C           -1.34350290660562       -0.27602324015409        0.00005014840743
Cl          -3.04499944825353       -0.62567061466222        0.00001014059808
Cl           2.06419853259694       -2.32436338438192        0.00007989722836
Cl           0.98066296856205        2.94985805608836        0.00007040431523
H           -1.64495618312014        1.85227836077774        0.00004371136411
H            2.42666067281328        0.49854042571531        0.00007391038400
H           -0.78152383762624       -2.35076014277089        0.00004185013493
12
 energy: -28.031010642935 gnorm: 0.005681595233 xtb: 6.7.1 (41059b4)
C           -0.92684936610568        1.04358871693064        0.00003540598142
C            0.43347298404059        1.30373900490298        0.00006285078815
C            1.36721865565659        0.28087378062625        0.00008059805106
C            0.91236080003365       -1.02728929366892        0.00007298100768
C           -0.44034501613195       -1.32451456119664        0.00004447426614
C           -1.34581664675458       -0.27651313772306        0.00002477051084
Cl          -3.03425937546292       -0.62340318561792        0.00004154161126
Cl           2.05703618295241       -2.31605691150851        0.00005153894694
Cl           0.97728108802258        2.93942015681898        0.00006329194138
H           -1.64134850707567        1.84814533345039        0.00003056641322
H            2.42121937504514        0.49741688669756        0.00009010919781
H           -0.77981646636926       -2.34558309369553        0.00003939043532
12
 energy: -28.031037994440 gnorm: 0.001428985690 xtb: 6.7.1 (41059b4)
C           -0.92703370672892        1.04379572774737        0.00005032492822
C            0.43405774565269        1.30550489359221        0.00005653631975
C            1.36749056274207        0.28092713911143        0.00006087328215
C            0.91359725392603       -1.02867663577336        0.00004722443581
C           -0.44043069289791       -1.32477228100821        0.00004720226963
C           -1.34762597190895       -0.27688357206822        0.00005446773901
Cl          -3.03320191369838       -0.62317214931083        0.00001171100401
Cl           2.05631933757312       -2.31525385893927        0.00007883882379
Cl           0.97695157155346        2.93840085798538        0.00007061066817
H           -1.64217837098230        1.84902040772701        0.00004007045965
H            2.42240526862807        0.49765392346429        0.00007819564741
H           -0.78019737600806       -2.34672075651158        0.00004146357361
12
 energy: -28.031040181973 gnorm: 0.000680701315 xtb: 6.7.1 (41059b4)
C           -0.92737924699485        1.04417664062786        0.00003469755276
C            0.43439831963323        1.30653133320387        0.00006520659342
C            1.36800569922359        0.28103372619651        0.00008162227808
C            0.91432187919898       -1.02947553475298        0.00008342620108
C           -0.44058725541670       -1.32525351919767        0.00004434957244
C           -1.34867875020509       -0.27709711508299        0.00001231453988
Cl          -3.03371319671633       -0.62327895473313        0.00004236966185
Cl           2.05664095724219       -2.31566765846663        0.00005106381598
Cl           0.97711303576821        2.93890569224695        0.00006317444836
H           -1.64314076202669        1.85007149547660        0.00003570504049
H            2.42381533154341        0.49794289439115        0.00008338465191
H           -0.78064230339906       -2.34806530389331        0.00004020479497
12
 energy: -28.031040712977 gnorm: 0.000039550276 xtb: 6.7.1 (41059b4)
C           -0.92726196085116        1.04404614393708        0.00005362299917
C            0.43429391644324        1.30621635831608        0.00005610280718
C            1.36783302759934        0.28099863760663        0.00005714652351
C            0.91410117893976       -1.02922853030353        0.00004477585859
C           -0.44053272167233       -1.32508869878392        0.00004795730883
C           -1.34835630498682       -0.27703153901239        0.00005769466215
Cl          -3.03367659832387       -0.62327381160284        0.00000579225578
Cl           2.05661670342942       -2.31563729372610        0.00008361231503
Cl           0.97709955749443        2.93886785071127        0.00007150852674
H           -1.64286205445554        1.84977076491679        0.00004278680362
H            2.42341159811823        0.49786206801777        0.00007464730824
H           -0.78051263388381       -2.34767825406061        0.00004187178236
12
 energy: -28.031040714110 gnorm: 0.000018324475 xtb: 6.7.1 (41059b4)
C           -0.92725130743547        1.04403416056621        0.00003519911358
C            0.43429729121292        1.30622666838543        0.00006437111888
C            1.36781746545976        0.28099532457632        0.00008050670739
C            0.91410864528220       -1.02923674285233        0.00008069427164
C           -0.44052782023557       -1.32507353694313        0.00004431534473
C           -1.34836739233023       -0.27703392421655        0.00001511707705
Cl          -3.03363873666502       -0.62326607778018        0.00004096637227
Cl           2.05659068461781       -2.31560808402222        0.00005291058795
Cl           0.97708717610877        2.93883051799690        0.00006393336867
H           -1.64284775574037        1.84975580541618        0.00003582300847
H            2.42339127704354        0.49785837432023        0.00008337674059
H           -0.78050581946745       -2.34765878943063        0.00004030544000
