      -----------------------------------------------------------      
     |                   =====================                   |     
     |                           x T B                           |     
     |                   =====================                   |     
     |                         S. Grimme                         |     
     |          Mulliken Center for Theoretical Chemistry        |     
     |                    University of Bonn                     |     
      -----------------------------------------------------------      

   * xtb version 6.7.1 (41059b4) compiled by 'michael@archlinux' on 2025-03-24

   xtb is free software: you can redistribute it and/or modify it under
   the terms of the GNU Lesser General Public License as published by
   the Free Software Foundation, either version 3 of the License, or
   (at your option) any later version.
   
   xtb is distributed in the hope that it will be useful,
   but WITHOUT ANY WARRANTY; without even the implied warranty of
   MERCHANTABILITY or FITNESS FOR A PARTICULAR PURPOSE.  See the
   GNU Lesser General Public License for more details.
   
   Cite this work as:
   * C. Bannwarth, E. Caldeweyher, S. Ehlert, A. Hansen, P. Pracht,
     J. Seibert, S. Spicher, S. Grimme, WIREs Comput. Mol. Sci., 2020, 11,
     e01493. DOI: 10.1002/wcms.1493
   
   for GFN2-xTB:
   * C. Bannwarth, S. Ehlert and S. Grimme., J. Chem. Theory Comput., 2019,
     15, 1652-1671. DOI: 10.1021/acs.jctc.8b01176
   for GFN1-xTB:
   * S. Grimme, C. Bannwarth, P. Shushkov, J. Chem. Theory Comput., 2017,
     13, 1989-2009. DOI: 10.1021/acs.jctc.7b00118
   for GFN0-xTB:
   * P. Pracht, E. Caldeweyher, S. Ehlert, S. Grimme, ChemRxiv, 2019, preprint.
     DOI: 10.26434/chemrxiv.8326202.v1
   for GFN-FF:
   * S. Spicher and S. Grimme, Angew. Chem. Int. Ed., 2020, 59, 15665-15673.
     DOI: 10.1002/anie.202004239
   
   for ALPB and GBSA implicit solvation:
   * S. Ehlert, M. Stahn, S. Spicher, S. Grimme, J. Chem. Theory Comput.,
     2021, 17, 4250-4261. DOI: 10.1021/acs.jctc.1c00471
   
   for ddCOSMO and CPCM-X implicit solvation:
   * M. Stahn, S. Ehlert, S. Grimme, J. Phys. Chem. A,
     2023, XX, XXXX-XXXX. DOI: 10.1021/acs.jpca.3c04382
   
   for DFT-D4:
   * E. Caldeweyher, C. Bannwarth and S. Grimme, J. Chem. Phys., 2017,
     147, 034112. DOI: 10.1063/1.4993215
   * E. Caldeweyher, S. Ehlert, A. Hansen, H. Neugebauer, S. Spicher,
     C. Bannwarth and S. Grimme, J. Chem. Phys., 2019, 150, 154122.
     DOI: 10.1063/1.5090222
   * E. Caldeweyher, J.-M. Mewes, S. Ehlert and S. Grimme, Phys. Chem. Chem. Phys.
     2020, 22, 8499-8512. DOI: 10.1039/D0CP00502A
   
   for sTDA-xTB:
   * S. Grimme and C. Bannwarth, J. Chem. Phys., 2016, 145, 054103.
     DOI: 10.1063/1.4959605
   
   in the mass-spec context:
   * V. Asgeirsson, C. Bauer and S. Grimme, Chem. Sci., 2017, 8, 4879.
     DOI: 10.1039/c7sc00601b
   * J. Koopman and S. Grimme, ACS Omega 2019, 4, 12, 15120-15133.
     DOI: 10.1021/acsomega.9b02011
   
   for metadynamics refer to:
   * S. Grimme, J. Chem. Theory Comput., 2019, 155, 2847-2862
     DOI: 10.1021/acs.jctc.9b00143
   
   for SPH calculations refer to:
   * S. Spicher and S. Grimme, J. Chem. Theory Comput., 2021, 17, 1701-1714
     DOI: 10.1021/acs.jctc.0c01306
   
   for ONIOM refer to:
   * C. Plett, A. Katbashev, S. Ehlert, S. Grimme, M. Bursch,
     Phys. Chem. Chem. Phys., 2023, 25, 17860-17868. DOI: 10.1039/D3CP02178E
   
   for DIPRO refer to:
   * J. Kohn, N. Gildemeister, S. Grimme, D. Fazzi, A. Hansen,
     J. Chem. Phys., 2023, just accepted.
   
   for PTB refer to:
   * S. Grimme, M. Mueller, A. Hansen, J. Chem. Phys., 2023, 158, 124111.
     DOI: 10.1063/5.0137838
   
   with help from (in alphabetical order)
   P. Atkinson, C. Bannwarth, F. Bohle, G. Brandenburg, E. Caldeweyher
   M. Checinski, S. Dohm, S. Ehlert, S. Ehrlich, I. Gerasimov, C. Hölzer
   A. Katbashev, J. Kohn, J. Koopman, C. Lavigne, S. Lehtola, F. März, M. Müller,
   F. Musil, H. Neugebauer, J. Pisarek, C. Plett, P. Pracht, F. Pultar,
   J. Seibert, P. Shushkov, S. Spicher, M. Stahn, M. Steiner, T. Strunk,
   J. Stückrath, T. Rose, and J. Unsleber
   
 * started run on 2025/04/09 at 04:12:18.172     
   ID    Z sym.   atoms
    1    6 C      1
    2    7 N      2
    3    8 O      3, 4
    4   17 Cl     5-7

           -------------------------------------------------
          |                Calculation Setup                |
           -------------------------------------------------

          program call               : /usr/bin/xtb xtb_rrho.coord --gfn2 --ohess vtight --chrg 0 --enso --norestart -I rrho-xcontrol-inp --parallel 1
          coordinate file            : xtb_rrho.coord
          omp threads                :                     1


           -------------------------------------------------
          |                 G F N 2 - x T B                 |
           -------------------------------------------------

        Reference                      10.1021/acs.jctc.8b01176
      * Hamiltonian:
        H0-scaling (s, p, d)           1.850000    2.230000    2.230000
        zeta-weighting                 0.500000
      * Dispersion:
        s8                             2.700000
        a1                             0.520000
        a2                             5.000000
        s9                             5.000000
      * Repulsion:
        kExp                           1.500000    1.000000
        rExp                           1.000000
      * Coulomb:
        alpha                          2.000000
        third order                    shell-resolved
        anisotropic                    true
        a3                             3.000000
        a5                             4.000000
        cn-shift                       1.200000
        cn-exp                         4.000000
        max-rad                        5.000000


          ...................................................
          :                      SETUP                      :
          :.................................................:
          :  # basis functions                  46          :
          :  # atomic orbitals                  43          :
          :  # shells                           17          :
          :  # electrons                        42          :
          :  max. iterations                   250          :
          :  Hamiltonian                  GFN2-xTB          :
          :  restarted?                      false          :
          :  GBSA solvation                  false          :
          :  PC potential                    false          :
          :  electronic temp.          300.0000000     K    :
          :  accuracy                    1.0000000          :
          :  -> integral cutoff          0.2500000E+02      :
          :  -> integral neglect         0.1000000E-07      :
          :  -> SCF convergence          0.1000000E-05 Eh   :
          :  -> wf. convergence          0.1000000E-03 e    :
          :  Broyden damping             0.4000000          :
          :  net charge                          0          :
          :  unpaired electrons                  0          :
          ...................................................

 iter      E             dE          RMSdq      gap      omega  full diag
   1    -26.6240344 -0.266240E+02  0.749E+00    4.49       0.0  T
   2    -26.7614120 -0.137378E+00  0.359E+00    3.19       1.0  T
   3    -26.7643638 -0.295180E-02  0.196E+00    2.96       1.0  T
   4    -26.7626825  0.168124E-02  0.130E+00    2.93       1.0  T
   5    -26.7682857 -0.560314E-02  0.175E-01    2.84       1.0  T
   6    -26.7683152 -0.294925E-04  0.965E-02    2.86       1.0  T
   7    -26.7683309 -0.157843E-04  0.470E-02    2.87       1.0  T
   8    -26.7683337 -0.271782E-05  0.299E-02    2.86       1.3  T
   9    -26.7683347 -0.999575E-06  0.961E-03    2.86       3.9  T
  10    -26.7683348 -0.142276E-06  0.279E-03    2.86      13.5  T
  11    -26.7683348 -0.164406E-07  0.143E-03    2.86      26.4  T
  12    -26.7683348 -0.486573E-08  0.948E-04    2.86      39.9  T
  13    -26.7683348 -0.326521E-08  0.409E-04    2.86      92.5  T

   *** convergence criteria satisfied after 13 iterations ***

         #    Occupation            Energy/Eh            Energy/eV
      -------------------------------------------------------------
         1        2.0000           -1.1120124             -30.2594
       ...           ...                  ...                  ...
        15        2.0000           -0.5128394             -13.9551
        16        2.0000           -0.4886561             -13.2970
        17        2.0000           -0.4880625             -13.2809
        18        2.0000           -0.4768437             -12.9756
        19        2.0000           -0.4746288             -12.9153
        20        2.0000           -0.4718902             -12.8408
        21        2.0000           -0.4634275             -12.6105 (HOMO)
        22                         -0.3582700              -9.7490 (LUMO)
        23                         -0.2738048              -7.4506
        24                         -0.2152955              -5.8585
        25                         -0.1997789              -5.4363
        26                         -0.1997229              -5.4347
       ...                                ...                  ...
        43                          0.4137836              11.2596
      -------------------------------------------------------------
                  HL-Gap            0.1051574 Eh            2.8615 eV
             Fermi-level           -0.4108488 Eh          -11.1798 eV

 SCC (total)                   0 d,  0 h,  0 min,  0.007 sec
 SCC setup                      ...        0 min,  0.000 sec (  0.874%)
 Dispersion                     ...        0 min,  0.000 sec (  0.380%)
 classical contributions        ...        0 min,  0.000 sec (  0.102%)
 integral evaluation            ...        0 min,  0.001 sec ( 15.823%)
 iterations                     ...        0 min,  0.004 sec ( 54.768%)
 molecular gradient             ...        0 min,  0.002 sec ( 27.171%)
 printout                       ...        0 min,  0.000 sec (  0.780%)

         :::::::::::::::::::::::::::::::::::::::::::::::::::::
         ::                     SUMMARY                     ::
         :::::::::::::::::::::::::::::::::::::::::::::::::::::
         :: total energy             -26.715217344593 Eh    ::
         :: gradient norm              0.045863118807 Eh/a0 ::
         :: HOMO-LUMO gap              2.861479762333 eV    ::
         ::.................................................::
         :: SCC energy               -26.768330930975 Eh    ::
         :: -> isotropic ES            0.044261475308 Eh    ::
         :: -> anisotropic ES          0.012102250743 Eh    ::
         :: -> anisotropic XC         -0.002617137036 Eh    ::
         :: -> dispersion             -0.007756210354 Eh    ::
         :: repulsion energy           0.053113586382 Eh    ::
         :: add. restraining           0.000000000000 Eh    ::
         :: total charge               0.000000000000 e     ::
         :::::::::::::::::::::::::::::::::::::::::::::::::::::

      ----------------------------------------------------------- 
     |                   =====================                   |
     |                        A N C O P T                        |
     |                   =====================                   |
     |               Approximate Normal Coordinate               |
     |                Rational Function Optimizer                |
      ----------------------------------------------------------- 

          ...................................................
          :                      SETUP                      :
          :.................................................:
          :   optimization level         verytight          :
          :   max. optcycles                   200          :
          :   ANC micro-cycles                  20          :
          :   degrees of freedom                15          :
          :.................................................:
          :   RF solver                   davidson          :
          :   write xtbopt.log                true          :
          :   linear?                        false          :
          :   energy convergence         0.1000000E-06 Eh   :
          :   grad. convergence          0.2000000E-03 Eh/α :
          :   maximum RF displ.          1.0000000          :
          :   Hlow (freq-cutoff)         0.1000000E-01      :
          :   Hmax (freq-cutoff)         5.0000000          :
          :   S6 in model hess.         20.0000000          :
          ...................................................

generating ANC from exact Hessian ...
Using Lindh-Hessian (1995)
 Shifting diagonal of input Hessian by    0.0000000000000000     
 Lowest  eigenvalues of input Hessian
    0.000000    0.000000    0.000000    0.000000    0.000000    0.000000
    0.014713    0.017748    0.019207    0.033532    0.054039    0.058693
    0.082383    0.121174    0.255278    0.617377    0.773378    1.104454
 Highest eigenvalues
    0.617377    0.773378    1.104454    1.172552    1.749655    2.563340


........................................................................
.............................. CYCLE    1 ..............................
........................................................................

 iter      E             dE          RMSdq      gap      omega  full diag
   1    -26.7683348 -0.267683E+02  0.230E-04    2.86       0.0  T
   2    -26.7683348 -0.557954E-10  0.194E-04    2.86     195.2  T
   3    -26.7683348 -0.497984E-10  0.161E-04    2.86     234.6  T
     SCC iter.                  ...        0 min,  0.001 sec
     gradient                   ...        0 min,  0.002 sec
 * total energy  :   -26.7152173 Eh     change       -0.6871801E-09 Eh
   gradient norm :     0.0458612 Eh/α   predicted     0.0000000E+00 (-100.00%)
   displ. norm   :     0.1961469 α      lambda       -0.3805280E-02
   maximum displ.:     0.1522282 α      in ANC's #4, #3, #9, ...

........................................................................
.............................. CYCLE    2 ..............................
........................................................................

 iter      E             dE          RMSdq      gap      omega  full diag
   1    -26.7771709 -0.267772E+02  0.277E-01    3.07       0.0  T
   2    -26.7773511 -0.180159E-03  0.166E-01    3.04       1.0  T
   3    -26.7773575 -0.648127E-05  0.951E-02    3.03       1.0  T
   4    -26.7773536  0.397392E-05  0.573E-02    3.04       1.0  T
   5    -26.7773645 -0.109615E-04  0.162E-02    3.03       2.3  T
   6    -26.7773649 -0.413820E-06  0.704E-03    3.03       5.4  T
   7    -26.7773650 -0.989534E-07  0.331E-03    3.03      11.4  T
   8    -26.7773651 -0.248906E-07  0.165E-03    3.03      22.9  T
   9    -26.7773651 -0.591826E-08  0.802E-04    3.03      47.1  T
  10    -26.7773651 -0.977959E-09  0.456E-04    3.03      82.8  T
     SCC iter.                  ...        0 min,  0.002 sec
     gradient                   ...        0 min,  0.002 sec
 * total energy  :   -26.7174996 Eh     change       -0.2282220E-02 Eh
   gradient norm :     0.0143285 Eh/α   predicted    -0.1975842E-02 ( -13.42%)
   displ. norm   :     0.0933749 α      lambda       -0.9591767E-03
   maximum displ.:     0.0605444 α      in ANC's #9, #3, #11, ...

........................................................................
.............................. CYCLE    3 ..............................
........................................................................

 iter      E             dE          RMSdq      gap      omega  full diag
   1    -26.7815839 -0.267816E+02  0.208E-01    3.14       0.0  T
   2    -26.7816889 -0.104984E-03  0.142E-01    3.12       1.0  T
   3    -26.7817076 -0.186563E-04  0.820E-02    3.11       1.0  T
   4    -26.7817090 -0.146992E-05  0.482E-02    3.11       1.0  T
   5    -26.7817134 -0.434111E-05  0.163E-02    3.11       2.3  T
   6    -26.7817137 -0.279129E-06  0.751E-03    3.11       5.0  T
   7    -26.7817138 -0.929485E-07  0.437E-03    3.11       8.6  T
   8    -26.7817138 -0.465804E-07  0.256E-03    3.11      14.8  T
   9    -26.7817138 -0.223790E-07  0.152E-03    3.11      24.9  T
  10    -26.7817138 -0.864809E-08  0.927E-04    3.11      40.8  T
  11    -26.7817138 -0.396509E-08  0.281E-04    3.11     134.7  T
     SCC iter.                  ...        0 min,  0.002 sec
     gradient                   ...        0 min,  0.002 sec
 * total energy  :   -26.7178680 Eh     change       -0.3684136E-03 Eh
   gradient norm :     0.0164240 Eh/α   predicted    -0.4837718E-03 (  31.31%)
   displ. norm   :     0.0459095 α      lambda       -0.2671916E-03
   maximum displ.:     0.0211346 α      in ANC's #2, #4, #7, ...

........................................................................
.............................. CYCLE    4 ..............................
........................................................................

 iter      E             dE          RMSdq      gap      omega  full diag
   1    -26.7809526 -0.267810E+02  0.768E-02    3.09       0.0  T
   2    -26.7809563 -0.370585E-05  0.478E-02    3.10       1.0  T
   3    -26.7809559  0.428598E-06  0.246E-02    3.10       1.5  T
   4    -26.7809584 -0.248302E-05  0.106E-02    3.10       3.6  T
   5    -26.7809586 -0.184514E-06  0.696E-03    3.10       5.4  T
   6    -26.7809587 -0.116953E-06  0.463E-03    3.10       8.2  T
   7    -26.7809588 -0.825013E-07  0.255E-03    3.10      14.9  T
   8    -26.7809588 -0.216469E-07  0.175E-03    3.10      21.6  T
   9    -26.7809588 -0.118916E-07  0.820E-04    3.10      46.1  T
  10    -26.7809588 -0.230172E-08  0.257E-04    3.10     147.0  T
     SCC iter.                  ...        0 min,  0.002 sec
     gradient                   ...        0 min,  0.002 sec
 * total energy  :   -26.7179805 Eh     change       -0.1124930E-03 Eh
   gradient norm :     0.0118493 Eh/α   predicted    -0.1338778E-03 (  19.01%)
   displ. norm   :     0.0596106 α      lambda       -0.3111006E-03
   maximum displ.:     0.0366147 α      in ANC's #4, #2, #7, ...

........................................................................
.............................. CYCLE    5 ..............................
........................................................................

 iter      E             dE          RMSdq      gap      omega  full diag
   1    -26.7790639 -0.267791E+02  0.993E-02    3.05       0.0  T
   2    -26.7790733 -0.931909E-05  0.560E-02    3.07       1.0  T
   3    -26.7790736 -0.380629E-06  0.281E-02    3.08       1.3  T
   4    -26.7790756 -0.192232E-05  0.173E-02    3.08       2.2  T
   5    -26.7790760 -0.492417E-06  0.106E-02    3.08       3.6  T
   6    -26.7790763 -0.220333E-06  0.672E-03    3.08       5.6  T
   7    -26.7790764 -0.148770E-06  0.353E-03    3.08      10.7  T
   8    -26.7790764 -0.310557E-07  0.273E-03    3.08      13.9  T
   9    -26.7790765 -0.344289E-07  0.115E-03    3.08      32.8  T
  10    -26.7790765 -0.433001E-08  0.458E-04    3.08      82.5  T
  11    -26.7790765 -0.570367E-09  0.218E-04    3.08     173.0  T
     SCC iter.                  ...        0 min,  0.002 sec
     gradient                   ...        0 min,  0.002 sec
 * total energy  :   -26.7180339 Eh     change       -0.5346897E-04 Eh
   gradient norm :     0.0067863 Eh/α   predicted    -0.1561024E-03 ( 191.95%)
   displ. norm   :     0.0446616 α      lambda       -0.1661713E-03
   maximum displ.:     0.0366145 α      in ANC's #3, #4, #8, ...

........................................................................
.............................. CYCLE    6 ..............................
........................................................................

 iter      E             dE          RMSdq      gap      omega  full diag
   1    -26.7794799 -0.267795E+02  0.617E-02    3.09       0.0  T
   2    -26.7794815 -0.167461E-05  0.359E-02    3.09       1.1  T
   3    -26.7794820 -0.474872E-06  0.129E-02    3.09       2.9  T
   4    -26.7794822 -0.179006E-06  0.908E-03    3.09       4.2  T
   5    -26.7794823 -0.118584E-06  0.735E-03    3.09       5.1  T
   6    -26.7794825 -0.161315E-06  0.424E-03    3.09       8.9  T
   7    -26.7794825 -0.590903E-07  0.239E-03    3.09      15.8  T
   8    -26.7794826 -0.195710E-07  0.156E-03    3.09      24.2  T
   9    -26.7794826 -0.938732E-08  0.808E-04    3.09      46.8  T
  10    -26.7794826 -0.253820E-08  0.243E-04    3.09     155.7  T
     SCC iter.                  ...        0 min,  0.002 sec
     gradient                   ...        0 min,  0.002 sec
 * total energy  :   -26.7181242 Eh     change       -0.9023970E-04 Eh
   gradient norm :     0.0029961 Eh/α   predicted    -0.8325218E-04 (  -7.74%)
   displ. norm   :     0.0151221 α      lambda       -0.2419605E-04
   maximum displ.:     0.0101079 α      in ANC's #4, #3, #11, ...

........................................................................
.............................. CYCLE    7 ..............................
........................................................................

 iter      E             dE          RMSdq      gap      omega  full diag
   1    -26.7797067 -0.267797E+02  0.275E-02    3.10       0.0  T
   2    -26.7797074 -0.777059E-06  0.173E-02    3.10       2.2  T
   3    -26.7797074  0.785338E-08  0.841E-03    3.10       4.5  T
   4    -26.7797075 -0.937816E-07  0.391E-03    3.10       9.7  T
   5    -26.7797076 -0.467704E-07  0.185E-03    3.10      20.4  T
   6    -26.7797076 -0.467290E-08  0.922E-04    3.10      41.0  T
   7    -26.7797076 -0.177398E-08  0.572E-04    3.10      66.1  T
     SCC iter.                  ...        0 min,  0.001 sec
     gradient                   ...        0 min,  0.002 sec
 * total energy  :   -26.7181371 Eh     change       -0.1287193E-04 Eh
   gradient norm :     0.0014990 Eh/α   predicted    -0.1210171E-04 (  -5.98%)
   displ. norm   :     0.0141832 α      lambda       -0.6618254E-05
   maximum displ.:     0.0101147 α      in ANC's #1, #4, #3, ...

........................................................................
.............................. CYCLE    8 ..............................
........................................................................

 iter      E             dE          RMSdq      gap      omega  full diag
   1    -26.7795292 -0.267795E+02  0.213E-02    3.10       0.0  T
   2    -26.7795295 -0.261863E-06  0.123E-02    3.10       3.1  T
   3    -26.7795295 -0.679363E-07  0.432E-03    3.11       8.7  T
   4    -26.7795295 -0.758395E-08  0.290E-03    3.11      13.0  T
   5    -26.7795296 -0.161964E-07  0.176E-03    3.11      21.5  T
   6    -26.7795296 -0.400242E-08  0.662E-04    3.11      57.1  T
   7    -26.7795296 -0.422784E-09  0.240E-04    3.11     157.2  T
     SCC iter.                  ...        0 min,  0.001 sec
     gradient                   ...        0 min,  0.002 sec
 * total energy  :   -26.7181406 Eh     change       -0.3525364E-05 Eh
   gradient norm :     0.0006090 Eh/α   predicted    -0.3310912E-05 (  -6.08%)
   displ. norm   :     0.0071325 α      lambda       -0.1150444E-05
   maximum displ.:     0.0052361 α      in ANC's #1, #3, #4, ...

........................................................................
.............................. CYCLE    9 ..............................
........................................................................

 iter      E             dE          RMSdq      gap      omega  full diag
   1    -26.7795490 -0.267795E+02  0.908E-03    3.11       0.0  T
   2    -26.7795491 -0.424286E-07  0.565E-03    3.11       6.7  T
   3    -26.7795491  0.859400E-08  0.230E-03    3.11      16.5  T
   4    -26.7795491 -0.212002E-07  0.957E-04    3.11      39.5  T
   5    -26.7795491 -0.153220E-08  0.597E-04    3.11      63.3  T
     SCC iter.                  ...        0 min,  0.001 sec
     gradient                   ...        0 min,  0.002 sec
 * total energy  :   -26.7181416 Eh     change       -0.1055667E-05 Eh
   gradient norm :     0.0002493 Eh/α   predicted    -0.5768571E-06 ( -45.36%)
   displ. norm   :     0.0134607 α      lambda       -0.7792652E-06
   maximum displ.:     0.0132982 α      in ANC's #1, #2, #3, ...

........................................................................
.............................. CYCLE   10 ..............................
........................................................................

 iter      E             dE          RMSdq      gap      omega  full diag
   1    -26.7795962 -0.267796E+02  0.142E-02    3.11       0.0  T
   2    -26.7795962 -0.430400E-07  0.820E-03    3.11       4.6  T
   3    -26.7795962 -0.515336E-08  0.242E-03    3.10      15.6  T
   4    -26.7795962 -0.220965E-07  0.130E-03    3.11      29.1  T
   5    -26.7795962 -0.142039E-08  0.598E-04    3.11      63.2  T
   6    -26.7795962 -0.832085E-09  0.389E-04    3.11      97.2  T
     SCC iter.                  ...        0 min,  0.001 sec
     gradient                   ...        0 min,  0.002 sec
 * total energy  :   -26.7181427 Eh     change       -0.1084114E-05 Eh
   gradient norm :     0.0002240 Eh/α   predicted    -0.3885885E-06 ( -64.16%)
   displ. norm   :     0.0173679 α      lambda       -0.9674584E-06
   maximum displ.:     0.0171304 α      in ANC's #1, #2, #6, ...

........................................................................
.............................. CYCLE   11 ..............................
........................................................................

 iter      E             dE          RMSdq      gap      omega  full diag
   1    -26.7796171 -0.267796E+02  0.181E-02    3.10       0.0  T
   2    -26.7796171 -0.617623E-07  0.104E-02    3.10       3.6  T
   3    -26.7796172 -0.177756E-07  0.258E-03    3.10      14.7  T
   4    -26.7796172 -0.220913E-07  0.153E-03    3.10      24.7  T
   5    -26.7796172 -0.258978E-08  0.601E-04    3.10      62.8  T
   6    -26.7796172 -0.631712E-09  0.457E-04    3.10      82.8  T
     SCC iter.                  ...        0 min,  0.001 sec
     gradient                   ...        0 min,  0.002 sec
 * total energy  :   -26.7181442 Eh     change       -0.1467790E-05 Eh
   gradient norm :     0.0003685 Eh/α   predicted    -0.4846418E-06 ( -66.98%)
   displ. norm   :     0.0179368 α      lambda       -0.1082650E-05
   maximum displ.:     0.0178397 α      in ANC's #1, #2, #3, ...

........................................................................
.............................. CYCLE   12 ..............................
........................................................................

 iter      E             dE          RMSdq      gap      omega  full diag
   1    -26.7796238 -0.267796E+02  0.186E-02    3.10       0.0  T
   2    -26.7796239 -0.613975E-07  0.107E-02    3.10       3.5  T
   3    -26.7796239 -0.329805E-07  0.213E-03    3.10      17.8  T
   4    -26.7796239 -0.634049E-08  0.149E-03    3.10      25.4  T
   5    -26.7796239 -0.349725E-08  0.603E-04    3.10      62.7  T
   6    -26.7796239 -0.508773E-09  0.485E-04    3.10      78.0  T
     SCC iter.                  ...        0 min,  0.001 sec
     gradient                   ...        0 min,  0.002 sec
 * total energy  :   -26.7181459 Eh     change       -0.1698365E-05 Eh
   gradient norm :     0.0004416 Eh/α   predicted    -0.5404728E-06 ( -68.18%)
   displ. norm   :     0.0194214 α      lambda       -0.1299837E-05
   maximum displ.:     0.0191564 α      in ANC's #1, #2, #6, ...

........................................................................
.............................. CYCLE   13 ..............................
........................................................................

 iter      E             dE          RMSdq      gap      omega  full diag
   1    -26.7796248 -0.267796E+02  0.203E-02    3.10       0.0  T
   2    -26.7796248 -0.727590E-07  0.117E-02    3.10       3.2  T
   3    -26.7796249 -0.389352E-07  0.223E-03    3.10      16.9  T
   4    -26.7796249 -0.643260E-08  0.152E-03    3.10      24.8  T
   5    -26.7796249 -0.293732E-08  0.580E-04    3.10      65.1  T
   6    -26.7796249 -0.506553E-09  0.459E-04    3.10      82.4  T
     SCC iter.                  ...        0 min,  0.001 sec
     gradient                   ...        0 min,  0.002 sec
 * total energy  :   -26.7181479 Eh     change       -0.2051726E-05 Eh
   gradient norm :     0.0005338 Eh/α   predicted    -0.6510917E-06 ( -68.27%)
   displ. norm   :     0.0208313 α      lambda       -0.1575720E-05
   maximum displ.:     0.0207279 α      in ANC's #1, #2, #3, ...

........................................................................
.............................. CYCLE   14 ..............................
........................................................................

 iter      E             dE          RMSdq      gap      omega  full diag
   1    -26.7796225 -0.267796E+02  0.216E-02    3.10       0.0  T
   2    -26.7796226 -0.825561E-07  0.124E-02    3.10       3.0  T
   3    -26.7796227 -0.472243E-07  0.238E-03    3.10      15.9  T
   4    -26.7796227 -0.548917E-08  0.168E-03    3.10      22.5  T
   5    -26.7796227 -0.472415E-08  0.692E-04    3.10      54.6  T
   6    -26.7796227 -0.657103E-09  0.555E-04    3.10      68.1  T
     SCC iter.                  ...        0 min,  0.001 sec
     gradient                   ...        0 min,  0.002 sec
 * total energy  :   -26.7181504 Eh     change       -0.2479993E-05 Eh
   gradient norm :     0.0005844 Eh/α   predicted    -0.7885199E-06 ( -68.20%)
   displ. norm   :     0.0227408 α      lambda       -0.1895212E-05
   maximum displ.:     0.0224372 α      in ANC's #1, #2, #6, ...

........................................................................
.............................. CYCLE   15 ..............................
........................................................................

 iter      E             dE          RMSdq      gap      omega  full diag
   1    -26.7796171 -0.267796E+02  0.239E-02    3.10       0.0  T
   2    -26.7796172 -0.100160E-06  0.137E-02    3.10       2.8  T
   3    -26.7796172 -0.531494E-07  0.263E-03    3.10      14.4  T
   4    -26.7796172 -0.923257E-08  0.178E-03    3.10      21.2  T
   5    -26.7796172 -0.387528E-08  0.668E-04    3.10      56.6  T
   6    -26.7796172 -0.645240E-09  0.529E-04    3.10      71.4  T
     SCC iter.                  ...        0 min,  0.001 sec
     gradient                   ...        0 min,  0.002 sec
 * total energy  :   -26.7181534 Eh     change       -0.2966205E-05 Eh
   gradient norm :     0.0006767 Eh/α   predicted    -0.9463521E-06 ( -68.10%)
   displ. norm   :     0.0241573 α      lambda       -0.2238047E-05
   maximum displ.:     0.0240308 α      in ANC's #1, #2, #10, ...

........................................................................
.............................. CYCLE   16 ..............................
........................................................................

 iter      E             dE          RMSdq      gap      omega  full diag
   1    -26.7796085 -0.267796E+02  0.252E-02    3.10       0.0  T
   2    -26.7796086 -0.111248E-06  0.144E-02    3.10       2.6  T
   3    -26.7796087 -0.639553E-07  0.275E-03    3.10      13.8  T
   4    -26.7796087 -0.688622E-08  0.192E-03    3.10      19.7  T
   5    -26.7796087 -0.604036E-08  0.797E-04    3.10      47.4  T
   6    -26.7796087 -0.880043E-09  0.637E-04    3.10      59.4  T
     SCC iter.                  ...        0 min,  0.001 sec
     gradient                   ...        0 min,  0.002 sec
 * total energy  :   -26.7181569 Eh     change       -0.3500640E-05 Eh
   gradient norm :     0.0007315 Eh/α   predicted    -0.1121469E-05 ( -67.96%)
   displ. norm   :     0.0258994 α      lambda       -0.2613419E-05
   maximum displ.:     0.0255415 α      in ANC's #1, #2, #6, ...

........................................................................
.............................. CYCLE   17 ..............................
........................................................................

 iter      E             dE          RMSdq      gap      omega  full diag
   1    -26.7795979 -0.267796E+02  0.273E-02    3.10       0.0  T
   2    -26.7795980 -0.131563E-06  0.157E-02    3.10       2.4  T
   3    -26.7795981 -0.672499E-07  0.307E-03    3.10      12.3  T
   4    -26.7795981 -0.144625E-07  0.206E-03    3.10      18.4  T
   5    -26.7795981 -0.484579E-08  0.766E-04    3.10      49.3  T
   6    -26.7795981 -0.854385E-09  0.607E-04    3.10      62.2  T
     SCC iter.                  ...        0 min,  0.001 sec
     gradient                   ...        0 min,  0.002 sec
 * total energy  :   -26.7181609 Eh     change       -0.4059053E-05 Eh
   gradient norm :     0.0008475 Eh/α   predicted    -0.1307562E-05 ( -67.79%)
   displ. norm   :     0.0267686 α      lambda       -0.2989988E-05
   maximum displ.:     0.0266206 α      in ANC's #1, #2, #10, ...

........................................................................
.............................. CYCLE   18 ..............................
........................................................................

 iter      E             dE          RMSdq      gap      omega  full diag
   1    -26.7795854 -0.267796E+02  0.280E-02    3.10       0.0  T
   2    -26.7795855 -0.136615E-06  0.161E-02    3.10       2.4  T
   3    -26.7795856 -0.792166E-07  0.304E-03    3.10      12.4  T
   4    -26.7795856 -0.792596E-08  0.212E-03    3.10      17.8  T
   5    -26.7795856 -0.747210E-08  0.887E-04    3.10      42.6  T
   6    -26.7795856 -0.107559E-08  0.710E-04    3.10      53.2  T
     SCC iter.                  ...        0 min,  0.001 sec
     gradient                   ...        0 min,  0.002 sec
 * total energy  :   -26.7181656 Eh     change       -0.4618439E-05 Eh
   gradient norm :     0.0009054 Eh/α   predicted    -0.1495958E-05 ( -67.61%)
   displ. norm   :     0.0279978 α      lambda       -0.3352137E-05
   maximum displ.:     0.0275702 α      in ANC's #1, #2, #10, ...

........................................................................
.............................. CYCLE   19 ..............................
........................................................................

 iter      E             dE          RMSdq      gap      omega  full diag
   1    -26.7795716 -0.267796E+02  0.297E-02    3.10       0.0  T
   2    -26.7795717 -0.156361E-06  0.171E-02    3.10       2.2  T
   3    -26.7795718 -0.751873E-07  0.342E-03    3.10      11.0  T
   4    -26.7795718 -0.212223E-07  0.224E-03    3.10      16.9  T
   5    -26.7795718 -0.537912E-08  0.819E-04    3.10      46.1  T
   6    -26.7795718 -0.953118E-09  0.651E-04    3.10      58.0  T
     SCC iter.                  ...        0 min,  0.001 sec
     gradient                   ...        0 min,  0.002 sec
 * total energy  :   -26.7181707 Eh     change       -0.5142035E-05 Eh
   gradient norm :     0.0010477 Eh/α   predicted    -0.1677266E-05 ( -67.38%)
   displ. norm   :     0.0278985 α      lambda       -0.3678969E-05
   maximum displ.:     0.0277355 α      in ANC's #1, #2, #11, ...

........................................................................
.............................. CYCLE   20 ..............................
........................................................................

 iter      E             dE          RMSdq      gap      omega  full diag
   1    -26.7795596 -0.267796E+02  0.293E-02    3.10       0.0  T
   2    -26.7795597 -0.147260E-06  0.168E-02    3.10       2.2  T
   3    -26.7795598 -0.882457E-07  0.312E-03    3.10      12.1  T
   4    -26.7795598 -0.599443E-08  0.215E-03    3.10      17.6  T
   5    -26.7795599 -0.889517E-08  0.927E-04    3.10      40.8  T
   6    -26.7795599 -0.111308E-08  0.740E-04    3.10      51.1  T
     SCC iter.                  ...        0 min,  0.001 sec
     gradient                   ...        0 min,  0.002 sec
 * total energy  :   -26.7181763 Eh     change       -0.5608603E-05 Eh
   gradient norm :     0.0010793 Eh/α   predicted    -0.1841201E-05 ( -67.17%)
   displ. norm   :     0.0287258 α      lambda       -0.3961902E-05
   maximum displ.:     0.0281976 α      in ANC's #1, #2, #11, ...
 * RMSD in coord.:     0.1501295 α      energy gain  -0.2958966E-02 Eh

generating ANC from exact Hessian ...
Using Lindh-Hessian (1995)
 Shifting diagonal of input Hessian by    0.0000000000000000     
 Lowest  eigenvalues of input Hessian
    0.000000    0.000000    0.000000    0.000000    0.000000    0.000000
    0.021189    0.025496    0.030250    0.044156    0.059151    0.065525
    0.123465    0.175642    0.311022    0.668377    0.876055    1.122254
 Highest eigenvalues
    0.668377    0.876055    1.122254    1.226823    1.951991    2.699626


........................................................................
.............................. CYCLE   21 ..............................
........................................................................

 iter      E             dE          RMSdq      gap      omega  full diag
   1    -26.7795436 -0.267795E+02  0.307E-02    3.10       0.0  T
   2    -26.7795438 -0.169999E-06  0.176E-02    3.10       2.1  T
   3    -26.7795439 -0.715257E-07  0.372E-03    3.10      10.2  T
   4    -26.7795439 -0.312331E-07  0.230E-03    3.10      16.4  T
   5    -26.7795439 -0.517988E-08  0.806E-04    3.10      46.9  T
   6    -26.7795439 -0.877623E-09  0.642E-04    3.10      58.9  T
     SCC iter.                  ...        0 min,  0.001 sec
     gradient                   ...        0 min,  0.002 sec
 * total energy  :   -26.7181823 Eh     change       -0.5984203E-05 Eh
   gradient norm :     0.0012552 Eh/α   predicted     0.0000000E+00 (-100.00%)
   displ. norm   :     0.0165222 α      lambda       -0.4370079E-05
   maximum displ.:     0.0154379 α      in ANC's #1, #3, #11, ...

........................................................................
.............................. CYCLE   22 ..............................
........................................................................

 iter      E             dE          RMSdq      gap      omega  full diag
   1    -26.7796793 -0.267797E+02  0.190E-02    3.11       0.0  T
   2    -26.7796796 -0.261854E-06  0.114E-02    3.11       3.3  T
   3    -26.7796796 -0.127572E-07  0.586E-03    3.11       6.4  T
   4    -26.7796797 -0.866259E-07  0.248E-03    3.11      15.3  T
   5    -26.7796797 -0.882477E-08  0.168E-03    3.11      22.5  T
   6    -26.7796797 -0.341888E-08  0.111E-03    3.11      34.0  T
   7    -26.7796797 -0.302870E-08  0.607E-04    3.11      62.3  T
   8    -26.7796797 -0.975056E-09  0.268E-04    3.11     141.2  T
     SCC iter.                  ...        0 min,  0.002 sec
     gradient                   ...        0 min,  0.002 sec
 * total energy  :   -26.7181869 Eh     change       -0.4631029E-05 Eh
   gradient norm :     0.0005940 Eh/α   predicted    -0.2184996E-05 ( -52.82%)
   displ. norm   :     0.0541400 α      lambda       -0.8752844E-05
   maximum displ.:     0.0537985 α      in ANC's #1, #2, #11, ...

........................................................................
.............................. CYCLE   23 ..............................
........................................................................

 iter      E             dE          RMSdq      gap      omega  full diag
   1    -26.7797732 -0.267798E+02  0.581E-02    3.12       0.0  T
   2    -26.7797742 -0.927371E-06  0.337E-02    3.12       1.1  T
   3    -26.7797740  0.126668E-06  0.121E-02    3.12       3.1  T
   4    -26.7797747 -0.633158E-06  0.534E-03    3.12       7.1  T
   5    -26.7797747 -0.270228E-07  0.316E-03    3.12      12.0  T
   6    -26.7797747 -0.135677E-07  0.173E-03    3.12      21.8  T
   7    -26.7797747 -0.554252E-08  0.117E-03    3.12      32.2  T
   8    -26.7797747 -0.319648E-08  0.317E-04    3.12     119.3  T
   9    -26.7797747 -0.199869E-09  0.154E-04    3.12     245.2  T
     SCC iter.                  ...        0 min,  0.002 sec
     gradient                   ...        0 min,  0.002 sec
 * total energy  :   -26.7181966 Eh     change       -0.9684344E-05 Eh
   gradient norm :     0.0019551 Eh/α   predicted    -0.4382495E-05 ( -54.75%)
   displ. norm   :     0.0496585 α      lambda       -0.9524760E-05
   maximum displ.:     0.0475975 α      in ANC's #1, #2, #6, ...

........................................................................
.............................. CYCLE   24 ..............................
........................................................................

 iter      E             dE          RMSdq      gap      omega  full diag
   1    -26.7796721 -0.267797E+02  0.544E-02    3.12       0.0  T
   2    -26.7796726 -0.513716E-06  0.312E-02    3.12       1.2  T
   3    -26.7796729 -0.212214E-06  0.651E-03    3.12       5.8  T
   4    -26.7796730 -0.965967E-07  0.418E-03    3.12       9.0  T
   5    -26.7796730 -0.170955E-07  0.174E-03    3.12      21.7  T
   6    -26.7796730 -0.595691E-08  0.125E-03    3.12      30.2  T
   7    -26.7796730 -0.338233E-08  0.731E-04    3.12      51.7  T
   8    -26.7796730 -0.184525E-08  0.335E-04    3.12     112.9  T
     SCC iter.                  ...        0 min,  0.002 sec
     gradient                   ...        0 min,  0.002 sec
 * total energy  :   -26.7182090 Eh     change       -0.1241485E-04 Eh
   gradient norm :     0.0018268 Eh/α   predicted    -0.4768079E-05 ( -61.59%)
   displ. norm   :     0.0950743 α      lambda       -0.1738389E-04
   maximum displ.:     0.0924516 α      in ANC's #1, #2, #6, ...

........................................................................
.............................. CYCLE   25 ..............................
........................................................................

 iter      E             dE          RMSdq      gap      omega  full diag
   1    -26.7792297 -0.267792E+02  0.104E-01    3.10       0.0  T
   2    -26.7792326 -0.292871E-05  0.595E-02    3.11       1.0  T
   3    -26.7792326  0.619319E-08  0.193E-02    3.11       2.0  T
   4    -26.7792340 -0.140626E-05  0.802E-03    3.11       4.7  T
   5    -26.7792340 -0.399727E-07  0.438E-03    3.11       8.6  T
   6    -26.7792341 -0.310473E-07  0.244E-03    3.11      15.5  T
   7    -26.7792341 -0.118579E-07  0.160E-03    3.11      23.6  T
   8    -26.7792341 -0.590856E-08  0.722E-04    3.11      52.4  T
   9    -26.7792341 -0.151400E-08  0.354E-04    3.11     106.9  T
     SCC iter.                  ...        0 min,  0.002 sec
     gradient                   ...        0 min,  0.002 sec
 * total energy  :   -26.7182307 Eh     change       -0.2165995E-04 Eh
   gradient norm :     0.0027163 Eh/α   predicted    -0.8727585E-05 ( -59.71%)
   displ. norm   :     0.0364949 α      lambda       -0.1093924E-04
   maximum displ.:     0.0355885 α      in ANC's #1, #2, #9, ...

........................................................................
.............................. CYCLE   26 ..............................
........................................................................

 iter      E             dE          RMSdq      gap      omega  full diag
   1    -26.7792290 -0.267792E+02  0.403E-02    3.11       0.0  T
   2    -26.7792295 -0.489242E-06  0.238E-02    3.11       1.6  T
   3    -26.7792293  0.174903E-06  0.102E-02    3.11       3.7  T
   4    -26.7792298 -0.469215E-06  0.347E-03    3.11      10.9  T
   5    -26.7792298 -0.598368E-08  0.205E-03    3.11      18.4  T
   6    -26.7792298 -0.957629E-08  0.994E-04    3.11      38.0  T
   7    -26.7792298 -0.175138E-08  0.554E-04    3.11      68.2  T
     SCC iter.                  ...        0 min,  0.001 sec
     gradient                   ...        0 min,  0.002 sec
 * total energy  :   -26.7182406 Eh     change       -0.9934739E-05 Eh
   gradient norm :     0.0030546 Eh/α   predicted    -0.5477816E-05 ( -44.86%)
   displ. norm   :     0.0499134 α      lambda       -0.1748534E-04
   maximum displ.:     0.0489014 α      in ANC's #1, #2, #9, ...

........................................................................
.............................. CYCLE   27 ..............................
........................................................................

 iter      E             dE          RMSdq      gap      omega  full diag
   1    -26.7793361 -0.267793E+02  0.551E-02    3.11       0.0  T
   2    -26.7793369 -0.868953E-06  0.326E-02    3.11       1.2  T
   3    -26.7793366  0.376118E-06  0.141E-02    3.11       2.7  T
   4    -26.7793375 -0.937767E-06  0.500E-03    3.11       7.6  T
   5    -26.7793375 -0.144924E-07  0.283E-03    3.11      13.4  T
   6    -26.7793375 -0.188142E-07  0.153E-03    3.11      24.8  T
   7    -26.7793375 -0.513835E-08  0.731E-04    3.11      51.7  T
   8    -26.7793375 -0.142592E-08  0.392E-04    3.11      96.5  T
     SCC iter.                  ...        0 min,  0.002 sec
     gradient                   ...        0 min,  0.002 sec
 * total energy  :   -26.7182558 Eh     change       -0.1519654E-04 Eh
   gradient norm :     0.0030468 Eh/α   predicted    -0.8763534E-05 ( -42.33%)
   displ. norm   :     0.0844545 α      lambda       -0.2561334E-04
   maximum displ.:     0.0831074 α      in ANC's #1, #2, #10, ...

........................................................................
.............................. CYCLE   28 ..............................
........................................................................

 iter      E             dE          RMSdq      gap      omega  full diag
   1    -26.7793656 -0.267794E+02  0.927E-02    3.10       0.0  T
   2    -26.7793676 -0.200097E-05  0.539E-02    3.11       1.0  T
   3    -26.7793671  0.511838E-06  0.195E-02    3.11       1.9  T
   4    -26.7793689 -0.176461E-05  0.806E-03    3.11       4.7  T
   5    -26.7793689 -0.457757E-07  0.426E-03    3.11       8.9  T
   6    -26.7793690 -0.418264E-07  0.259E-03    3.11      14.6  T
   7    -26.7793690 -0.129732E-07  0.166E-03    3.11      22.8  T
   8    -26.7793690 -0.826771E-08  0.765E-04    3.11      49.4  T
   9    -26.7793690 -0.173870E-08  0.471E-04    3.11      80.3  T
     SCC iter.                  ...        0 min,  0.002 sec
     gradient                   ...        0 min,  0.002 sec
 * total energy  :   -26.7182759 Eh     change       -0.2007965E-04 Eh
   gradient norm :     0.0037955 Eh/α   predicted    -0.1289813E-04 ( -35.77%)
   displ. norm   :     0.1229554 α      lambda       -0.2849785E-04
   maximum displ.:     0.1209790 α      in ANC's #1, #2, #10, ...

........................................................................
.............................. CYCLE   29 ..............................
........................................................................

 iter      E             dE          RMSdq      gap      omega  full diag
   1    -26.7791296 -0.267791E+02  0.136E-01    3.09       0.0  T
   2    -26.7791337 -0.414435E-05  0.781E-02    3.10       1.0  T
   3    -26.7791338 -0.111019E-06  0.235E-02    3.10       1.6  T
   4    -26.7791360 -0.216201E-05  0.111E-02    3.10       3.4  T
   5    -26.7791361 -0.990700E-07  0.607E-03    3.10       6.2  T
   6    -26.7791361 -0.645176E-07  0.366E-03    3.10      10.3  T
   7    -26.7791362 -0.251326E-07  0.260E-03    3.10      14.5  T
   8    -26.7791362 -0.199531E-07  0.106E-03    3.10      35.5  T
   9    -26.7791362 -0.335886E-08  0.622E-04    3.10      60.8  T
  10    -26.7791362 -0.164407E-08  0.313E-04    3.10     120.9  T
     SCC iter.                  ...        0 min,  0.002 sec
     gradient                   ...        0 min,  0.002 sec
 * total energy  :   -26.7182908 Eh     change       -0.1486750E-04 Eh
   gradient norm :     0.0061555 Eh/α   predicted    -0.1446482E-04 (  -2.71%)
   displ. norm   :     0.0192224 α      lambda       -0.2088417E-04
   maximum displ.:     0.0182013 α      in ANC's #1, #10, #11, ...

........................................................................
.............................. CYCLE   30 ..............................
........................................................................

 iter      E             dE          RMSdq      gap      omega  full diag
   1    -26.7795380 -0.267795E+02  0.242E-02    3.11       0.0  T
   2    -26.7795385 -0.497487E-06  0.137E-02    3.11       2.8  T
   3    -26.7795385 -0.387500E-08  0.628E-03    3.11       6.0  T
   4    -26.7795386 -0.897505E-07  0.298E-03    3.11      12.7  T
   5    -26.7795386 -0.212806E-07  0.153E-03    3.11      24.7  T
   6    -26.7795386 -0.333522E-08  0.728E-04    3.11      51.9  T
   7    -26.7795386 -0.127527E-08  0.400E-04    3.11      94.4  T
     SCC iter.                  ...        0 min,  0.002 sec
     gradient                   ...        0 min,  0.002 sec
 * total energy  :   -26.7183079 Eh     change       -0.1712635E-04 Eh
   gradient norm :     0.0040318 Eh/α   predicted    -0.1044709E-04 ( -39.00%)
   displ. norm   :     0.1278971 α      lambda       -0.4587525E-04
   maximum displ.:     0.1251539 α      in ANC's #1, #11, #10, ...

........................................................................
.............................. CYCLE   31 ..............................
........................................................................

 iter      E             dE          RMSdq      gap      omega  full diag
   1    -26.7796836 -0.267797E+02  0.141E-01    3.12       0.0  T
   2    -26.7796872 -0.365521E-05  0.812E-02    3.11       1.0  T
   3    -26.7796872  0.459716E-07  0.231E-02    3.11       1.6  T
   4    -26.7796896 -0.240338E-05  0.113E-02    3.11       3.4  T
   5    -26.7796897 -0.114759E-06  0.467E-03    3.11       8.1  T
   6    -26.7796897 -0.445179E-07  0.331E-03    3.11      11.4  T
   7    -26.7796897 -0.229344E-07  0.190E-03    3.11      19.9  T
   8    -26.7796898 -0.107871E-07  0.897E-04    3.11      42.1  T
   9    -26.7796898 -0.219288E-08  0.542E-04    3.11      69.8  T
     SCC iter.                  ...        0 min,  0.002 sec
     gradient                   ...        0 min,  0.002 sec
 * total energy  :   -26.7183407 Eh     change       -0.3277076E-04 Eh
   gradient norm :     0.0029014 Eh/α   predicted    -0.2331337E-04 ( -28.86%)
   displ. norm   :     0.0949370 α      lambda       -0.2802523E-04
   maximum displ.:     0.0923413 α      in ANC's #1, #11, #10, ...

........................................................................
.............................. CYCLE   32 ..............................
........................................................................

 iter      E             dE          RMSdq      gap      omega  full diag
   1    -26.7796615 -0.267797E+02  0.104E-01    3.12       0.0  T
   2    -26.7796639 -0.239048E-05  0.608E-02    3.12       1.0  T
   3    -26.7796627  0.115199E-05  0.229E-02    3.12       1.7  T
   4    -26.7796655 -0.279638E-05  0.878E-03    3.12       4.3  T
   5    -26.7796656 -0.662555E-07  0.329E-03    3.12      11.5  T
   6    -26.7796656 -0.193278E-07  0.235E-03    3.12      16.1  T
   7    -26.7796656 -0.102646E-07  0.971E-04    3.12      38.9  T
   8    -26.7796656 -0.206319E-08  0.464E-04    3.12      81.4  T
     SCC iter.                  ...        0 min,  0.002 sec
     gradient                   ...        0 min,  0.002 sec
 * total energy  :   -26.7183603 Eh     change       -0.1965800E-04 Eh
   gradient norm :     0.0019519 Eh/α   predicted    -0.1414050E-04 ( -28.07%)
   displ. norm   :     0.1000100 α      lambda       -0.1367094E-04
   maximum displ.:     0.0966266 α      in ANC's #1, #11, #10, ...

........................................................................
.............................. CYCLE   33 ..............................
........................................................................

 iter      E             dE          RMSdq      gap      omega  full diag
   1    -26.7796484 -0.267796E+02  0.109E-01    3.12       0.0  T
   2    -26.7796508 -0.244165E-05  0.629E-02    3.12       1.0  T
   3    -26.7796504  0.381838E-06  0.202E-02    3.12       1.9  T
   4    -26.7796524 -0.194572E-05  0.912E-03    3.12       4.1  T
   5    -26.7796525 -0.733076E-07  0.380E-03    3.12      10.0  T
   6    -26.7796525 -0.227696E-07  0.244E-03    3.12      15.5  T
   7    -26.7796525 -0.856798E-08  0.164E-03    3.12      23.1  T
   8    -26.7796525 -0.574474E-08  0.539E-04    3.12      70.1  T
   9    -26.7796525 -0.572779E-09  0.280E-04    3.12     134.8  T
     SCC iter.                  ...        0 min,  0.002 sec
     gradient                   ...        0 min,  0.002 sec
 * total energy  :   -26.7183716 Eh     change       -0.1128924E-04 Eh
   gradient norm :     0.0014145 Eh/α   predicted    -0.6866582E-05 ( -39.18%)
   displ. norm   :     0.0397473 α      lambda       -0.4237072E-05
   maximum displ.:     0.0381697 α      in ANC's #1, #11, #10, ...

........................................................................
.............................. CYCLE   34 ..............................
........................................................................

 iter      E             dE          RMSdq      gap      omega  full diag
   1    -26.7796501 -0.267797E+02  0.438E-02    3.12       0.0  T
   2    -26.7796506 -0.515853E-06  0.258E-02    3.12       1.5  T
   3    -26.7796503  0.284514E-06  0.108E-02    3.12       3.5  T
   4    -26.7796510 -0.620756E-06  0.366E-03    3.12      10.3  T
   5    -26.7796510 -0.873209E-08  0.175E-03    3.12      21.7  T
   6    -26.7796510 -0.594334E-08  0.103E-03    3.12      36.7  T
   7    -26.7796510 -0.178440E-08  0.664E-04    3.12      56.9  T
   8    -26.7796510 -0.106684E-08  0.295E-04    3.12     128.3  T
     SCC iter.                  ...        0 min,  0.002 sec
     gradient                   ...        0 min,  0.002 sec
 * total energy  :   -26.7183764 Eh     change       -0.4824710E-05 Eh
   gradient norm :     0.0011687 Eh/α   predicted    -0.2121017E-05 ( -56.04%)
   displ. norm   :     0.0206040 α      lambda       -0.1244027E-04
   maximum displ.:     0.0131160 α      in ANC's #11, #10, #9, ...

........................................................................
.............................. CYCLE   35 ..............................
........................................................................

 iter      E             dE          RMSdq      gap      omega  full diag
   1    -26.7812865 -0.267813E+02  0.613E-02    3.18       0.0  T
   2    -26.7812970 -0.104792E-04  0.360E-02    3.17       1.0  T
   3    -26.7812977 -0.717415E-06  0.210E-02    3.17       1.8  T
   4    -26.7812977  0.152593E-07  0.133E-02    3.17       2.8  T
   5    -26.7812981 -0.405877E-06  0.379E-03    3.17      10.0  T
   6    -26.7812981 -0.184673E-07  0.285E-03    3.17      13.3  T
   7    -26.7812982 -0.213343E-07  0.203E-03    3.17      18.7  T
   8    -26.7812982 -0.192561E-07  0.109E-03    3.17      34.7  T
   9    -26.7812982 -0.546179E-08  0.381E-04    3.17      99.2  T
  10    -26.7812982 -0.305235E-09  0.201E-04    3.17     187.9  T
     SCC iter.                  ...        0 min,  0.002 sec
     gradient                   ...        0 min,  0.002 sec
 * total energy  :   -26.7183311 Eh     change        0.4534331E-04 Eh
   gradient norm :     0.0086213 Eh/α   predicted    -0.6219911E-05 (-113.72%)
   displ. norm   :     0.0319814 α      lambda       -0.6577594E-04
   maximum displ.:     0.0312583 α      in ANC's #1, #2, #9, ...

........................................................................
.............................. CYCLE   36 ..............................
........................................................................

 iter      E             dE          RMSdq      gap      omega  full diag
   1    -26.7803095 -0.267803E+02  0.484E-02    3.13       0.0  T
   2    -26.7803133 -0.373911E-05  0.263E-02    3.14       1.4  T
   3    -26.7803135 -0.182306E-06  0.136E-02    3.14       2.8  T
   4    -26.7803135 -0.641587E-07  0.595E-03    3.14       6.3  T
   5    -26.7803136 -0.921620E-07  0.285E-03    3.14      13.3  T
   6    -26.7803136 -0.688192E-08  0.191E-03    3.14      19.7  T
   7    -26.7803136 -0.946945E-08  0.128E-03    3.14      29.5  T
   8    -26.7803136 -0.575631E-08  0.688E-04    3.14      55.0  T
   9    -26.7803136 -0.187896E-08  0.336E-04    3.14     112.6  T
     SCC iter.                  ...        0 min,  0.002 sec
     gradient                   ...        0 min,  0.002 sec
 * total energy  :   -26.7183749 Eh     change       -0.4382972E-04 Eh
   gradient norm :     0.0026301 Eh/α   predicted    -0.3292168E-04 ( -24.89%)
   displ. norm   :     0.0299723 α      lambda       -0.1080129E-04
   maximum displ.:     0.0294038 α      in ANC's #1, #2, #10, ...

........................................................................
.............................. CYCLE   37 ..............................
........................................................................

 iter      E             dE          RMSdq      gap      omega  full diag
   1    -26.7797801 -0.267798E+02  0.372E-02    3.12       0.0  T
   2    -26.7797813 -0.116346E-05  0.209E-02    3.13       1.8  T
   3    -26.7797813 -0.713272E-07  0.861E-03    3.13       4.4  T
   4    -26.7797814 -0.816971E-07  0.376E-03    3.13      10.0  T
   5    -26.7797815 -0.329513E-07  0.206E-03    3.13      18.4  T
   6    -26.7797815 -0.330949E-08  0.126E-03    3.13      30.0  T
   7    -26.7797815 -0.420246E-08  0.836E-04    3.13      45.2  T
   8    -26.7797815 -0.232664E-08  0.426E-04    3.13      88.6  T
     SCC iter.                  ...        0 min,  0.002 sec
     gradient                   ...        0 min,  0.002 sec
 * total energy  :   -26.7183797 Eh     change       -0.4813167E-05 Eh
   gradient norm :     0.0006771 Eh/α   predicted    -0.5407899E-05 (  12.36%)
   displ. norm   :     0.0214332 α      lambda       -0.6334674E-06
   maximum displ.:     0.0206521 α      in ANC's #1, #11, #10, ...

........................................................................
.............................. CYCLE   38 ..............................
........................................................................

 iter      E             dE          RMSdq      gap      omega  full diag
   1    -26.7798908 -0.267799E+02  0.236E-02    3.13       0.0  T
   2    -26.7798910 -0.154030E-06  0.137E-02    3.13       2.8  T
   3    -26.7798909  0.476185E-07  0.522E-03    3.13       7.2  T
   4    -26.7798911 -0.133774E-06  0.204E-03    3.13      18.6  T
   5    -26.7798911 -0.373834E-08  0.109E-03    3.13      34.5  T
   6    -26.7798911 -0.150863E-08  0.632E-04    3.13      59.8  T
   7    -26.7798911 -0.719250E-09  0.446E-04    3.13      84.7  T
     SCC iter.                  ...        0 min,  0.001 sec
     gradient                   ...        0 min,  0.002 sec
 * total energy  :   -26.7183800 Eh     change       -0.2991948E-06 Eh
   gradient norm :     0.0002651 Eh/α   predicted    -0.3189586E-06 (   6.61%)
   displ. norm   :     0.0065445 α      lambda       -0.1051515E-06
   maximum displ.:     0.0063554 α      in ANC's #1, #11, #10, ...

........................................................................
.............................. CYCLE   39 ..............................
........................................................................

 iter      E             dE          RMSdq      gap      omega  full diag
   1    -26.7798524 -0.267799E+02  0.732E-03    3.13       0.0  T
   2    -26.7798524 -0.172478E-07  0.422E-03    3.13       9.0  T
   3    -26.7798524  0.953854E-09  0.149E-03    3.13      25.3  T
   4    -26.7798524 -0.853734E-08  0.648E-04    3.13      58.4  T
   5    -26.7798524 -0.455611E-09  0.406E-04    3.13      93.0  T
     SCC iter.                  ...        0 min,  0.001 sec
     gradient                   ...        0 min,  0.002 sec
 * total energy  :   -26.7183801 Eh     change       -0.9463545E-07 Eh
   gradient norm :     0.0001128 Eh/α   predicted    -0.5185615E-07 ( -45.20%)
   displ. norm   :     0.0027148 α      lambda       -0.1921490E-07
   maximum displ.:     0.0025963 α      in ANC's #1, #11, #10, ...

   *** GEOMETRY OPTIMIZATION CONVERGED AFTER 39 ITERATIONS ***

------------------------------------------------------------------------
 total energy gain   :        -0.0031628 Eh       -1.9847 kcal/mol
 total RMSD          :         0.4840258 a0        0.2561 Å
 total power (kW/mol):        -0.2129200 (step)  -48.0909 (real)
------------------------------------------------------------------------

 ANCopt (total)                0 d,  0 h,  0 min,  0.173 sec
 optimizer setup                ...        0 min,  0.000 sec (  0.025%)
 model hessian                  ...        0 min,  0.000 sec (  0.132%)
 ANC generation                 ...        0 min,  0.000 sec (  0.052%)
 coordinate transformation      ...        0 min,  0.000 sec (  0.044%)
 single point calculation       ...        0 min,  0.170 sec ( 98.422%)
 optimization log               ...        0 min,  0.001 sec (  0.487%)
 hessian update                 ...        0 min,  0.000 sec (  0.048%)
 rational function              ...        0 min,  0.001 sec (  0.421%)

================
 final structure:
================
$coord
        0.36567974785926        0.05446604063000        0.10135805840825      C
       -2.53203603874383        0.01791976283228       -0.37977038977596      N
       -3.25753574901719        1.35286668837104       -2.03795346598335      O
       -3.71116664834100       -1.40089694236804        0.90673594163553      O
        1.55319452287225       -2.33766209088038       -1.93770844630844      Cl
        1.54026330464746        3.03878233732485       -0.73067361113169      Cl
        0.91989356439252       -0.69061426286281        3.28263638250036      Cl
$end

 Bond Distances (Angstroems)
 ---------------------------
C1-N2=1.5545         C1-Cl5=1.7781        C1-Cl6=1.7533        C1-Cl7=1.7537        N2-C1=1.5545         N2-O3=1.1901         
N2-O4=1.1902         O3-N2=1.1901         O4-N2=1.1902         Cl5-C1=1.7781        Cl6-C1=1.7533        Cl7-C1=1.7537        
 N  C  Rav=1.5545 sigma=0.0000  Rmin=1.5545  Rmax=1.5545     1
 O  N  Rav=1.1901 sigma=0.0000  Rmin=1.1901  Rmax=1.1902     2
 Cl C  Rav=1.7617 sigma=0.0116  Rmin=1.7533  Rmax=1.7781     3

 selected bond angles (degree)
 --------------------
Cl5-C1-N2=103.91               Cl6-C1-N2=108.65               Cl6-C1-Cl5=111.32              Cl7-C1-N2=108.63               
Cl7-C1-Cl5=111.31              Cl7-C1-Cl6=112.60              O3-N2-C1=115.57                O4-N2-C1=115.55                
O4-N2-O3=128.83                

 selected dihedral angles (degree)
 ---------------------------------
O3-N2-C1-Cl5=270.95           O3-N2-C1-Cl6= 29.56           O3-N2-C1-Cl7=152.37           O4-N2-C1-Cl5= 88.67           
O4-N2-C1-Cl6=207.28           O4-N2-C1-Cl7=330.08           
           -------------------------------------------------
          |                Final Singlepoint                |
           -------------------------------------------------

          ...................................................
          :                      SETUP                      :
          :.................................................:
          :  # basis functions                  46          :
          :  # atomic orbitals                  43          :
          :  # shells                           17          :
          :  # electrons                        42          :
          :  max. iterations                   250          :
          :  Hamiltonian                  GFN2-xTB          :
          :  restarted?                      false          :
          :  GBSA solvation                  false          :
          :  PC potential                    false          :
          :  electronic temp.          300.0000000     K    :
          :  accuracy                    1.0000000          :
          :  -> integral cutoff          0.2500000E+02      :
          :  -> integral neglect         0.1000000E-07      :
          :  -> SCF convergence          0.1000000E-05 Eh   :
          :  -> wf. convergence          0.1000000E-03 e    :
          :  Broyden damping             0.4000000          :
          :  net charge                          0          :
          :  unpaired electrons                  0          :
          ...................................................

 iter      E             dE          RMSdq      gap      omega  full diag
   1    -26.7798524 -0.267799E+02  0.247E-04    3.13       0.0  T
   2    -26.7798524 -0.821530E-10  0.202E-04    3.13     187.0  T
   3    -26.7798524 -0.487290E-10  0.173E-04    3.13     217.9  T

   *** convergence criteria satisfied after 3 iterations ***

         #    Occupation            Energy/Eh            Energy/eV
      -------------------------------------------------------------
         1        2.0000           -1.1154615             -30.3533
       ...           ...                  ...                  ...
        15        2.0000           -0.5130946             -13.9620
        16        2.0000           -0.4911815             -13.3657
        17        2.0000           -0.4904449             -13.3457
        18        2.0000           -0.4793586             -13.0440
        19        2.0000           -0.4771534             -12.9840
        20        2.0000           -0.4736625             -12.8890
        21        2.0000           -0.4683644             -12.7448 (HOMO)
        22                         -0.3534030              -9.6166 (LUMO)
        23                         -0.2705179              -7.3612
        24                         -0.2033662              -5.5339
        25                         -0.2016734              -5.4878
        26                         -0.1623076              -4.4166
       ...                                ...                  ...
        43                          0.4632991              12.6070
      -------------------------------------------------------------
                  HL-Gap            0.1149614 Eh            3.1283 eV
             Fermi-level           -0.4108837 Eh          -11.1807 eV

 SCC (total)                   0 d,  0 h,  0 min,  0.004 sec
 SCC setup                      ...        0 min,  0.000 sec (  0.753%)
 Dispersion                     ...        0 min,  0.000 sec (  0.228%)
 classical contributions        ...        0 min,  0.000 sec (  0.099%)
 integral evaluation            ...        0 min,  0.001 sec ( 27.575%)
 iterations                     ...        0 min,  0.001 sec ( 20.648%)
 molecular gradient             ...        0 min,  0.002 sec ( 49.315%)
 printout                       ...        0 min,  0.000 sec (  1.184%)

         :::::::::::::::::::::::::::::::::::::::::::::::::::::
         ::                     SUMMARY                     ::
         :::::::::::::::::::::::::::::::::::::::::::::::::::::
         :: total energy             -26.718380126235 Eh    ::
         :: gradient norm              0.000116243042 Eh/a0 ::
         :: HOMO-LUMO gap              3.128259376799 eV    ::
         ::.................................................::
         :: SCC energy               -26.779848937249 Eh    ::
         :: -> isotropic ES            0.047723203584 Eh    ::
         :: -> anisotropic ES          0.013951689930 Eh    ::
         :: -> anisotropic XC         -0.004356952583 Eh    ::
         :: -> dispersion             -0.007825361612 Eh    ::
         :: repulsion energy           0.061468811015 Eh    ::
         :: add. restraining           0.000000000000 Eh    ::
         :: total charge              -0.000000000000 e     ::
         :::::::::::::::::::::::::::::::::::::::::::::::::::::

           ------------------------------------------------- 
          |                Numerical Hessian                |
           ------------------------------------------------- 
step length          :   0.00500
SCC accuracy         :   0.30000
Hessian scale factor :   1.00000
frozen atoms in %    :   0.00000    0
RMS gradient         :   0.00012
estimated CPU  time      0.00 min
estimated wall time      0.00 min

writing file <hessian>, containing the non-mass-weighted Hessian matrix in atomic units (Eₕ/Bohr²).

 projected vibrational frequencies (cm⁻¹)
eigval :       -0.00    -0.00    -0.00     0.00     0.00     0.00
eigval :       31.74   148.93   171.14   234.29   234.74   248.50
eigval :      406.95   425.72   594.06   670.29   749.67   754.58
eigval :      775.74  1323.79  1794.01
           -------------------------------------------------
          |                Property Printout                |
           -------------------------------------------------

    * Orbital Energies and Occupations

         #    Occupation            Energy/Eh            Energy/eV
      -------------------------------------------------------------
         1        2.0000           -1.1154618             -30.3533
       ...           ...                  ...                  ...
         9        2.0000           -0.6512663             -17.7219
        10        2.0000           -0.6406519             -17.4330
        11        2.0000           -0.5928179             -16.1314
        12        2.0000           -0.5919625             -16.1081
        13        2.0000           -0.5271664             -14.3449
        14        2.0000           -0.5235707             -14.2471
        15        2.0000           -0.5130951             -13.9620
        16        2.0000           -0.4911818             -13.3657
        17        2.0000           -0.4904453             -13.3457
        18        2.0000           -0.4793589             -13.0440
        19        2.0000           -0.4771537             -12.9840
        20        2.0000           -0.4736628             -12.8890
        21        2.0000           -0.4683648             -12.7449 (HOMO)
        22                         -0.3534035              -9.6166 (LUMO)
        23                         -0.2705183              -7.3612
        24                         -0.2033663              -5.5339
        25                         -0.2016739              -5.4878
        26                         -0.1623077              -4.4166
        27                         -0.0483207              -1.3149
        28                         -0.0479659              -1.3052
        29                         -0.0463676              -1.2617
        30                         -0.0458365              -1.2473
        31                         -0.0453407              -1.2338
        32                         -0.0448414              -1.2202
       ...                                ...                  ...
        43                          0.4632985              12.6070
      -------------------------------------------------------------
                  HL-Gap            0.1149613 Eh            3.1283 eV
             Fermi-level           -0.4108841 Eh          -11.1807 eV

     #   Z          covCN         q      C6AA      α(0)
     1   6          3.567     0.193    18.258     6.222
     2   7          2.831     0.556    13.415     5.440
     3   8          0.928    -0.301    19.779     5.964
     4   8          0.928    -0.302    19.780     5.964
     5  17          1.194    -0.057   100.949    15.372
     6  17          1.175    -0.045   100.587    15.344
     7  17          1.175    -0.045   100.592    15.344

 Mol. C6AA /au·bohr⁶  :       2194.629254
 Mol. C8AA /au·bohr⁸  :      75164.870177
 Mol. α(0) /au        :         69.650404


Wiberg/Mayer (AO) data.
largest (>0.10) Wiberg bond orders for each atom

 ---------------------------------------------------------------------------
     #   Z sym  total        # sym  WBO       # sym  WBO       # sym  WBO
 ---------------------------------------------------------------------------
     1   6      3.933 --     6      1.004     7      1.004     5      0.968
                             2      0.813
     2   7      3.922 --     3      1.517     4      1.517     1      0.813
     3   8      2.032 --     2      1.517     4      0.399
     4   8      2.032 --     2      1.517     3      0.399
     5  17      1.132 --     1      0.968
     6  17      1.148 --     1      1.004
     7  17      1.147 --     1      1.004
 ---------------------------------------------------------------------------

Topologies differ in total number of bonds
Writing topology from bond orders to xtbtopo.mol

molecular dipole:
                 x           y           z       tot (Debye)
 q only:        0.566       0.062       0.144
   full:        0.894       0.014       0.151       2.304
molecular quadrupole (traceless):
                xx          xy          yy          xz          yz          zz
 q only:       -2.030      -0.354       1.204      -0.540       1.735       0.827
  q+dip:       -2.399      -0.865       1.542      -0.900       3.014       0.857
   full:       -3.575      -0.917       2.173      -1.185       3.267       1.401

           -------------------------------------------------
          |                Geometry Summary                 |
           -------------------------------------------------

      molecular mass/u    :      164.3750617
   center of mass at/Å    :       -0.0009123       0.0016392      -0.0013638
  moments of inertia/u·Å² :        0.3373059E+03   0.3430866E+03   0.3813323E+03
rotational constants/cm⁻¹ :        0.4997729E-01   0.4913521E-01   0.4420720E-01

 * 5 selected distances

     #   Z          #   Z                                           value/Å
     2   7          3   8                                         1.1901200 (min)
     2   7          4   8                                         1.1901770
     1   6          5  17                                         1.7780876 (max)
     1   6          6  17                                         1.7533318
     1   6          7  17                                         1.7537121

 * 2 distinct bonds (by element types)

   Z      Z             #   av. dist./Å        max./Å        min./Å
Molecule has the following symmetry elements: (sigma) 
It seems to be the Cs point group
   7 N    8 O           2     1.1901485     1.1901770     1.1901200
   6 C   17 Cl          3     1.7617105     1.7780876     1.7533318

           -------------------------------------------------
          |               Frequency Printout                |
           -------------------------------------------------
 projected vibrational frequencies (cm⁻¹)
eigval :       -0.00    -0.00    -0.00     0.00     0.00     0.00
eigval :       31.74   148.93   171.14   234.29   234.74   248.50
eigval :      406.95   425.72   594.06   670.29   749.67   754.58
eigval :      775.74  1323.79  1794.01
 reduced masses (amu)
    1:     27.51    2:     19.97    3:     20.09    4:     30.77    5:     27.48    6:     23.89
    7:     17.04    8:     24.63    9:     25.94   10:     26.50   11:     26.84   12:     22.10
   13:     29.22   14:     18.43   15:     14.38   16:     12.84   17:     13.62   18:     15.02
   19:     12.77   20:     15.33   21:     14.63
 IR intensities (km·mol⁻¹)
    1:      0.10    2:      0.42    3:      0.49    4:      0.39    5:      0.10    6:      0.08
    7:      0.01    8:      2.83    9:      0.75   10:      7.96   11:      5.75   12:      5.51
   13:      2.19   14:      6.88   15:      0.24   16:      4.16   17:     12.59   18:    125.33
   19:      0.97   20:    148.54   21:    249.28
 Raman intensities (Ä⁴*amu⁻¹)
    1:      0.00    2:      0.00    3:      0.00    4:      0.00    5:      0.00    6:      0.00
    7:      0.00    8:      0.00    9:      0.00   10:      0.00   11:      0.00   12:      0.00
   13:      0.00   14:      0.00   15:      0.00   16:      0.00   17:      0.00   18:      0.00
   19:      0.00   20:      0.00   21:      0.00
 output can be read by thermo (or use thermo option).
 writing <g98.out> molden fake output.
 recommended (thermochemical) frequency scaling factor: 1.0
           -------------------------------------------------
          |             Thermodynamic Functions             |
           -------------------------------------------------

cs  symmetry found (for desy threshold:  0.10E+00) used in thermo

          ...................................................
          :                      SETUP                      :
          :.................................................:
          :  # frequencies                          15      :
          :  # imaginary freq.                       0      :
          :  linear?                             false      :
          :  only rotor calc.                    false      :
          :  symmetry                               cs      :
          :  rotational number                       1      :
          :  scaling factor                  1.0000000      :
          :  rotor cutoff                    0.0000000 cm⁻¹ :
          :  imag. cutoff                 -100.0000000 cm⁻¹ :
          :.................................................:

    mode    ω/cm⁻¹     T·S(HO)/kcal·mol⁻¹    T·S(FR)/kcal·mol⁻¹   T·S(vib)
   ------------------------------------------------------------------------
       1     31.74    -1.70469 (100.00%)    -1.19073 (  0.00%)    -1.70469
       2    148.93    -0.80079 (100.00%)    -0.73313 (  0.00%)    -0.80079
       3    171.14    -0.72239 (100.00%)    -0.69195 (  0.00%)    -0.72239
       4    234.29    -0.55033 (100.00%)    -0.59893 (  0.00%)    -0.55033
       5    234.74    -0.54930 (100.00%)    -0.59836 (  0.00%)    -0.54930
       6    248.50    -0.51913 (100.00%)    -0.58149 (  0.00%)    -0.51913
   ------------------------------------------------------------------------

   temp. (K)  partition function   enthalpy   heat capacity  entropy
                                   cal/mol     cal/K/mol   cal/K/mol   J/K/mol
 298.15  VIB   122.                 3007.270     18.227     19.625
         ROT  0.507E+06              888.727      2.981     29.087
         INT  0.617E+08             3895.997     21.208     48.712
         TR   0.645E+26             1481.212      4.968     41.199
         TOT                        5377.2097    26.1763    89.9117   376.1907

       T/K    H(0)-H(T)+PV         H(T)/Eh          T*S/Eh         G(T)/Eh
   ------------------------------------------------------------------------
    298.15    0.856913E-02    0.280797E-01    0.427200E-01   -0.146403E-01
   ------------------------------------------------------------------------

         :::::::::::::::::::::::::::::::::::::::::::::::::::::
         ::                  THERMODYNAMIC                  ::
         :::::::::::::::::::::::::::::::::::::::::::::::::::::
         :: total free energy         -26.733020383930 Eh   ::
         ::.................................................::
         :: total energy              -26.718380126365 Eh   ::
         :: zero point energy           0.019510574741 Eh   ::
         :: G(RRHO) w/o ZPVE           -0.034150832306 Eh   ::
         :: G(RRHO) contrib.           -0.014640257565 Eh   ::
         :::::::::::::::::::::::::::::::::::::::::::::::::::::

optimized geometry written to: xtbopt.coord


           -------------------------------------------------
          | TOTAL ENERGY              -26.718380126365 Eh   |
          | TOTAL ENTHALPY            -26.690300422527 Eh   |
          | TOTAL FREE ENERGY         -26.733020383930 Eh   |
          | GRADIENT NORM               0.000117075029 Eh/α |
          | HOMO-LUMO GAP               3.128255920343 eV   |
           -------------------------------------------------

------------------------------------------------------------------------
 * finished run on 2025/04/09 at 04:12:18.562     
------------------------------------------------------------------------
 total:
 * wall-time:     0 d,  0 h,  0 min,  0.389 sec
 *  cpu-time:     0 d,  0 h,  0 min,  0.386 sec
 * ratio c/w:     0.991 speedup
 SCF:
 * wall-time:     0 d,  0 h,  0 min,  0.007 sec
 *  cpu-time:     0 d,  0 h,  0 min,  0.007 sec
 * ratio c/w:     0.994 speedup
 ANC optimizer:
 * wall-time:     0 d,  0 h,  0 min,  0.176 sec
 *  cpu-time:     0 d,  0 h,  0 min,  0.175 sec
 * ratio c/w:     0.991 speedup
 analytical hessian:
 * wall-time:     0 d,  0 h,  0 min,  0.202 sec
 *  cpu-time:     0 d,  0 h,  0 min,  0.200 sec
 * ratio c/w:     0.991 speedup

