
                                 *****************
                                 * O   R   C   A *
                                 *****************

                                            #,                                       
                                            ###                                      
                                            ####                                     
                                            #####                                    
                                            ######                                   
                                           ########,                                 
                                     ,,################,,,,,                         
                               ,,#################################,,                 
                          ,,##########################################,,             
                       ,#########################################, ''#####,          
                    ,#############################################,,   '####,        
                  ,##################################################,,,,####,       
                ,###########''''           ''''###############################       
              ,#####''   ,,,,##########,,,,          '''####'''          '####       
            ,##' ,,,,###########################,,,                        '##       
           ' ,,###''''                  '''############,,,                           
         ,,##''                                '''############,,,,        ,,,,,,###''
      ,#''                                            '''#######################'''  
     '                                                          ''''####''''         
             ,#######,   #######,   ,#######,      ##                                
            ,#'     '#,  ##    ##  ,#'     '#,    #''#        ,####,   ,####,        
            ##       ##  ##   ,#'  ##            #'  '#       #'       #'  '#        
            ##       ##  #######   ##           ,######,      #####,   #    #        
            '#,     ,#'  ##    ##  '#,     ,#' ,#      #,     #,   #   #,  ,#        
             '#######'   ##     ##  '#######'  #'      '#     '####' # '####'        



                #########################################################
                #                        -***-                          #
                #          Department of theory and spectroscopy        #
                #                                                       #
                #                      Frank Neese                      #
                #                                                       #
                #     Directorship, Architecture, Infrastructure        #
                #                    SHARK, DRIVERS                     #
                #        Core code/Algorithms in most modules           #
                #                                                       #
                #        Max Planck Institute fuer Kohlenforschung      #
                #                Kaiser Wilhelm Platz 1                 #
                #                 D-45470 Muelheim/Ruhr                 #
                #                      Germany                          #
                #                                                       #
                #                  All rights reserved                  #
                #                        -***-                          #
                #########################################################


                         Program Version 6.0.1  -  RELEASE   -


 With contributions from (in alphabetic order):
[Max-Planck-Institut fuer Kohlenforschung]                               
  Daniel Aravena         : Magnetic Suceptibility                        
  Michael Atanasov       : Ab Initio Ligand Field Theory (pilot matlab implementation)
  Alexander A. Auer      : GIAO ZORA, VPT2 properties, NMR spectrum      
  Ute Becker             : All parallelization in ORCA, NUMFREQ, NUMCALC 
  Giovanni Bistoni       : ED, misc. LED, open-shell LED, HFLD           
  Martin Brehm           : Molecular dynamics                            
  Dmytro Bykov           : pre 5.0 version of the SCF Hessian            
  Marcos Casanova-Páez   : Triplet and SCS-CIS(D). UHF-(DLPNO)-IP/EA/STEOM-CCSD. UHF-CVS-IP/STEOM-CCSD   
  Vijay G. Chilkuri      : MRCI spin determinant printing, contributions to CSF-ICE 
  Pauline Colinet        : FMM embedding                                 
  Dipayan Datta          : RHF DLPNO-CCSD density                        
  Achintya Kumar Dutta   : EOM-CC, STEOM-CC                              
  Nicolas Foglia         : Exact transition moments, OPA infrastructure, MCD improvements    
  Dmitry Ganyushin       : Spin-Orbit,Spin-Spin,Magnetic field MRCI      
  Miquel Garcia-Rates    : C-PCM and meta-GGA Hessian, CCSD/C-PCM, Gaussian charge scheme 
  Tiago L. C. Gouveia    : GS-ROHF, GS-ROCIS                             
  Yang Guo               : DLPNO-NEVPT2, F12-NEVPT2, CIM, IAO-localization        
  Andreas Hansen         : Spin unrestricted coupled pair/coupled cluster methods 
  Ingolf Harden          : AUTO-CI MPn and infrastructure                
  Benjamin Helmich-Paris : MC-RPA, TRAH-(SCF,CASSCF), AVAS, COSX integrals, SCF dyn. polar. 
  Lee Huntington         : MR-EOM, pCC                                   
  Robert Izsak           : Overlap fitted RIJCOSX, COSX-SCS-MP3, EOM     
  Riya Kayal             : Wick's Theorem for AUTO-CI, AUTO-CI UHF-CCSDT 
  Emily Kempfer          : AUTO-CI, RHF CISDT and CCSDT                  
  Christian Kollmar      : KDIIS, OOCD, Brueckner-CCSD(T), CCSD density, CASPT2, CASPT2-K, improved NEVPT2 
  Axel Koslowski         : Symmetry handling                             
  Simone Kossmann        : meta-GGA functionals, TD-DFT gradient, OOMP2, (MP2 Hessian; deprecated post 5.0) 
  Lucas Lang             : DCDCAS                                        
  Marvin Lechner         : AUTO-CI (C++ implementation), FIC-MRCC        
  Spencer Leger          : CASSCF response                               
  Dagmar Lenk            : GEPOL surface, SMD, ORCA-2-JSON               
  Dimitrios Liakos       : Extrapolation schemes; Compound Job, initial MDCI parallelization 
  Dimitrios Manganas     : Further ROCIS development; embedding schemes. LFT, Crystal Embedding 
  Dimitrios Pantazis     : SARC Basis sets                               
  Anastasios Papadopoulos: AUTO-CI, single reference methods and gradients 
  Taras Petrenko         : pre 6.0 DFT Hessian and TD-DFT gradient, (ASA, deprecated), ECA, 1-Electron XAS/XES, NRVS 
  Peter Pinski           : DLPNO-MP2, DLPNO-MP2 Gradient                 
  Christoph Reimann      : Effective Core Potentials                     
  Marius Retegan         : Local ZFS, SOC                                
  Christoph Riplinger    : Optimizer, TS searches, QM/MM, DLPNO-CCSD(T), (RO)-DLPNO pert. Triples 
  Michael Roemelt        : Original ROCIS implementation                 
  Masaaki Saitow         : Open-shell DLPNO-CCSD energy and density      
  Barbara Sandhoefer     : DKH picture change effects                    
  Kantharuban Sivalingam : CASSCF convergence/infrastructure, NEVPT2 and variants, FIC-MRCI 
  Bernardo de Souza      : ESD, SOC TD-DFT                               
  Georgi L. Stoychev     : AutoAux, RI-MP2 NMR, DLPNO-MP2 response, X2C  
  Van Anh Tran           : RI-MP2 g-tensors                              
  Willem Van den Heuvel  : Paramagnetic NMR                              
  Zikuan Wang            : NOTCH, Electric field optimization            
  Frank Wennmohs         : Technical directorship and infrastructure     
  Hang Xu                : AUTO-CI-Response properties                   
                                                                         
[FACCTs GmbH]                                                            
  Markus Bursch, Miquel Garcia-Rates, Christoph Riplinger, Bernardo de Souza, Georgi L. Stoychev 
                                                                 
  APM, Basis sets (HGBS, AHGBS, def-TZVP (Ac-Lr), def2-XVPD (La-Lu)), CI-OPT, improved COSX, DLPNO-Multilevel,           
  DOCKER, DRACO, updates on ESD, GOAT, IRC, LR-CPCM, MBIS, meta-GGA TD-DFT gradient, ML-optimized integration grids, 
  MM, NACMEs, nearIR, NEB, NEB-TS, NL-DFT gradient (VV10), 2- and 3-layer-ONIOM, interface openCOSMO-RS, QMMM,   
  Crystal-QMMM, SF, symmetry and pop. for TD-DFT, r2SCAN hybrids, SOLVATOR                                   
                                                                         
[Other institutions]                                                     
  V. Asgeirsson          : NEB                                           
  Christoph Bannwarth    : sTDA-DFT, sTD-DFT, PBEh-3c, B97-3c, D3        
  Sebastian Ehlert       : rSCAN, r2SCAN, r2SCAN-3c, D4, dhf basis sets  
  Marvin Friede          : D4 for Fr, Ra, Ac-Lr                          
  Lars Goerigk           : TD-DFT with DH, B97 family of functionals     
  Stefan Grimme          : VdW corrections, initial TS optimization, DFT functionals, gCP, sTDA/sTD-DF 
  Waldemar Hujo          : DFT-NL                                        
  H. Jonsson             : NEB                                           
  Holger Kruse           : gCP                                           
  Marcel Mueller         : wB97X-3c, vDZP basis set                      
  Hagen Neugebauer       : wr2SCAN                                       
  Tobias Risthaus        : range-separated hybrid DFT                    
  Lukas Wittmann         : regularized MP2, r2SCAN double-hybrids, wr2SCAN        
                                                                         
We gratefully acknowledge several colleagues who have allowed us to      
interface, adapt or use parts of their codes:                            
  Ed Valeev, F. Pavosevic, A. Kumar             : LibInt (2-el integral package), F12 methods 
  Garnet Chan, S. Sharma, J. Yang, R. Olivares  : DMRG                   
  Ulf Ekstrom                                   : XCFun DFT Library      
  Mihaly Kallay                                 : mrcc  (arbitrary order and MRCC methods)
  Frank Weinhold                                : gennbo (NPA and NBO analysis)           
  Simon Mueller                                 : openCOSMO-RS                            
  Christopher J. Cramer and Donald G. Truhlar   : smd solvation model                     
  S Lehtola, MJT Oliveira, MAL Marques          : LibXC Library                           
  Liviu Ungur et al                             : ANISO software                          


 Your calculation uses the libint2 library for the computation of 2-el integrals
 For citations please refer to: http://libint.valeyev.net

 Your ORCA version has been built with support for libXC version: 6.2.2
 For citations please refer to: https://libxc.gitlab.io

 This ORCA versions uses:
   CBLAS   interface :  Fast vector & matrix operations
   LAPACKE interface :  Fast linear algebra routines
   SCALAPACK package :  Parallel linear algebra routines
   Shared memory     :  Shared parallel matrices
   BLAS/LAPACK       :  OpenBLAS 0.3.27  USE64BITINT DYNAMIC_ARCH NO_AFFINITY Zen SINGLE_THREADED
        Core in use  :  Zen
   Copyright (c) 2011-2014, The OpenBLAS Project


Your calculation utilizes the geometrical counterpoise correction gCP
Please cite in your paper:
H.Kruse, S. Grimme J.Chem.Phys., 136, (2012), 154101 
   

Your calculation utilizes the atom-pairwise dispersion correction
based on EEQ partial charges (D4)


================================================================================

----- Orbital basis set information -----
Your calculation utilizes the basis: def2-mTZVPP
   Stefan Grimme, Andreas Hansen, Sebastian Ehlert, and Jan-Michael Mewes 
   J. Chem. Phys. 154, 064103 (2021). DOI: 10.1063/5.0040021

----- AuxJ basis set information -----
Your calculation utilizes the auxiliary basis: def2/J
   F. Weigend, Phys. Chem. Chem. Phys. 8, 1057 (2006).

================================================================================
                                        WARNINGS
                       Please study these warnings very carefully!
================================================================================

WARNING: Old DensityContainer found on disk!
         Will remove this file - 
         If you want to keep old densities, please start your calculation with a different basename. 



WARNING: SCAN, rSCAN, or r2SCAN functional requested.
  ===> : libXC variant has now been activated.



================================================================================
                                       INPUT FILE
================================================================================
NAME = sp.inp
|  1> ! r2scan-3c def2/J RI DEFGRID2 scfconv6 printgap
|  2> %output
|  3>     printlevel normal
|  4> end
|  5> * xyz 0 1
|  6> C 0.8420964202 1.3997079451 -0.6272265162
|  7> C 1.5871744755 0.183863849 -0.0579219839
|  8> H 2.570318986 0.0981953496 -0.5463837287
|  9> C 0.7845440153 -1.1070599458 -0.3371950739
| 10> H 1.2285442705 -1.9174208759 0.2520649437
| 11> C -0.6749958656 -0.9158427601 0.1158962653
| 12> H -1.2824649598 -1.7555269465 -0.2408481185
| 13> C -1.2753330015 0.3973207012 -0.4498983403
| 14> H -1.3703661764 0.3500744225 -1.5490234321
| 15> O -0.4529869834 1.5005941702 -0.0982083554
| 16> O -2.5317395912 0.6068489684 0.0583470333
| 17> O -0.7948085285 -0.8977041887 1.5142663953
| 18> O 0.8903569674 -1.5102644497 -1.6748326944
| 19> O 1.7336141778 0.2853225397 1.3426747821
| 20> H 0.8130191023 1.3350158024 -1.7266469268
| 21> H 1.3485328356 2.3274285403 -0.3465711673
| 22> H -2.4928698279 0.4079306491 1.0083630406
| 23> H -0.0643265342 -0.3608491249 1.8627398429
| 24> H 0.4251624381 -0.8877178827 -2.2450991925
| 25> H 2.111084566 1.1448314484 1.5627554347
| 26> *
| 27> 
| 28>                          ****END OF INPUT****
================================================================================

                       ****************************
                       * Single Point Calculation *
                       ****************************

---------------------------------
CARTESIAN COORDINATES (ANGSTROEM)
---------------------------------
  C      0.842096    1.399708   -0.627227
  C      1.587174    0.183864   -0.057922
  H      2.570319    0.098195   -0.546384
  C      0.784544   -1.107060   -0.337195
  H      1.228544   -1.917421    0.252065
  C     -0.674996   -0.915843    0.115896
  H     -1.282465   -1.755527   -0.240848
  C     -1.275333    0.397321   -0.449898
  H     -1.370366    0.350074   -1.549023
  O     -0.452987    1.500594   -0.098208
  O     -2.531740    0.606849    0.058347
  O     -0.794809   -0.897704    1.514266
  O      0.890357   -1.510264   -1.674833
  O      1.733614    0.285323    1.342675
  H      0.813019    1.335016   -1.726647
  H      1.348533    2.327429   -0.346571
  H     -2.492870    0.407931    1.008363
  H     -0.064327   -0.360849    1.862740
  H      0.425162   -0.887718   -2.245099
  H      2.111085    1.144831    1.562755

----------------------------
CARTESIAN COORDINATES (A.U.)
----------------------------
  NO LB      ZA    FRAG     MASS         X           Y           Z
   0 C     6.0000    0    12.011    1.591332    2.645065   -1.185286
   1 C     6.0000    0    12.011    2.999325    0.347452   -0.109457
   2 H     1.0000    0     1.008    4.857199    0.185562   -1.032516
   3 C     6.0000    0    12.011    1.482573   -2.092040   -0.637206
   4 H     1.0000    0     1.008    2.321612   -3.623400    0.476334
   5 C     6.0000    0    12.011   -1.275557   -1.730692    0.219012
   6 H     1.0000    0     1.008   -2.423508   -3.317465   -0.455137
   7 C     6.0000    0    12.011   -2.410030    0.750827   -0.850185
   8 H     1.0000    0     1.008   -2.589617    0.661545   -2.927230
   9 O     8.0000    0    15.999   -0.856021    2.835712   -0.185587
  10 O     8.0000    0    15.999   -4.784294    1.146778    0.110260
  11 O     8.0000    0    15.999   -1.501970   -1.696415    2.861549
  12 O     8.0000    0    15.999    1.682531   -2.853986   -3.164975
  13 O     8.0000    0    15.999    3.276056    0.539181    2.537288
  14 H     1.0000    0     1.008    1.536383    2.522814   -3.262890
  15 H     1.0000    0     1.008    2.548358    4.398203   -0.654925
  16 H     1.0000    0     1.008   -4.710841    0.770877    1.905530
  17 H     1.0000    0     1.008   -0.121560   -0.681906    3.520068
  18 H     1.0000    0     1.008    0.803441   -1.677544   -4.242623
  19 H     1.0000    0     1.008    3.989372    2.163418    2.953180

--------------------------------
INTERNAL COORDINATES (ANGSTROEM)
--------------------------------
 C      0   0   0     0.000000000000     0.00000000     0.00000000
 C      1   0   0     1.535423663035     0.00000000     0.00000000
 H      2   1   0     1.101138999604   109.29245457     0.00000000
 C      2   1   3     1.545539827510   110.02349910   240.87174705
 H      4   2   1     1.095923552075   108.06298873   191.49837851
 C      4   2   1     1.540166366891   109.58934807   309.57166377
 H      6   4   2     1.096063314171   109.53311240   170.00279089
 C      6   4   2     1.550782540706   111.38619165    50.11203964
 H      8   6   4     1.104237059062   111.11502789    66.38661441
 O      1   2   3     1.402597328941   111.41817342   176.13292031
 O      8   6   4     1.371412765430   110.41494091   185.26537940
 O      6   4   2     1.403610737505   112.06023789   288.17895301
 O      4   2   1     1.401086955394   111.94171883    75.55440763
 O      2   1   3     1.411881635711   111.17659207   122.46190117
 H      1   2   3     1.101705860467   109.65284027    53.01083566
 H      1   2   3     1.093577052826   110.60261878   293.33066441
 H     11   8   6     0.971395784620   107.12745160    43.61477649
 H     12   6   4     0.971211123910   107.48187911    42.53213869
 H     13   4   2     0.963936749496   110.02954127   290.83070194
 H     14   2   1     0.964196531705   109.33505199   308.76249951

---------------------------
INTERNAL COORDINATES (A.U.)
---------------------------
 C      0   0   0     0.000000000000     0.00000000     0.00000000
 C      1   0   0     2.901530222679     0.00000000     0.00000000
 H      2   1   0     2.080851144631   109.29245457     0.00000000
 C      2   1   3     2.920647003062   110.02349910   240.87174705
 H      4   2   1     2.070995377135   108.06298873   191.49837851
 C      4   2   1     2.910492634101   109.58934807   309.57166377
 H      6   4   2     2.071259489221   109.53311240   170.00279089
 C      6   4   2     2.930554295202   111.38619165    50.11203964
 H      8   6   4     2.086705628555   111.11502789    66.38661441
 O      1   2   3     2.650524827867   111.41817342   176.13292031
 O      8   6   4     2.591594543226   110.41494091   185.26537940
 O      6   4   2     2.652439892516   112.06023789   288.17895301
 O      4   2   1     2.647670635504   111.94171883    75.55440763
 O      2   1   3     2.668069625007   111.17659207   122.46190117
 H      1   2   3     2.081922356419   109.65284027    53.01083566
 H      1   2   3     2.066561136182   110.60261878   293.33066441
 H     11   8   6     1.835672000578   107.12745160    43.61477649
 H     12   6   4     1.835323042408   107.48187911    42.53213869
 H     13   4   2     1.821576466970   110.02954127   290.83070194
 H     14   2   1     1.822067384199   109.33505199   308.76249951

---------------------
BASIS SET INFORMATION
---------------------
There are 3 groups of distinct atoms

 Group   1 Type C   : 11s6p1d contracted to 5s3p1d pattern {62111/411/1}
 Group   2 Type H   : 4s1p contracted to 2s1p pattern {31/1}
 Group   3 Type O   : 11s6p2d contracted to 5s3p2d pattern {62111/411/11}

Atom   0C    basis set group =>   1
Atom   1C    basis set group =>   1
Atom   2H    basis set group =>   2
Atom   3C    basis set group =>   1
Atom   4H    basis set group =>   2
Atom   5C    basis set group =>   1
Atom   6H    basis set group =>   2
Atom   7C    basis set group =>   1
Atom   8H    basis set group =>   2
Atom   9O    basis set group =>   3
Atom  10O    basis set group =>   3
Atom  11O    basis set group =>   3
Atom  12O    basis set group =>   3
Atom  13O    basis set group =>   3
Atom  14H    basis set group =>   2
Atom  15H    basis set group =>   2
Atom  16H    basis set group =>   2
Atom  17H    basis set group =>   2
Atom  18H    basis set group =>   2
Atom  19H    basis set group =>   2
---------------------------------
AUXILIARY/J BASIS SET INFORMATION
---------------------------------
There are 3 groups of distinct atoms

 Group   1 Type C   : 12s5p4d2f1g contracted to 6s4p3d1f1g pattern {711111/2111/211/2/1}
 Group   2 Type H   : 5s2p1d contracted to 3s1p1d pattern {311/2/1}
 Group   3 Type O   : 12s5p4d2f1g contracted to 6s4p3d1f1g pattern {711111/2111/211/2/1}

Atom   0C    basis set group =>   1
Atom   1C    basis set group =>   1
Atom   2H    basis set group =>   2
Atom   3C    basis set group =>   1
Atom   4H    basis set group =>   2
Atom   5C    basis set group =>   1
Atom   6H    basis set group =>   2
Atom   7C    basis set group =>   1
Atom   8H    basis set group =>   2
Atom   9O    basis set group =>   3
Atom  10O    basis set group =>   3
Atom  11O    basis set group =>   3
Atom  12O    basis set group =>   3
Atom  13O    basis set group =>   3
Atom  14H    basis set group =>   2
Atom  15H    basis set group =>   2
Atom  16H    basis set group =>   2
Atom  17H    basis set group =>   2
Atom  18H    basis set group =>   2
Atom  19H    basis set group =>   2

Checking for AutoStart:
The File: sp.gbw exists
Trying to determine its content:
     ... Fine, the file contains calculation information
     ... Fine, the calculation information was read
     ... Fine, the file contains a basis set
     ... Fine, the basis set was read
     ... Fine, the file contains a geometry
     ... Fine, the geometry was read
     ... Fine, the file contains a set of orbitals
     ... Fine, the orbitals can be read
     => possible old guess file was deleted
     => GBW file was renamed to GES file
     => GES file is set as startup file
     => Guess is set to MORead
     ... now leaving AutoStart

------------------------------------------------------------------------------
                             ORCA STARTUP CALCULATIONS
                           -- RI-GTO INTEGRALS CHOSEN --
------------------------------------------------------------------------------
------------------------------------------------------------------------------
                   ___                                                        
                  /   \      - P O W E R E D   B Y -                         
                 /     \                                                     
                 |  |  |   _    _      __       _____    __    __             
                 |  |  |  | |  | |    /  \     |  _  \  |  |  /  |          
                  \  \/   | |  | |   /    \    | | | |  |  | /  /          
                 / \  \   | |__| |  /  /\  \   | |_| |  |  |/  /          
                |  |  |   |  __  | /  /__\  \  |    /   |      \           
                |  |  |   | |  | | |   __   |  |    \   |  |\   \          
                \     /   | |  | | |  |  |  |  | |\  \  |  | \   \       
                 \___/    |_|  |_| |__|  |__|  |_| \__\ |__|  \__/        
                                                                              
                      - O R C A' S   B I G   F R I E N D -                    
                                      &                                       
                       - I N T E G R A L  F E E D E R -                       
                                                                              
 v1 FN, 2020, v2 2021, v3 2022-2024                                           
------------------------------------------------------------------------------


----------------------
SHARK INTEGRAL PACKAGE
----------------------

Number of atoms                             ...     20
Number of basis functions                   ...    265
Number of shells                            ...    125
Maximum angular momentum                    ...      2
Integral batch strategy                     ... SHARK/LIBINT Hybrid
RI-J (if used) integral strategy            ... SPLIT-RIJ (Revised 2003 algorithm where possible)
Printlevel                                  ...      1
Contraction scheme used                     ... SEGMENTED contraction
Prescreening option                         ... SCHWARTZ
   Thresh                                   ... 1.000e-10
   Tcut                                     ... 1.000e-11
   Tpresel                                  ... 1.000e-11 
Coulomb Range Separation                    ... NOT USED
Exchange Range Separation                   ... NOT USED
Multipole approximations                    ... NOT USED
Finite Nucleus Model                        ... NOT USED
CABS basis                                  ... NOT available
Auxiliary Coulomb fitting basis             ... AVAILABLE
   # of basis functions in Aux-J            ...    600
   # of shells in Aux-J                     ...    200
   Maximum angular momentum in Aux-J        ...      4
Auxiliary J/K fitting basis                 ... NOT available
Auxiliary Correlation fitting basis         ... NOT available
Auxiliary 'external' fitting basis          ... NOT available

Checking pre-screening integrals            ... done (  0.0 sec) Dimension = 125
Check shell pair data                       ... done (  0.0 sec)
Shell pair information
Shell pair cut-off parameter TPreSel        ...   1.0e-11
Total number of shell pairs                 ...      7875
Shell pairs after pre-screening             ...      7172
Total number of primitive shell pairs       ...     27980
Primitive shell pairs kept                  ...     17911
          la=0 lb=0:   2169 shell pairs
          la=1 lb=0:   2551 shell pairs
          la=1 lb=1:    778 shell pairs
          la=2 lb=0:    982 shell pairs
          la=2 lb=1:    574 shell pairs
          la=2 lb=2:    118 shell pairs

Calculating one electron integrals          ... done (  0.0 sec)
Calculating RI/J V-Matrix + Cholesky decomp.... done (  0.0 sec)
Calculating Nuclear repulsion               ... done (  0.0 sec) ENN=    636.191398785709 Eh

Diagonalization of the overlap matrix:
Smallest eigenvalue                        ... 5.425e-05
Time for diagonalization                   ...    0.014 sec
Threshold for overlap eigenvalues          ... 1.000e-07
Number of eigenvalues below threshold      ... 0
Time for construction of square roots      ...    0.009 sec
Total time needed                          ...    0.027 sec

-------------------
DFT GRID GENERATION
-------------------

General Integration Accuracy     IntAcc      ... 4.388
Radial Grid Type                 RadialGrid  ... OptM3 with GC (2021)
Angular Grid (max. ang.)         AngularGrid ... 4 (Lebedev-302)
Angular grid pruning method      GridPruning ... 4 (adaptive)
Weight generation scheme         WeightScheme... mBecke (2022)
Basis function cutoff            BFCut       ... 1.0000e-10
Integration weight cutoff        WCut        ... 1.0000e-14
Partially contracted basis set               ... off
Rotationally invariant grid construction     ... off
Angular grids for H and He will be reduced by one unit
Diffuse basis detected: some atoms will have their outermost
                        angular grid increased by 1.

Total number of grid points                  ...    93344
Total number of batches                      ...     1469
Average number of points per batch           ...       63
Average number of grid points per atom       ...     4667
Initializing property integral containers    ... done (  0.0 sec)

SHARK setup successfully completed in   1.2 seconds

Maximum memory used throughout the entire STARTUP-calculation: 46.1 MB
-------------------------------------------------------------------------------
                                 ORCA GUESS
                   Start orbitals & Density for SCF / CASSCF
-------------------------------------------------------------------------------

------------
SCF SETTINGS
------------
Hamiltonian:
 Density Functional     Method          .... DFT(GTOs)
  Functional kind                       .... Exchange
  Functional name                       .... Re-regularized SCAN exchange by Furness et al
  Functional family                     .... MGGA
  Functional refs                              
    [ 0] J. W. Furness, A. D. Kaplan, J. Ning, J. P. Perdew, and J. Sun.,  J. Phys. Chem. Lett. 11, 8208-8215 (2020), doi: 10.1021/acs.jpclett.0c02405
    [ 1] J. W. Furness, A. D. Kaplan, J. Ning, J. P. Perdew, and J. Sun.,  J. Phys. Chem. Lett. 11, 9248-9248 (2020), doi: 10.1021/acs.jpclett.0c03077
  Functional external parameters        .... 6
    Parameter  0 _c1        =  6.670000e-01 : c1 parameter        
    Parameter  1 _c2        =  8.000000e-01 : c2 parameter        
    Parameter  2 _d         =  1.240000e+00 : d parameter         
    Parameter  3 _k1        =  6.500000e-02 : k1 parameter        
    Parameter  4 _eta       =  1.000000e-03 : eta parameter       
    Parameter  5 _dp2       =  3.610000e-01 : dp2 parameter       
  Functional kind                       .... Correlation
  Functional name                       .... Re-regularized SCAN correlation by Furness et al
  Functional family                     .... MGGA
  Functional refs                              
    [ 0] J. W. Furness, A. D. Kaplan, J. Ning, J. P. Perdew, and J. Sun.,  J. Phys. Chem. Lett. 11, 8208-8215 (2020), doi: 10.1021/acs.jpclett.0c02405
    [ 1] J. W. Furness, A. D. Kaplan, J. Ning, J. P. Perdew, and J. Sun.,  J. Phys. Chem. Lett. 11, 9248-9248 (2020), doi: 10.1021/acs.jpclett.0c03077
  Functional external parameters        .... 1
    Parameter  0 _eta       =  1.000000e-03 : Regularization parameter
 Gradients option       PostSCFGGA      .... off
 RI-approximation to the Coulomb term is turned on
   Number of AuxJ basis functions       .... 600


General Settings:
 Integral files         IntName         .... sp
 Hartree-Fock type      HFTyp           .... RHF
 Total Charge           Charge          ....    0
 Multiplicity           Mult            ....    1
 Number of Electrons    NEL             ....   80
 Basis Dimension        Dim             ....  265
 Nuclear Repulsion      ENuc            ....    636.1913987857 Eh

Convergence Acceleration:
 AO-DIIS                CNVDIIS         .... on
   Start iteration      DIISMaxIt       ....    12
   Startup error        DIISStart       ....  0.200000
   # of expansion vecs  DIISMaxEq       ....     5
   Bias factor          DIISBfac        ....   1.050
   Max. coefficient     DIISMaxC        ....  10.000
 MO-DIIS                CNVKDIIS        .... off
 Trust-Rad. Augm. Hess. CNVTRAH         .... auto
   Auto Start mean grad. ratio tolernc. ....  1.125000
   Auto Start start iteration           ....     1
   Auto Start num. interpolation iter.  ....    10
   Max. Number of Micro iterations      ....    24
   Max. Number of Macro iterations      .... Maxiter - #DIIS iter
   Number of Davidson start vectors     ....     2
   Converg. threshold    (grad. norm)   ....   3.330e-04
   Grad. Scal. Fac. for Micro threshold ....   0.100
   Minimum threshold for Micro iter.    ....   1.000e-02
   NR start threshold (gradient norm)   ....   1.000e-04
   Initial trust radius                 ....   0.400
   Minimum AH scaling param. (alpha)    ....   1.000
   Maximum AH scaling param. (alpha)    .... 1000.000
   Quad. conv. algorithm                .... NR
   White noise on init. David. guess    .... on
   Maximum white noise                  ....   0.010
   Pseudo random numbers                .... off
   Inactive MOs                         .... canonical
   Orbital update algorithm             .... Taylor
   Preconditioner                       .... Diag
   Full preconditioner red. dimension   ....   250
   COSX micro iterations for RIJONX calc.... off
 SOSCF                  CNVSOSCF        .... on
   Start iteration      SOSCFMaxIt      ....   150
   Startup grad/error   SOSCFStart      ....  0.003300
   Hessian update       SOSCFHessUp     .... L-BFGS
 Level Shifting         CNVShift        .... on
   Level shift para.    LevelShift      ....    0.2500
   Turn off err/grad.   ShiftErr        ....    0.0010
 Zerner damping         CNVZerner       .... off
 Static damping         CNVDamp         .... on
   Fraction old density DampFac         ....    0.7000
   Max. Damping (<1)    DampMax         ....    0.9800
   Min. Damping (>=0)   DampMin         ....    0.0000
   Turn off err/grad.   DampErr         ....    0.1000

SCF Procedure:
 Maximum # iterations   MaxIter         ....   125
 SCF integral mode      SCFMode         .... Direct
   Integral package                     .... SHARK and LIBINT hybrid scheme
 Reset frequency        DirectResetFreq ....    20
 Integral Threshold     Thresh          ....  1.000e-10 Eh
 Primitive CutOff       TCut            ....  1.000e-11 Eh

Convergence Tolerance:
 Convergence Check Mode ConvCheckMode   .... Total+1el-Energy
 Convergence forced     ConvForced      .... 0
 Energy Change          TolE            ....  1.000e-06 Eh
 1-El. energy change                    ....  1.000e-03 Eh
 Orbital Gradient       TolG            ....  3.330e-04
 Orbital Rotation angle TolX            ....  3.330e-04
 DIIS Error             TolErr          ....  1.000e-06

---------------------
INITIAL GUESS: MOREAD
---------------------
Guess MOs are being read from file: sp.ges
Input Geometry matches current geometry (good)
Atom 0: N(Shells)= 9 and 6 - projection required
Input basis set needs projection
NBasis(read)= 160
NBasis(calc)= 265
Basis set overlap was calculated
Using GuessMode=FMatrix for the initial guess
C*T matrix was formed
Effective Fockian was calculated
Effective Fockian was diagonalized
Initial density was built
                      ------------------
                      INITIAL GUESS DONE (   0.0 sec)
                      ------------------
             **** ENERGY FILE WAS UPDATED (sp.en.tmp) ****
Finished Guess after   0.1 sec
Maximum memory used throughout the entire GUESS-calculation: 21.8 MB

-------------------------------------------------------------------------------------------
                                      ORCA LEAN-SCF
                              memory conserving SCF solver
-------------------------------------------------------------------------------------------

----------------------------------------D-I-I-S--------------------------------------------
Iteration    Energy (Eh)           Delta-E    RMSDP     MaxDP     DIISErr   Damp  Time(sec)
-------------------------------------------------------------------------------------------
               ***  Starting incremental Fock matrix formation  ***
    1    -572.2400445062556855     0.00e+00  7.30e-03  4.94e-01  6.29e-01  0.700   4.7
    2    -572.3383107273845098    -9.83e-02  5.58e-03  3.36e-01  4.42e-01  0.700   4.4
    3    -572.4078722397385945    -6.96e-02  4.01e-03  2.29e-01  3.10e-01  0.700   4.2
    4    -572.4567162131078248    -4.88e-02  2.84e-03  1.59e-01  2.17e-01  0.700   3.9
                               ***Turning on AO-DIIS***
    5    -572.4909845464550244    -3.43e-02  2.03e-03  1.12e-01  1.52e-01  0.700   4.0
    6    -572.5150117662241200    -2.40e-02  1.43e-03  7.84e-02  1.06e-01  0.700   3.7
    7    -572.5318600685046704    -1.68e-02  1.00e-03  5.43e-02  7.44e-02  0.700   3.8
    8    -572.5436681555401037    -1.18e-02  2.34e-03  1.26e-01  5.21e-02  0.000   3.5
                              *** Initializing SOSCF ***
---------------------------------------S-O-S-C-F--------------------------------------
Iteration    Energy (Eh)           Delta-E    RMSDP     MaxDP     MaxGrad    Time(sec)
--------------------------------------------------------------------------------------
    9    -572.5712648975292041    -2.76e-02  1.33e-05  3.45e-04  1.54e-04     3.9
               *** Restarting incremental Fock matrix formation ***
   10    -572.5712650884535151    -1.91e-07  1.22e-05  7.06e-04  1.92e-05     4.2
                  *** Gradient check signals convergence ***

               *****************************************************
               *                     SUCCESS                       *
               *           SCF CONVERGED AFTER  10 CYCLES          *
               *****************************************************

             **** ENERGY FILE WAS UPDATED (sp.en.tmp) ****

----------------
TOTAL SCF ENERGY
----------------

Total Energy       :       -572.57126508845352 Eh          -15580.45622 eV

Components:
Nuclear Repulsion  :        636.19139878570934 Eh           17311.64807 eV
Electronic Energy  :      -1208.76266387416285 Eh          -32892.10429 eV
One Electron Energy:      -2047.07938762072399 Eh          -55703.86207 eV
Two Electron Energy:        838.31672374656114 Eh           22811.75778 eV

Virial components:
Potential Energy   :      -1142.95480617249541 Eh          -31101.38144 eV
Kinetic Energy     :        570.38354108404178 Eh           15520.92522 eV
Virial Ratio       :          2.00383553143952

DFT components:
N(Alpha)           :       39.999971681753 electrons
N(Beta)            :       39.999971681753 electrons
N(Total)           :       79.999943363505 electrons
E(X)               :      -71.070164132932 Eh       
E(C)               :       -2.664182664195 Eh       
E(XC)              :      -73.734346797127 Eh       

---------------
SCF CONVERGENCE
---------------

  Last Energy change         ...    1.9092e-07  Tolerance :   1.0000e-06
  Last MAX-Density change    ...    7.0573e-04  Tolerance :   1.0000e-05
  Last RMS-Density change    ...    1.2154e-05  Tolerance :   1.0000e-06
  Last DIIS Error            ...    1.5389e-04  Tolerance :   1.0000e-06
  Last Orbital Gradient      ...    1.9190e-05  Tolerance :   3.3300e-04
  Last Orbital Rotation      ...    3.3516e-05  Tolerance :   3.3300e-04


----------------
ORBITAL ENERGIES
----------------

  NO   OCC          E(Eh)            E(eV) 
   0   2.0000     -18.984434      -516.5927 
   1   2.0000     -18.973655      -516.2994 
   2   2.0000     -18.968928      -516.1708 
   3   2.0000     -18.959536      -515.9152 
   4   2.0000     -18.956582      -515.8348 
   5   2.0000     -10.137672      -275.8601 
   6   2.0000     -10.104671      -274.9621 
   7   2.0000     -10.101032      -274.8631 
   8   2.0000     -10.100482      -274.8481 
   9   2.0000     -10.090189      -274.5680 
  10   2.0000      -1.053815       -28.6758 
  11   2.0000      -1.024541       -27.8792 
  12   2.0000      -1.012776       -27.5590 
  13   2.0000      -0.996205       -27.1081 
  14   2.0000      -0.981229       -26.7006 
  15   2.0000      -0.750363       -20.4184 
  16   2.0000      -0.721571       -19.6349 
  17   2.0000      -0.643545       -17.5117 
  18   2.0000      -0.622780       -16.9467 
  19   2.0000      -0.568541       -15.4708 
  20   2.0000      -0.528425       -14.3792 
  21   2.0000      -0.521674       -14.1955 
  22   2.0000      -0.482566       -13.1313 
  23   2.0000      -0.472483       -12.8569 
  24   2.0000      -0.463321       -12.6076 
  25   2.0000      -0.453188       -12.3319 
  26   2.0000      -0.437632       -11.9086 
  27   2.0000      -0.414142       -11.2694 
  28   2.0000      -0.393679       -10.7125 
  29   2.0000      -0.384231       -10.4555 
  30   2.0000      -0.369336       -10.0501 
  31   2.0000      -0.337148        -9.1743 
  32   2.0000      -0.324570        -8.8320 
  33   2.0000      -0.314526        -8.5587 
  34   2.0000      -0.310317        -8.4441 
  35   2.0000      -0.285118        -7.7585 
  36   2.0000      -0.274144        -7.4598 
  37   2.0000      -0.261658        -7.1201 
  38   2.0000      -0.247751        -6.7417 
  39   2.0000      -0.225053        -6.1240 
  40   0.0000       0.023739         0.6460 
  41   0.0000       0.035033         0.9533 
  42   0.0000       0.064490         1.7549 
  43   0.0000       0.080762         2.1976 
  44   0.0000       0.096314         2.6208 
  45   0.0000       0.111110         3.0235 
  46   0.0000       0.113272         3.0823 
  47   0.0000       0.119437         3.2501 
  48   0.0000       0.126340         3.4379 
  49   0.0000       0.139618         3.7992 
  50   0.0000       0.148946         4.0530 
*Only the first 10 virtual orbitals were printed.

                    ********************************
                    * MULLIKEN POPULATION ANALYSIS *
                    ********************************

-----------------------
MULLIKEN ATOMIC CHARGES
-----------------------
   0 C :   -0.332804
   1 C :    0.079309
   2 H :    0.155436
   3 C :   -0.108882
   4 H :    0.165103
   5 C :    0.030081
   6 H :    0.169877
   7 C :   -0.122295
   8 H :    0.140419
   9 O :   -0.152216
  10 O :   -0.369525
  11 O :   -0.436420
  12 O :   -0.391808
  13 O :   -0.415235
  14 H :    0.157926
  15 H :    0.154973
  16 H :    0.328566
  17 H :    0.346260
  18 H :    0.300667
  19 H :    0.300568
Sum of atomic charges:    0.0000000

--------------------------------
MULLIKEN REDUCED ORBITAL CHARGES
--------------------------------
  0 C s       :     3.373871  s :     3.373871
      pz      :     1.028023  p :     2.900642
      px      :     0.782604
      py      :     1.090015
      dz2     :     0.014561  d :     0.058292
      dxz     :     0.011978
      dyz     :     0.003697
      dx2y2   :     0.012832
      dxy     :     0.015224

  1 C s       :     3.123803  s :     3.123803
      pz      :     0.730194  p :     2.731347
      px      :     1.062298
      py      :     0.938855
      dz2     :     0.019229  d :     0.065542
      dxz     :     0.016415
      dyz     :     0.012121
      dx2y2   :     0.008910
      dxy     :     0.008867

  2 H s       :     0.827625  s :     0.827625
      pz      :     0.003985  p :     0.016939
      px      :     0.009608
      py      :     0.003346

  3 C s       :     3.223167  s :     3.223167
      pz      :     0.796608  p :     2.818750
      px      :     0.990697
      py      :     1.031445
      dz2     :     0.016888  d :     0.066965
      dxz     :     0.014736
      dyz     :     0.014898
      dx2y2   :     0.009712
      dxy     :     0.010731

  4 H s       :     0.817784  s :     0.817784
      pz      :     0.004885  p :     0.017113
      px      :     0.004582
      py      :     0.007646

  5 C s       :     3.132925  s :     3.132925
      pz      :     0.728889  p :     2.770864
      px      :     1.004672
      py      :     1.037303
      dz2     :     0.018728  d :     0.066129
      dxz     :     0.014068
      dyz     :     0.015906
      dx2y2   :     0.008018
      dxy     :     0.009409

  6 H s       :     0.813081  s :     0.813081
      pz      :     0.003011  p :     0.017042
      px      :     0.005802
      py      :     0.008228

  7 C s       :     3.390104  s :     3.390104
      pz      :     1.004299  p :     2.638093
      px      :     0.755372
      py      :     0.878423
      dz2     :     0.019482  d :     0.094097
      dxz     :     0.014827
      dyz     :     0.010253
      dx2y2   :     0.022071
      dxy     :     0.027464

  8 H s       :     0.843132  s :     0.843132
      pz      :     0.011650  p :     0.016449
      px      :     0.002176
      py      :     0.002624

  9 O s       :     3.717257  s :     3.717257
      pz      :     1.743145  p :     4.433243
      px      :     1.147226
      py      :     1.542872
      dz2     :     0.001875  d :     0.001716
      dxz     :    -0.003142
      dyz     :    -0.000015
      dx2y2   :     0.002263
      dxy     :     0.000735

 10 O s       :     3.741912  s :     3.741912
      pz      :     1.346256  p :     4.608352
      px      :     1.411836
      py      :     1.850261
      dz2     :     0.007183  d :     0.019261
      dxz     :     0.000870
      dyz     :     0.001509
      dx2y2   :     0.007915
      dxy     :     0.001784

 11 O s       :     3.755797  s :     3.755797
      pz      :     1.242962  p :     4.666454
      px      :     1.669386
      py      :     1.754106
      dz2     :     0.000830  d :     0.014169
      dxz     :     0.001014
      dyz     :    -0.001035
      dx2y2   :     0.003604
      dxy     :     0.009756

 12 O s       :     3.755504  s :     3.755504
      pz      :     1.189996  p :     4.620726
      px      :     1.790988
      py      :     1.639742
      dz2     :     0.001414  d :     0.015578
      dxz     :     0.001950
      dyz     :    -0.000409
      dx2y2   :     0.004611
      dxy     :     0.008012

 13 O s       :     3.753999  s :     3.753999
      pz      :     1.309983  p :     4.643611
      px      :     1.818738
      py      :     1.514890
      dz2     :     0.002810  d :     0.017625
      dxz     :    -0.001168
      dyz     :     0.004511
      dx2y2   :     0.007114
      dxy     :     0.004358

 14 H s       :     0.825062  s :     0.825062
      pz      :     0.011278  p :     0.017012
      px      :     0.002289
      py      :     0.003445

 15 H s       :     0.827753  s :     0.827753
      pz      :     0.003637  p :     0.017274
      px      :     0.004155
      py      :     0.009483

 16 H s       :     0.628454  s :     0.628454
      pz      :     0.022414  p :     0.042980
      px      :     0.008219
      py      :     0.012347

 17 H s       :     0.609158  s :     0.609158
      pz      :     0.009315  p :     0.044582
      px      :     0.019505
      py      :     0.015762

 18 H s       :     0.655723  s :     0.655723
      pz      :     0.012795  p :     0.043610
      px      :     0.014906
      py      :     0.015910

 19 H s       :     0.656065  s :     0.656065
      pz      :     0.008772  p :     0.043367
      px      :     0.014214
      py      :     0.020380


------------------------
MULLIKEN OVERLAP CHARGES
------------------------
B(  0-C ,  1-C ) :  -0.5092 B(  0-C ,  2-H ) :  -0.0830 B(  0-C ,  3-C ) :   0.1581 
B(  0-C ,  5-C ) :   0.1310 B(  0-C ,  7-C ) :  -0.6664 B(  0-C ,  9-O ) :   0.4422 
B(  0-C , 12-O ) :   0.0565 B(  0-C , 14-H ) :   0.9010 B(  0-C , 15-H ) :   0.7752 
B(  1-C ,  2-H ) :   0.8266 B(  1-C ,  3-C ) :  -0.2678 B(  1-C ,  4-H ) :  -0.1022 
B(  1-C ,  5-C ) :  -0.3411 B(  1-C ,  7-C ) :   0.2656 B(  1-C ,  9-O ) :  -0.2113 
B(  1-C , 11-O ) :   0.0740 B(  1-C , 12-O ) :  -0.1834 B(  1-C , 13-O ) :   0.1335 
B(  1-C , 14-H ) :  -0.2060 B(  1-C , 19-H ) :  -0.1010 B(  2-H ,  3-C ) :  -0.0944 
B(  2-H , 13-O ) :  -0.0820 B(  3-C ,  4-H ) :   0.8983 B(  3-C ,  5-C ) :  -0.0882 
B(  3-C ,  6-H ) :  -0.0795 B(  3-C ,  7-C ) :  -0.0595 B(  3-C , 11-O ) :  -0.0615 
B(  3-C , 12-O ) :   0.4411 B(  3-C , 13-O ) :  -0.1337 B(  3-C , 18-H ) :  -0.0773 
B(  4-H ,  5-C ) :  -0.0953 B(  4-H , 12-O ) :  -0.0834 B(  5-C ,  6-H ) :   0.8969 
B(  5-C ,  7-C ) :  -0.4742 B(  5-C ,  8-H ) :  -0.1761 B(  5-C ,  9-O ) :  -0.1007 
B(  5-C , 10-O ) :  -0.0644 B(  5-C , 11-O ) :   0.2982 B(  5-C , 12-O ) :  -0.1724 
B(  5-C , 13-O ) :   0.1255 B(  5-C , 17-H ) :  -0.0830 B(  6-H ,  7-C ) :  -0.1131 
B(  6-H , 11-O ) :  -0.0932 B(  7-C ,  8-H ) :   0.9063 B(  7-C ,  9-O ) :   0.1767 
B(  7-C , 10-O ) :   0.5643 B(  7-C , 11-O ) :  -0.1544 B(  7-C , 12-O ) :   0.0722 
B(  7-C , 16-H ) :  -0.0739 B(  8-H ,  9-O ) :  -0.1362 B(  8-H , 10-O ) :  -0.1130 
B(  9-O , 10-O ) :  -0.1792 B(  9-O , 14-H ) :  -0.1202 B(  9-O , 15-H ) :  -0.0983 
B( 10-O , 16-H ) :   0.5871 B( 11-O , 13-O ) :  -0.0708 B( 11-O , 16-H ) :   0.0520 
B( 11-O , 17-H ) :   0.6007 B( 12-O , 18-H ) :   0.5828 B( 13-O , 19-H ) :   0.6074 



                     *******************************
                     * LOEWDIN POPULATION ANALYSIS *
                     *******************************

----------------------
LOEWDIN ATOMIC CHARGES
----------------------
   0 C :    0.034210
   1 C :    0.091605
   2 H :    0.181917
   3 C :    0.116875
   4 H :    0.205360
   5 C :    0.108781
   6 H :    0.199268
   7 C :    0.277036
   8 H :    0.185367
   9 O :   -0.677246
  10 O :   -0.474194
  11 O :   -0.565514
  12 O :   -0.566548
  13 O :   -0.591859
  14 H :    0.170461
  15 H :    0.186837
  16 H :    0.288929
  17 H :    0.286201
  18 H :    0.267386
  19 H :    0.275129

-------------------------------
LOEWDIN REDUCED ORBITAL CHARGES
-------------------------------
  0 C s       :     2.854859  s :     2.854859
      pz      :     1.036791  p :     2.977976
      px      :     0.890182
      py      :     1.051002
      dz2     :     0.035454  d :     0.132956
      dxz     :     0.026125
      dyz     :     0.006836
      dx2y2   :     0.028094
      dxy     :     0.036447

  1 C s       :     2.836305  s :     2.836305
      pz      :     0.864667  p :     2.930403
      px      :     1.039801
      py      :     1.025935
      dz2     :     0.043717  d :     0.141686
      dxz     :     0.036353
      dyz     :     0.025167
      dx2y2   :     0.017685
      dxy     :     0.018763

  2 H s       :     0.776869  s :     0.776869
      pz      :     0.009304  p :     0.041214
      px      :     0.023506
      py      :     0.008404

  3 C s       :     2.823901  s :     2.823901
      pz      :     0.874097  p :     2.915128
      px      :     1.020028
      py      :     1.021003
      dz2     :     0.037197  d :     0.144097
      dxz     :     0.030292
      dyz     :     0.034085
      dx2y2   :     0.020234
      dxy     :     0.022287

  4 H s       :     0.755042  s :     0.755042
      pz      :     0.010214  p :     0.039598
      px      :     0.010786
      py      :     0.018599

  5 C s       :     2.830881  s :     2.830881
      pz      :     0.872805  p :     2.917152
      px      :     1.019413
      py      :     1.024935
      dz2     :     0.041910  d :     0.143186
      dxz     :     0.030097
      dyz     :     0.034242
      dx2y2   :     0.017665
      dxy     :     0.019272

  6 H s       :     0.760659  s :     0.760659
      pz      :     0.006364  p :     0.040074
      px      :     0.013662
      py      :     0.020048

  7 C s       :     2.775193  s :     2.775193
      pz      :     0.981752  p :     2.742293
      px      :     0.848000
      py      :     0.912541
      dz2     :     0.047231  d :     0.205478
      dxz     :     0.029660
      dyz     :     0.019268
      dx2y2   :     0.048066
      dxy     :     0.061252

  8 H s       :     0.776957  s :     0.776957
      pz      :     0.025443  p :     0.037675
      px      :     0.005625
      py      :     0.006607

  9 O s       :     3.490349  s :     3.490349
      pz      :     1.762597  p :     4.706355
      px      :     1.349224
      py      :     1.594534
      dz2     :     0.087985  d :     0.480543
      dxz     :     0.094185
      dyz     :     0.053694
      dx2y2   :     0.120992
      dxy     :     0.123688

 10 O s       :     3.488551  s :     3.488551
      pz      :     1.420457  p :     4.716151
      px      :     1.500380
      py      :     1.795315
      dz2     :     0.079909  d :     0.269491
      dxz     :     0.062027
      dyz     :     0.020541
      dx2y2   :     0.044466
      dxy     :     0.062548

 11 O s       :     3.498492  s :     3.498492
      pz      :     1.390064  p :     4.768838
      px      :     1.640867
      py      :     1.737906
      dz2     :     0.091357  d :     0.298184
      dxz     :     0.079569
      dyz     :     0.076044
      dx2y2   :     0.016419
      dxy     :     0.034795

 12 O s       :     3.502691  s :     3.502691
      pz      :     1.344309  p :     4.774391
      px      :     1.765268
      py      :     1.664814
      dz2     :     0.081735  d :     0.289466
      dxz     :     0.075394
      dyz     :     0.090481
      dx2y2   :     0.016660
      dxy     :     0.025195

 13 O s       :     3.501307  s :     3.501307
      pz      :     1.449480  p :     4.783589
      px      :     1.785017
      py      :     1.549093
      dz2     :     0.093718  d :     0.306962
      dxz     :     0.073747
      dyz     :     0.079609
      dx2y2   :     0.029000
      dxy     :     0.030888

 14 H s       :     0.788442  s :     0.788442
      pz      :     0.027119  p :     0.041097
      px      :     0.005866
      py      :     0.008112

 15 H s       :     0.773974  s :     0.773974
      pz      :     0.008318  p :     0.039189
      px      :     0.008438
      py      :     0.022433

 16 H s       :     0.588533  s :     0.588533
      pz      :     0.068542  p :     0.122537
      px      :     0.021512
      py      :     0.032483

 17 H s       :     0.584203  s :     0.584203
      pz      :     0.024962  p :     0.129596
      px      :     0.058884
      py      :     0.045751

 18 H s       :     0.607721  s :     0.607721
      pz      :     0.035403  p :     0.124893
      px      :     0.041955
      py      :     0.047536

 19 H s       :     0.601771  s :     0.601771
      pz      :     0.023060  p :     0.123100
      px      :     0.038119
      py      :     0.061922


---------------------------------
LOEWDIN BOND ORDERS (THRESH 0.050000)
---------------------------------
B(  0-C ,  1-C ) :   0.9420 B(  0-C ,  3-C ) :   0.0579 B(  0-C ,  7-C ) :   0.0817 
B(  0-C ,  9-O ) :   1.3913 B(  0-C , 13-O ) :   0.1486 B(  0-C , 14-H ) :   0.8059 
B(  0-C , 15-H ) :   0.8148 B(  1-C ,  2-H ) :   0.7864 B(  1-C ,  3-C ) :   0.8827 
B(  1-C ,  5-C ) :   0.0568 B(  1-C ,  9-O ) :   0.1470 B(  1-C , 12-O ) :   0.1615 
B(  1-C , 13-O ) :   1.3884 B(  2-H , 13-O ) :   0.0999 B(  3-C ,  4-H ) :   0.7693 
B(  3-C ,  5-C ) :   0.8853 B(  3-C ,  7-C ) :   0.0593 B(  3-C , 11-O ) :   0.1498 
B(  3-C , 12-O ) :   1.4397 B(  3-C , 13-O ) :   0.1600 B(  4-H , 12-O ) :   0.0968 
B(  5-C ,  6-H ) :   0.7774 B(  5-C ,  7-C ) :   0.8355 B(  5-C ,  9-O ) :   0.1337 
B(  5-C , 10-O ) :   0.1495 B(  5-C , 11-O ) :   1.4215 B(  5-C , 12-O ) :   0.1566 
B(  6-H , 11-O ) :   0.0948 B(  7-C ,  8-H ) :   0.7326 B(  7-C ,  9-O ) :   1.2361 
B(  7-C , 10-O ) :   1.4272 B(  7-C , 11-O ) :   0.1475 B(  8-H ,  9-O ) :   0.0941 
B(  8-H , 10-O ) :   0.0879 B(  9-O , 10-O ) :   0.3103 B(  9-O , 13-O ) :   0.0525 
B(  9-O , 14-H ) :   0.1050 B(  9-O , 15-H ) :   0.0970 B( 10-O , 11-O ) :   0.1016 
B( 10-O , 16-H ) :   0.9232 B( 11-O , 13-O ) :   0.0973 B( 11-O , 17-H ) :   0.9145 
B( 12-O , 18-H ) :   0.9618 B( 13-O , 17-H ) :   0.0571 B( 13-O , 19-H ) :   0.9582 


------------------------------------------
LOEWDIN REDUCED ORBITAL POPULATIONS PER MO
-------------------------------------------
THRESHOLD FOR PRINTING IS 0.1%%
                      0         1         2         3         4         5   
                 -18.98443 -18.97365 -18.96893 -18.95954 -18.95658 -10.13767
                   2.00000   2.00000   2.00000   2.00000   2.00000   2.00000
                  --------  --------  --------  --------  --------  --------
 7 C  s               0.0       0.0       0.0       0.0       0.0      99.0
 9 O  s               0.0       0.0      99.9       0.0       0.0       0.0
 9 O  dxy             0.0       0.0       0.0       0.0       0.0       0.2
10 O  s               0.0       0.0       0.0      99.9       0.0       0.0
10 O  px              0.0       0.0       0.0       0.0       0.0       0.1
10 O  dx2y2           0.0       0.0       0.0       0.0       0.0       0.1
11 O  s               0.0       0.0       0.0       0.0      99.9       0.0
12 O  s               0.0      99.9       0.0       0.0       0.0       0.0
13 O  s              99.9       0.0       0.0       0.0       0.0       0.0

                      6         7         8         9        10        11   
                 -10.10467 -10.10103 -10.10048 -10.09019  -1.05381  -1.02454
                   2.00000   2.00000   2.00000   2.00000   2.00000   2.00000
                  --------  --------  --------  --------  --------  --------
 0 C  s               0.0      99.3       0.0       0.0       4.7       0.1
 0 C  pz              0.0       0.0       0.0       0.0       0.7       0.3
 0 C  px              0.0       0.0       0.0       0.0       2.8       1.2
 0 C  py              0.0       0.0       0.0       0.0       0.2       0.6
 0 C  dx2y2           0.0       0.0       0.0       0.0       0.2       0.0
 1 C  s              99.3       0.0       0.0       0.0       2.5       7.0
 1 C  pz              0.0       0.0       0.0       0.0       0.3       5.0
 1 C  px              0.0       0.0       0.0       0.0       0.7       0.0
 1 C  py              0.0       0.0       0.1       0.0       0.1       0.1
 1 C  dz2             0.0       0.0       0.0       0.0       0.0       0.5
 2 H  s               0.0       0.0       0.0       0.0       0.2       0.5
 3 C  s               0.0       0.0      99.3       0.0       1.6       3.0
 3 C  pz              0.0       0.0       0.0       0.0       0.1       0.6
 3 C  px              0.0       0.0       0.0       0.1       0.2       0.3
 3 C  py              0.1       0.0       0.0       0.0       0.5       0.2
 4 H  s               0.0       0.0       0.0       0.0       0.1       0.2
 5 C  s               0.0       0.0       0.0      99.3       3.4       0.0
 5 C  pz              0.0       0.0       0.0       0.0       0.2       0.0
 5 C  px              0.0       0.0       0.1       0.0       0.0       1.2
 5 C  py              0.0       0.0       0.0       0.0       1.6       0.3
 6 H  s               0.0       0.0       0.0       0.0       0.2       0.0
 7 C  s               0.0       0.0       0.0       0.0      11.9       2.2
 7 C  pz              0.0       0.0       0.0       0.0       1.6       0.3
 7 C  px              0.0       0.0       0.0       0.0       0.1       0.8
 7 C  py              0.0       0.0       0.0       0.1       1.5       0.5
 7 C  dz2             0.0       0.0       0.0       0.0       0.1       0.0
 8 H  s               0.0       0.0       0.0       0.0       0.8       0.1
 9 O  s               0.0       0.0       0.0       0.0      25.4       2.5
 9 O  pz              0.0       0.0       0.0       0.0       0.4       0.0
 9 O  px              0.0       0.1       0.0       0.0       0.1       0.2
 9 O  py              0.0       0.0       0.0       0.0       1.3       0.2
 9 O  dz2             0.0       0.0       0.0       0.0       0.4       0.0
 9 O  dxz             0.0       0.1       0.0       0.0       0.0       0.0
 9 O  dx2y2           0.0       0.2       0.0       0.0       0.1       0.0
 9 O  dxy             0.0       0.0       0.0       0.0       0.3       0.3
10 O  s               0.0       0.0       0.0       0.0      15.4       7.8
10 O  px              0.0       0.0       0.0       0.0       1.7       0.5
10 O  dz2             0.0       0.0       0.0       0.0       0.1       0.0
10 O  dx2y2           0.0       0.0       0.0       0.0       0.4       0.1
11 O  s               0.0       0.0       0.0       0.0       4.2       0.2
11 O  pz              0.0       0.0       0.0       0.1       0.4       0.0
11 O  dz2             0.0       0.0       0.0       0.3       0.1       0.0
12 O  s               0.0       0.0       0.0       0.0       1.5       8.6
12 O  pz              0.0       0.0       0.1       0.0       0.1       0.2
12 O  py              0.0       0.0       0.0       0.0       0.0       0.3
12 O  dz2             0.0       0.0       0.2       0.0       0.0       0.0
13 O  s               0.0       0.0       0.0       0.0       4.8      39.6
13 O  pz              0.1       0.0       0.0       0.0       0.3       1.1
13 O  py              0.0       0.0       0.0       0.0       0.1       0.5
13 O  dz2             0.3       0.0       0.0       0.0       0.0       0.1
14 H  s               0.0       0.0       0.0       0.0       0.3       0.0
15 H  s               0.0       0.0       0.0       0.0       0.3       0.0
16 H  s               0.0       0.0       0.0       0.0       2.6       1.2
16 H  pz              0.0       0.0       0.0       0.0       0.5       0.3
17 H  s               0.0       0.0       0.0       0.0       0.8       0.2
18 H  s               0.0       0.0       0.0       0.0       0.3       1.5
18 H  pz              0.0       0.0       0.0       0.0       0.0       0.1
18 H  py              0.0       0.0       0.0       0.0       0.0       0.1
19 H  s               0.0       0.0       0.0       0.0       0.8       6.8
19 H  pz              0.0       0.0       0.0       0.0       0.0       0.1
19 H  px              0.0       0.0       0.0       0.0       0.0       0.2
19 H  py              0.0       0.0       0.0       0.0       0.1       1.1

                     12        13        14        15        16        17   
                  -1.01278  -0.99620  -0.98123  -0.75036  -0.72157  -0.64354
                   2.00000   2.00000   2.00000   2.00000   2.00000   2.00000
                  --------  --------  --------  --------  --------  --------
 0 C  s               0.2       2.1       2.6       5.6      12.3       8.6
 0 C  pz              0.2       0.2       0.2       0.0       0.0       0.7
 0 C  px              0.0       1.3       2.3       2.2       0.7       1.2
 0 C  py              0.0       0.0       0.1       2.1       0.2       0.3
 0 C  dxz             0.0       0.1       0.1       0.0       0.0       0.0
 0 C  dx2y2           0.0       0.1       0.1       0.1       0.0       0.0
 1 C  s               0.6       0.1       0.1      14.7       2.1       0.6
 1 C  pz              3.3       0.1       0.6       2.4       1.1       0.5
 1 C  px              0.3       0.0       0.4       1.4       0.0       0.0
 1 C  py              1.2       0.3       0.2       0.4       3.2       8.5
 1 C  dz2             0.2       0.0       0.1       0.1       0.0       0.0
 1 C  dxy             0.0       0.0       0.0       0.0       0.1       0.1
 2 H  s               0.0       0.0       0.0       2.5       0.5       0.1
 2 H  px              0.0       0.0       0.0       0.2       0.0       0.0
 3 C  s               6.2       0.0       0.0      12.0       2.2       5.9
 3 C  pz              7.8       1.2       0.2       2.0       0.5       0.7
 3 C  px              0.1       0.7       0.2       0.0       3.0       4.5
 3 C  py              0.9       0.0       0.0       2.6       0.2       0.3
 3 C  dz2             0.6       0.0       0.0       0.2       0.0       0.0
 3 C  dyz             0.1       0.0       0.0       0.0       0.0       0.0
 4 H  s               0.4       0.0       0.0       2.0       0.4       3.0
 4 H  py              0.0       0.0       0.0       0.1       0.0       0.2
 5 C  s               0.8       5.9       0.8       4.2       9.9       5.5
 5 C  pz              0.2       8.1       1.5       1.1       2.8       0.9
 5 C  px              0.4       0.1       0.2       2.0       0.0       4.1
 5 C  py              0.1       0.0       0.0       0.0       0.3       0.2
 5 C  dz2             0.0       0.7       0.1       0.1       0.1       0.0
 6 H  s               0.1       0.4       0.1       0.7       2.0       2.3
 6 H  py              0.0       0.0       0.0       0.0       0.1       0.2
 7 C  s               0.0       0.1       0.5       0.1       8.8       2.4
 7 C  pz              0.0       0.5       0.3       0.0       0.1       0.7
 7 C  px              0.0       1.1      11.8       0.3       1.5       0.1
 7 C  py              0.3       2.7       0.4       2.2       1.2       6.4
 7 C  dxz             0.0       0.0       0.4       0.0       0.1       0.0
 7 C  dyz             0.0       0.0       0.0       0.0       0.0       0.1
 7 C  dx2y2           0.0       0.0       0.4       0.0       0.1       0.0
 7 C  dxy             0.0       0.2       0.3       0.1       0.0       0.1
 8 H  s               0.0       0.0       0.0       0.0       1.9       1.4
 8 H  pz              0.0       0.0       0.0       0.0       0.2       0.1
 9 O  s               0.4      11.7      15.6       3.0       0.0       3.6
 9 O  pz              0.0       0.2       0.3       0.1       0.0       0.7
 9 O  px              0.0       0.3       1.2       1.5       8.3       2.6
 9 O  py              0.0       0.2       0.2       0.1       2.7       0.1
 9 O  dz2             0.0       0.0       0.1       0.2       0.0       0.1
 9 O  dxz             0.0       0.0       0.0       0.2       0.8       0.2
 9 O  dyz             0.0       0.0       0.0       0.0       0.1       0.1
 9 O  dx2y2           0.0       0.1       0.1       0.1       2.1       0.1
 9 O  dxy             0.0       0.0       0.3       0.2       0.3       0.1
10 O  s               0.0       1.1      34.2       0.0       3.2       0.4
10 O  pz              0.0       0.1       0.2       0.0       1.7       0.9
10 O  px              0.0       0.0       0.8       0.0       2.4       0.4
10 O  py              0.0       0.1       0.2       0.1       0.0       0.7
10 O  dz2             0.0       0.0       0.1       0.0       0.3       0.0
10 O  dxz             0.0       0.1       0.0       0.0       0.2       0.1
10 O  dx2y2           0.0       0.0       0.0       0.0       0.4       0.0
10 O  dxy             0.0       0.2       0.0       0.1       0.1       0.7
11 O  s               0.7      45.2       8.5       1.7       2.8       0.3
11 O  pz              0.1       1.0       0.1       1.2       3.2       3.1
11 O  px              0.0       0.6       0.2       0.0       0.1       1.0
11 O  py              0.0       0.3       0.0       0.1       0.1       0.2
11 O  dz2             0.0       0.2       0.0       0.4       1.1       0.7
11 O  dxz             0.0       0.0       0.1       0.2       0.1       0.1
12 O  s              46.5       1.6       0.7       4.2       0.6       0.2
12 O  pz              0.5       0.0       0.0       4.2       1.0       5.5
12 O  px              0.4       0.0       0.0       0.1       0.1       0.9
12 O  py              1.2       0.0       0.0       0.1       0.0       0.2
12 O  dz2             0.2       0.0       0.0       0.6       0.2       0.6
12 O  dxz             0.0       0.0       0.0       0.0       0.2       0.1
12 O  dyz             0.0       0.0       0.0       0.7       0.0       0.1
12 O  dxy             0.0       0.0       0.0       0.0       0.0       0.1
13 O  s              12.5       0.0       3.0       3.6       0.6       0.0
13 O  pz              0.2       0.0       0.0       4.7       0.6       0.9
13 O  px              0.0       0.0       0.0       0.4       0.0       0.3
13 O  py              0.3       0.0       0.1       1.3       0.0       2.7
13 O  dz2             0.0       0.1       0.0       1.4       0.2       0.0
13 O  dxz             0.0       0.0       0.0       0.2       0.0       0.0
13 O  dyz             0.0       0.0       0.0       0.1       0.2       0.5
14 H  s               0.0       0.1       0.2       1.1       2.4       3.3
14 H  pz              0.0       0.0       0.0       0.1       0.2       0.2
15 H  s               0.0       0.2       0.2       0.9       3.2       3.2
15 H  py              0.0       0.0       0.0       0.1       0.2       0.2
16 H  s               0.0       0.3       5.4       0.0       1.3       0.3
16 H  pz              0.0       0.0       1.3       0.0       0.3       0.0
17 H  s               0.1       7.4       1.3       0.5       1.1       1.0
17 H  pz              0.0       0.3       0.1       0.0       0.0       0.0
17 H  px              0.0       0.9       0.2       0.1       0.2       0.1
17 H  py              0.0       0.5       0.1       0.0       0.1       0.0
18 H  s               8.0       0.3       0.1       1.6       0.3       1.6
18 H  pz              0.8       0.0       0.0       0.1       0.0       0.0
18 H  px              0.4       0.0       0.0       0.1       0.0       0.0
18 H  py              0.7       0.0       0.0       0.2       0.0       0.1
19 H  s               2.2       0.0       0.6       2.0       0.1       1.0
19 H  py              0.4       0.0       0.1       0.3       0.0       0.1

                     18        19        20        21        22        23   
                  -0.62278  -0.56854  -0.52843  -0.52167  -0.48257  -0.47248
                   2.00000   2.00000   2.00000   2.00000   2.00000   2.00000
                  --------  --------  --------  --------  --------  --------
 0 C  s               0.4       2.3       0.1       0.0       0.1       0.0
 0 C  pz              0.2       2.3       0.1       0.9      10.5       8.7
 0 C  px              2.4       0.2       2.1       1.4       0.0       5.1
 0 C  py              3.4       0.9       0.3       6.0       0.1       0.1
 0 C  dxz             0.1       0.0       0.0       0.0       0.0       0.0
 1 C  s               6.6       2.0       1.4       0.1       0.1       0.0
 1 C  pz              0.4       1.6       1.6       8.8       1.6       0.4
 1 C  px              0.8       0.1      10.0       0.1       0.3       2.0
 1 C  py              0.0       0.1       0.5       0.7       1.8       3.5
 1 C  dz2             0.0       0.1       0.0       0.2       0.0       0.2
 2 H  s               2.8       0.4       5.3       0.5       0.4       0.3
 2 H  px              0.2       0.0       0.2       0.0       0.0       0.0
 3 C  s               3.1       2.6       0.2       0.1       0.5       0.4
 3 C  pz              0.2       0.9       1.7       1.8       5.5       1.3
 3 C  px              2.8       0.4       3.8       0.1       0.2       3.0
 3 C  py              3.8       3.0       3.2       1.9       0.4       0.1
 3 C  dyz             0.0       0.0       0.0       0.0       0.2       0.0
 4 H  s               1.5       1.8       0.1       0.7       0.8       0.0
 4 H  pz              0.0       0.1       0.0       0.0       0.0       0.0
 5 C  s               3.8       2.1       0.1       0.0       0.0       0.1
 5 C  pz              0.0       0.5       3.4       0.1       2.2       0.2
 5 C  px              0.8       0.8       6.3       0.4       3.2       5.4
 5 C  py              3.8       0.0       2.4       3.0       6.4       0.1
 5 C  dz2             0.0       0.0       0.1       0.0       0.0       0.0
 6 H  s               1.8       0.8       1.1       0.8       0.1       0.3
 7 C  s               6.5       1.9       0.0       0.0       0.6       0.4
 7 C  pz              1.3       4.8       1.5       2.7       1.8       5.9
 7 C  px              0.1       2.1       0.8       7.7       0.2       3.1
 7 C  py              0.9       0.4       1.0       0.1       8.2       1.8
 7 C  dz2             0.0       0.0       0.0       0.0       0.0       0.1
 8 H  s               3.1       3.1       0.6       1.0       0.1       3.4
 8 H  pz              0.2       0.2       0.0       0.1       0.0       0.1
 9 O  s               0.9       1.1       1.1       0.3       0.1       0.3
 9 O  pz              0.1       1.9       0.5       0.2       3.7       9.9
 9 O  px              6.7       0.0       2.7       3.4       5.0       0.9
 9 O  py              3.4       0.1       0.6       6.9       0.3       0.1
 9 O  dz2             0.0       0.0       0.0       0.0       0.4       0.9
 9 O  dxz             0.3       0.0       0.0       0.2       0.1       0.2
 9 O  dyz             0.2       0.2       0.1       0.0       0.1       0.4
 9 O  dx2y2           0.1       0.3       0.1       0.4       0.1       0.5
 9 O  dxy             0.1       0.4       0.2       0.3       0.0       0.0
10 O  s               1.2       0.0       0.4       0.1       0.7       0.1
10 O  pz              5.3       8.7       0.3      12.9       0.5       7.0
10 O  px              3.8       1.5       1.5       1.0       0.7       4.9
10 O  py              0.1       0.1       0.0       0.0       2.9       1.2
10 O  dz2             0.1       0.0       0.1       0.0       0.0       0.3
10 O  dxz             0.3       0.4       0.0       0.2       0.0       0.2
10 O  dx2y2           0.4       0.0       0.0       0.1       0.0       0.1
10 O  dxy             0.0       0.0       0.0       0.0       0.6       0.2
11 O  s               0.7       0.5       0.4       0.0       0.0       0.6
11 O  pz              2.9       5.8       6.7       0.3       2.8       0.2
11 O  px              0.1       1.4       7.0       0.0       0.1       3.2
11 O  py              0.8       0.3       3.2       1.2       5.1       0.1
11 O  dz2             0.3       0.2       0.1       0.0       0.0       0.0
11 O  dxz             0.1       0.0       0.1       0.0       0.4       0.3
11 O  dyz             0.2       0.0       0.0       0.2       0.4       0.0
11 O  dx2y2           0.0       0.0       0.1       0.0       0.0       0.0
11 O  dxy             0.1       0.0       0.2       0.0       0.0       0.0
12 O  s               0.2       0.2       0.4       0.3       0.6       0.0
12 O  pz              4.2      13.0       4.4       0.9       9.7       1.7
12 O  px              0.0       0.9       2.8       0.0       1.4       1.3
12 O  py              0.6       0.7       1.7       0.8       2.7       0.1
12 O  dz2             0.4       0.2       0.0       0.0       0.1       0.1
12 O  dxz             0.3       0.0       0.1       0.0       0.0       0.1
12 O  dyz             0.0       0.1       0.0       0.2       0.1       0.0
12 O  dxy             0.0       0.0       0.3       0.0       0.0       0.0
13 O  s               0.6       0.1       0.5       0.2       0.1       1.1
13 O  pz              4.6       7.3       0.7       7.7       2.4       0.3
13 O  px              0.2       0.6       4.5       2.0       1.6       0.4
13 O  py              1.3       2.7       1.9      10.1       0.1       6.8
13 O  dz2             0.7       0.4       0.3       0.1       0.0       0.0
13 O  dxz             0.1       0.0       0.3       0.0       0.0       0.2
13 O  dyz             0.0       0.0       0.0       0.0       0.4       0.1
13 O  dx2y2           0.1       0.0       0.1       0.0       0.1       0.0
13 O  dxy             0.0       0.1       0.1       0.1       0.1       0.0
14 H  s               0.0       2.3       0.1       0.3       4.3       3.0
14 H  pz              0.0       0.1       0.0       0.0       0.1       0.1
15 H  s               0.4       1.4       0.2       0.8       0.2       1.3
16 H  s               2.2       2.3       0.3       3.2       0.1       3.0
16 H  pz              0.3       0.1       0.0       0.1       0.0       0.1
17 H  s               0.9       1.7       4.2       0.1       0.9       0.1
17 H  px              0.1       0.1       0.1       0.0       0.1       0.0
18 H  s               1.0       3.3       2.1       0.1       3.6       0.5
18 H  py              0.0       0.2       0.0       0.0       0.0       0.0
19 H  s               1.3       2.3       0.5       4.8       0.5       0.9
19 H  py              0.1       0.2       0.0       0.2       0.1       0.0

                     24        25        26        27        28        29   
                  -0.46332  -0.45319  -0.43763  -0.41414  -0.39368  -0.38423
                   2.00000   2.00000   2.00000   2.00000   2.00000   2.00000
                  --------  --------  --------  --------  --------  --------
 0 C  s               2.2       0.2       0.2       0.0       0.3       0.1
 0 C  pz              6.3       0.6       0.4       3.7       1.3       2.4
 0 C  px              6.2       2.4       0.2       0.0       1.4       3.2
 0 C  py              2.8       0.5      11.6       0.1      12.0       0.3
 0 C  dz2             0.1       0.0       0.0       0.0       0.0       0.0
 0 C  dxz             0.2       0.0       0.0       0.0       0.0       0.0
 0 C  dyz             0.0       0.0       0.2       0.0       0.0       0.0
 0 C  dx2y2           0.1       0.0       0.0       0.0       0.1       0.2
 0 C  dxy             0.2       0.0       0.0       0.0       0.1       0.0
 1 C  s               1.3       0.4       0.4       0.0       0.2       0.0
 1 C  pz              4.1       0.3       1.3       0.3       1.1       0.1
 1 C  px              0.5       7.5       9.0       0.3       0.0       8.0
 1 C  py              1.1       4.3       6.6       0.6       1.0       0.3
 1 C  dz2             0.2       0.0       0.1       0.2       0.0       0.1
 1 C  dyz             0.2       0.0       0.0       0.0       0.1       0.0
 1 C  dx2y2           0.1       0.0       0.0       0.0       0.0       0.3
 1 C  dxy             0.0       0.0       0.1       0.0       0.2       0.0
 2 H  s               2.6       2.5       4.8       0.0       0.4       3.1
 2 H  px              0.1       0.0       0.1       0.0       0.0       0.0
 3 C  s               0.0       0.1       0.4       0.3       0.8       0.8
 3 C  pz              0.6       0.1       2.1      10.0       2.9       1.2
 3 C  px              0.1       7.2       1.4       2.1       0.4       5.1
 3 C  py              4.1       2.9       0.1       5.2       4.8       0.1
 3 C  dz2             0.0       0.0       0.1       0.1       0.1       0.0
 3 C  dxz             0.0       0.0       0.0       0.0       0.0       0.1
 3 C  dyz             0.0       0.0       0.1       0.1       0.0       0.2
 3 C  dx2y2           0.0       0.1       0.1       0.0       0.0       0.1
 3 C  dxy             0.1       0.0       0.0       0.1       0.0       0.0
 4 H  s               0.8       0.0       1.1       8.3       2.5       2.8
 4 H  py              0.0       0.0       0.1       0.2       0.0       0.1
 5 C  s               0.0       0.7       0.3       0.2       0.3       1.1
 5 C  pz              0.6       8.2       1.8       2.3       2.1       1.4
 5 C  px              0.3       0.7       0.1       1.2       2.3       5.3
 5 C  py              0.6       5.8       2.7       2.9       4.2       3.2
 5 C  dz2             0.0       0.1       0.1       0.0       0.3       0.1
 5 C  dxz             0.0       0.0       0.1       0.0       0.2       0.0
 6 H  s               0.4       3.7       0.0       3.8       5.7       2.6
 6 H  px              0.0       0.2       0.0       0.0       0.0       0.0
 7 C  s               0.3       0.2       0.1       0.9       0.2       0.4
 7 C  pz              4.4       3.2       2.8       3.7       3.7       0.9
 7 C  px              1.8       1.3       0.1       1.6       0.5       0.0
 7 C  py              2.0       0.5       3.8       0.3       0.4       0.2
 7 C  dz2             0.0       0.0       0.0       0.2       0.2       0.1
 7 C  dx2y2           0.1       0.2       0.1       0.0       0.0       0.2
 8 H  s               1.1       1.1       0.5       4.0       3.0       1.4
 8 H  pz              0.0       0.0       0.0       0.1       0.0       0.0
 9 O  s               0.8       0.4       0.8       0.8       0.0       0.1
 9 O  pz              0.0       0.0       1.5       0.6       0.0       1.6
 9 O  px             10.1       3.1       0.0       1.5       1.5       2.3
 9 O  py              2.7       0.2       5.2       2.4       2.9       0.1
 9 O  dxz             0.6       0.2       0.2       0.4       0.2       0.2
 9 O  dyz             0.2       0.1       0.3       0.1       0.0       0.1
 9 O  dx2y2           0.1       0.0       0.2       0.0       0.0       0.2
 9 O  dxy             0.4       0.0       1.3       0.1       0.7       0.0
10 O  s               0.9       0.2       1.0       0.1       0.1       1.2
[...]
 5 C  pz              0.0       0.1       1.1       0.0       0.0       0.0
 5 C  dz2             0.0       0.2       1.3       0.0       0.0       0.0
 5 C  dxz             0.0       0.0       0.1       0.0       0.0       0.0
 6 H  s               0.0       0.0       0.1       0.0       0.0       0.0
 6 H  py              0.0       0.0       0.2       0.0       0.0       0.0
 7 C  s               0.0       0.1       0.0       1.3      31.1      21.0
 7 C  pz              0.0       0.5       0.1       0.0       0.0       0.0
 7 C  px              0.1       1.6       0.2       0.0       0.0       0.0
 7 C  dz2             0.0       0.7       0.1       0.0       0.0       0.0
 7 C  dxz             0.0       0.6       0.1       0.0       0.0       0.0
 7 C  dx2y2           0.0       0.9       0.1       0.0       0.0       0.0
 7 C  dxy             0.0       0.1       0.0       0.0       0.0       0.0
 8 H  s               0.0       0.2       0.0       0.0       0.0       0.0
 8 H  pz              0.0       0.3       0.0       0.0       0.0       0.0
10 O  s               0.4       4.1       0.7       0.0       0.0       0.0
10 O  pz              0.9      15.3       2.6       0.0       0.0       0.0
10 O  px              0.0       1.6       0.2       0.0       0.0       0.0
10 O  py              0.0       0.3       0.1       0.0       0.0       0.0
10 O  dz2             1.4      24.9       3.9       0.0       0.0       0.0
10 O  dxz             0.1       2.2       0.3       0.0       0.0       0.0
10 O  dyz             0.2       3.7       0.6       0.0       0.0       0.0
10 O  dx2y2           0.0       1.6       0.2       0.0       0.0       0.0
11 O  s               0.0       1.4       6.5       0.0       0.0       0.0
11 O  pz              0.1       0.9       5.4       0.0       0.0       0.0
11 O  px              0.0       1.1       6.6       0.0       0.0       0.0
11 O  py              0.0       0.9       3.8       0.0       0.0       0.0
11 O  dz2             0.1       1.3       6.7       0.0       0.0       0.0
11 O  dxz             0.1       1.1       5.4       0.0       0.0       0.0
11 O  dyz             0.0       0.7       2.4       0.0       0.0       0.0
11 O  dx2y2           0.0       0.3       1.1       0.0       0.0       0.0
11 O  dxy             0.1       2.5      13.9       0.0       0.0       0.0
12 O  s               7.1       0.2       0.1       0.0       0.0       0.0
12 O  pz             11.0       0.4       0.3       0.0       0.0       0.0
12 O  px              3.1       0.1       0.2       0.0       0.0       0.0
12 O  py              4.6       0.1       0.2       0.0       0.0       0.0
12 O  dz2             1.4       0.0       0.0       0.0       0.0       0.0
12 O  dxz             7.7       0.3       0.2       0.0       0.0       0.0
12 O  dyz            17.2       0.6       0.5       0.0       0.0       0.0
12 O  dx2y2           0.7       0.0       0.0       0.0       0.0       0.0
12 O  dxy             9.1       0.3       0.4       0.0       0.0       0.0
13 O  s               0.1       0.0       0.7       0.0       0.0       0.0
13 O  pz              0.1       0.0       0.5       0.0       0.0       0.0
13 O  px              0.0       0.0       0.1       0.0       0.0       0.0
13 O  py              0.2       0.0       0.8       0.0       0.0       0.0
13 O  dz2             0.2       0.0       0.9       0.0       0.0       0.0
13 O  dyz             0.0       0.0       0.1       0.0       0.0       0.0
13 O  dx2y2           0.1       0.0       0.3       0.0       0.0       0.0
13 O  dxy             0.1       0.0       0.6       0.0       0.0       0.0
16 H  s               0.6      10.0       1.6       0.0       0.0       0.0
16 H  pz              0.7      11.8       1.8       0.0       0.0       0.0
16 H  py              0.0       0.4       0.1       0.0       0.0       0.0
17 H  s               0.0       2.0      10.0       0.0       0.0       0.0
17 H  pz              0.0       0.3       1.4       0.0       0.0       0.0
17 H  px              0.0       1.6       7.4       0.0       0.0       0.0
17 H  py              0.0       0.7       3.9       0.0       0.0       0.0
18 H  s              12.6       0.4       0.4       0.0       0.0       0.0
18 H  pz              5.1       0.1       0.2       0.0       0.0       0.0
18 H  px              3.4       0.1       0.1       0.0       0.0       0.0
18 H  py              6.0       0.2       0.2       0.0       0.0       0.0
19 H  s               0.2       0.0       0.8       0.0       0.0       0.0
19 H  py              0.1       0.0       0.6       0.0       0.0       0.0

                    258       259       260       261       262       263   
                  22.30391  22.36922  43.73479  43.79560  43.82053  43.87980
                   0.00000   0.00000   0.00000   0.00000   0.00000   0.00000
                  --------  --------  --------  --------  --------  --------
 0 C  s               0.6       4.4       0.0       0.0       0.0       0.0
 1 C  s              39.8       8.7       0.0       0.0       0.1       0.0
 3 C  s               9.7       0.2       0.0       0.2       0.0       0.0
 5 C  s               3.3      86.2       0.0       0.0       0.0       0.0
 7 C  s              46.0       0.1       0.0       0.0       0.0       0.0
 9 O  s               0.1       0.0       1.7       8.7      11.6      55.6
10 O  s               0.1       0.0      56.5       0.1      29.4       1.0
11 O  s               0.0       0.0      19.3       0.5       0.0      16.1
12 O  s               0.0       0.0       0.6      90.2       2.6       5.8
13 O  s               0.0       0.0      21.8       0.2      56.2      21.5

                    264   
                  43.89405
                   0.00000
                  --------
 9 O  s              22.3
10 O  s              12.9
11 O  s              63.9
12 O  s               0.6


                      *****************************
                      * MAYER POPULATION ANALYSIS *
                      *****************************

  NA   - Mulliken gross atomic population
  ZA   - Total nuclear charge
  QA   - Mulliken gross atomic charge
  VA   - Mayer's total valence
  BVA  - Mayer's bonded valence
  FA   - Mayer's free valence

  ATOM       NA         ZA         QA         VA         BVA        FA
  0 C      6.3328     6.0000    -0.3328     3.7339     3.7339     0.0000
  1 C      5.9207     6.0000     0.0793     3.3933     3.3933     0.0000
  2 H      0.8446     1.0000     0.1554     0.9541     0.9541     0.0000
  3 C      6.1089     6.0000    -0.1089     3.7358     3.7358     0.0000
  4 H      0.8349     1.0000     0.1651     0.9572     0.9572     0.0000
  5 C      5.9699     6.0000     0.0301     3.5591     3.5591     0.0000
  6 H      0.8301     1.0000     0.1699     0.9554     0.9554     0.0000
  7 C      6.1223     6.0000    -0.1223     3.8258     3.8258     0.0000
  8 H      0.8596     1.0000     0.1404     0.9491     0.9491     0.0000
  9 O      8.1522     8.0000    -0.1522     1.6305     1.6305     0.0000
 10 O      8.3695     8.0000    -0.3695     1.9060     1.9060    -0.0000
 11 O      8.4364     8.0000    -0.4364     1.8066     1.8066    -0.0000
 12 O      8.3918     8.0000    -0.3918     1.8430     1.8430    -0.0000
 13 O      8.4152     8.0000    -0.4152     1.8357     1.8357    -0.0000
 14 H      0.8421     1.0000     0.1579     0.9533     0.9533     0.0000
 15 H      0.8450     1.0000     0.1550     0.9553     0.9553     0.0000
 16 H      0.6714     1.0000     0.3286     0.9040     0.9040    -0.0000
 17 H      0.6537     1.0000     0.3463     0.8932     0.8932    -0.0000
 18 H      0.6993     1.0000     0.3007     0.9151     0.9151    -0.0000
 19 H      0.6994     1.0000     0.3006     0.9131     0.9131    -0.0000

  Mayer bond orders larger than 0.100000
B(  0-C ,  1-C ) :   0.8447 B(  0-C ,  9-O ) :   0.9052 B(  0-C , 14-H ) :   0.9944 
B(  0-C , 15-H ) :   0.9574 B(  1-C ,  2-H ) :   0.9521 B(  1-C ,  3-C ) :   0.8703 
B(  1-C , 13-O ) :   0.9073 B(  3-C ,  4-H ) :   0.9775 B(  3-C ,  5-C ) :   0.8616 
B(  3-C , 12-O ) :   1.0112 B(  5-C ,  6-H ) :   0.9742 B(  5-C ,  7-C ) :   0.8313 
B(  5-C , 11-O ) :   0.9869 B(  7-C ,  8-H ) :   1.0117 B(  7-C ,  9-O ) :   0.8656 
B(  7-C , 10-O ) :   1.1375 B( 10-O , 16-H ) :   0.8441 B( 11-O , 17-H ) :   0.8306 
B( 12-O , 18-H ) :   0.8734 B( 13-O , 19-H ) :   0.8961 

-------
TIMINGS
-------

Total SCF time: 0 days 0 hours 0 min 40 sec 

Total time                  ....      40.666 sec
Sum of individual times     ....      40.621 sec  ( 99.9%)

SCF preparation             ....       0.068 sec  (  0.2%)
Fock matrix formation       ....      40.042 sec  ( 98.5%)
  Startup                   ....       0.007 sec  (  0.0% of F)
  Split-RI-J                ....       8.001 sec  ( 20.0% of F)
  XC integration            ....      31.979 sec  ( 79.9% of F)
    XC Preparation          ....       0.000 sec  (  0.0% of XC)
    Basis function eval.    ....       5.131 sec  ( 16.0% of XC)
    Density eval.           ....      12.764 sec  ( 39.9% of XC)
    XC-Functional eval.     ....       2.239 sec  (  7.0% of XC)
    XC-Potential eval.      ....      11.327 sec  ( 35.4% of XC)
Diagonalization             ....       0.000 sec  (  0.0%)
Density matrix formation    ....       0.034 sec  (  0.1%)
Total Energy calculation    ....       0.003 sec  (  0.0%)
Population analysis         ....       0.217 sec  (  0.5%)
Orbital Transformation      ....       0.035 sec  (  0.1%)
Orbital Orthonormalization  ....       0.000 sec  (  0.0%)
DIIS solution               ....       0.186 sec  (  0.5%)
  MO trafo                  ....       0.000 sec  (  0.0 % of DIIS)
  Orb grad                  ....       0.000 sec  (  0.0 % of DIIS)
  Energy W gradient         ....       0.000 sec  (  0.0 % of DIIS)
  DIIS error                ....       0.032 sec  ( 17.2 % of DIIS)
  DIIS work                 ....       0.135 sec  ( 72.7 % of DIIS)
  Form Q                    ....       0.000 sec  (  0.0 % of DIIS)
  Form QpQm                 ....       0.000 sec  (  0.0 % of DIIS)
  Exp/Cayley                ....       0.000 sec  (  0.0 % of DIIS)
  Orb update                ....       0.000 sec  (  0.0 % of DIIS)
  Wake-sleep                ....       0.001 sec  (  0.8 % of DIIS)
SOSCF solution              ....       0.036 sec  (  0.1%)
  MO trafo                  ....       0.026 sec  ( 73.9 % of SOSCF)
  Orb grad                  ....       0.000 sec  (  0.5 % of SOSCF)
  Rot update                ....       0.000 sec  (  0.1 % of SOSCF)
  Step                      ....       0.009 sec  ( 25.1 % of SOSCF)
Finished LeanSCF after  40.7 sec

Maximum memory used throughout the entire LEANSCF-calculation: 31.6 MB


-------------------------------------------------------------------------------
                          DFT DISPERSION CORRECTION                            
                                                                               
                                DFTD4 V3.4.0                                   
-------------------------------------------------------------------------------
The R2SCAN3C composite method is recognized
Using three-body term ABC
Active option DFTDOPT                   ...         5   

-------------------------   ----------------
Dispersion correction           -0.006528204
-------------------------   ----------------

------------------   -----------------
gCP correction             0.017444444
------------------   -----------------

-------------------------   --------------------
FINAL SINGLE POINT ENERGY      -572.560348848596
-------------------------   --------------------


------------------------------------------------------------------------------
                              ORCA PROPERTY CALCULATIONS
------------------------------------------------------------------------------

GBWName                                 ... sp.gbw
Number of atoms                         ...     20
Number of basis functions               ...    265
Max core memory                         ...   1024 MB

Electric properties:
Dipole moment                           ... YES
Quadrupole moment                       ...  NO
Static polarizability (Dipole/Dipole)   ...  NO
Static polarizability (Dipole/Quad.)    ...  NO
Static polarizability (Quad./Quad.)     ...  NO
Static polarizability (Velocity)        ...  NO

Atomic electric properties:
Dipole moment                           ...  NO
Quadrupole moment                       ...  NO
Static polarizability                   ...  NO

Choice of electric origin               ... Center of mass
Position of electric origin             ...     0.000010     0.000001    -0.000008

General magnetic properties:
Magnetizability                         ...  NO

EPR properties:
g-Tensor (aka g-matrix)                 ...  NO
Zero-Field splitting spin-orbit         ...  NO
Zero-field splitting spin-spin          ...  NO
Hyperfine couplings                     ...  NO (   0 nuclei)
Quadrupole couplings                    ...  NO (   0 nuclei)
Contact density                         ...  NO (   0 nuclei)

NMR properties:
Chemical shifts                         ...  NO (   0 nuclei)
Spin-rotation constants                 ...  NO (   0 nuclei)
Spin-spin couplings                     ...  NO (   0 nuclei,    0 pairs)

Choice of magnetic origin               ... GIAO
Position of magnetic origin             ...     0.000000     0.000000     0.000000

Properties with geometric perturbations:
SCF Hessian                             ...  NO
IR spectrum                             ...  NO
VCD spectrum                            ...  NO
X-ray spectroscopy properties:
SCF XES/XAS/RIXS spectra                ...  NO


-------------
DIPOLE MOMENT
-------------

Method             : SCF
Type of density    : Electron Density
Multiplicity       :   1
Irrep              :   0
Energy             :  -572.5712650884535151 Eh
Relativity type    : 
Basis              : AO
                                X                 Y                 Z
Electronic contribution:     -1.997601109      -0.068514582       1.559800231
Nuclear contribution   :      3.066303372       0.695860774      -1.830006139
                        -----------------------------------------
Total Dipole Moment    :      1.068702263       0.627346192      -0.270205908
                        -----------------------------------------
Magnitude (a.u.)       :      1.268344986
Magnitude (Debye)      :      3.223876749



--------------------
Rotational spectrum 
--------------------
 
Rotational constants in cm-1:             0.058003             0.041026             0.038398 
Rotational constants in MHz :          1738.899011          1229.937192          1151.135941 

Dipole components along the rotational axes: 
x,y,z [a.u.] :    -0.938130     0.700478    -0.487794 
x,y,z [Debye]:    -2.384536     1.780472    -1.239874 

 

Dipole moment calculation done in   0.0 sec 

Maximum memory used throughout the entire PROP-calculation: 20.0 MB

--------------------------------
SUGGESTED CITATIONS FOR THIS RUN
--------------------------------

Below you find a list of papers that are relevant to this ORCA run
We neither can nor want to force you to cite these papers, but we appreciate if you do
You receive ORCA, which is the product of decades of hard work by many enthusiastic individuals, for free
The only thing we kindly ask in return is that you cite our papers,
We deeply appreciate it, if you show your appreciation for ORCA by not just citing the generic ORCA reference.

Please note that relegating all ORCA citations to the supporting information does *not* help us.
SI sections are not indexed - citations you put there will not count into any citation statistics
But we need these citations in order to attract the funding resources that allow us to do what we are doing

Therefore, if you are a happy ORCA user, please consider citing a few of the papers listed below in the main body of your paper

In addition to the list printed below, the program has created the file sp.bibtex that contains the list in bibtex format
You can import this file easily into all common literature databanks and citation aid programs


List of essential papers. We consider these as the minimum necessary citations

  1. Neese,F.
     Software update: the ORCA program system, version 5.0
     WIRES Comput. Molec. Sci., 2022 12(1)e1606
     doi.org/10.1002/wcms.1606
  2. Grimme,S.; Hansen,A.; Ehlert,S.; Mewes,J.
     r2SCAN-3c: A 'Swiss army knife' composite electronic-structure method
     J. Chem. Phys., 2021 154 064103
     doi.org/10.1063/5.0040021

List of papers to cite with high priority. The work reported in these papers was absolutely
necessary for this run to complete.
Our perspective: the developers of density functionals and basis sets usually get cited in chemistry papers
Good! But without the algorithms to do something with them, the functionals or basis sets would not do anything.
Hence, in our opinion, the algorithm design and method developments papers are equally worthy of getting cited

  1. Neese,F.
     An improvement of the resolution of the identity approximation for the formation of the Coulomb matrix
     J. Comp. Chem., 2003 24(14)1740-1747
     doi.org/10.1002/jcc.10318
  2. Neese,F.
     The SHARK Integral Generation and Digestion System
     J. Comp. Chem., 2022  1-16
     doi.org/10.1002/jcc.26942
  3. Lehtola,S.; Steigemann,C.; Oliveira,M.; Marques,M.
     Recent developments in Libxc - A comprehensive library of functionals for density functional theory
     Software X, 2018 7 
     doi.org/10.1016/j.softx.2017.11.002
  4. Caldeweyher,E.; Bannwarth,C.; Grimme,S.
     Extension of the D3 dispersion coefficient model
     J. Chem. Phys., 2017 147 034112
     doi.org/10.1063/1.4993215
  5. Caldeweyher,E.; Ehlert,S.; Hansen,A.; Neugebauer,H.; Spicher,S.; Bannwarth,C.; Grimme,S.
     A generally applicable atomic-charge dependent London dispersion correction
     J. Chem. Phys., 2019 150 154122
     doi.org/10.1063/1.5090222
  6. Caldeweyher,E.; Mewes,J.; Ehlert,S.; Grimme,S.
     Extension and evaluation of the D4 London-dispersion model for periodic systems
     Phys. Chem. Chem. Phys., 2020 22(16)8499-8512
     doi.org/10.1039/D0CP00502A
  7. Wittmann,L.; Gordiy,I.; Friede,M.; Helmich-Paris,B.; Grimme,S.; Hansen,A.; Bursch,M.
     Extension of the D3 and D4 London Dispersion Corrections to the full Actinides Series
     Phys. Chem. Chem. Phys., 2024 26(32)21379-21394
     doi.org/https://doi.org/10.1039/D4CP01514B 

List of suggested additional citations. These are papers that are important in the 'surrounding' of 
of this run, or papers that preceded the highly important papers. If you like your results we are grateful for a citation.

  1. Neese,F.
     The ORCA program system
     WIRES Comput. Molec. Sci., 2012 2(1)73-78
     doi.org/10.1002/wcms.81
  2. Neese,F.
     Software update: the ORCA program system, version 4.0
     WIRES Comput. Molec. Sci., 2018 8(1)1-6
     doi.org/10.1002/wcms.1327
  3. Neese,F.; Wennmohs,F.; Becker,U.; Riplinger,C.
     The ORCA quantum chemistry program package
     J. Chem. Phys., 2020 152 Art. No. L224108
     doi.org/10.1063/5.0004608

List of optional additional citations

  1. Neese,F.
     Approximate second-order SCF convergence for spin unrestricted wavefunctions
     Chem. Phys. Lett., 2000 325(1-3)93-98
     doi.org/10.1016/s0009-2614(00)00662-x

Timings for individual modules:

Sum of individual times          ...       42.111 sec (=   0.702 min)
Startup calculation              ...        1.205 sec (=   0.020 min)   2.9 %
SCF iterations                   ...       40.832 sec (=   0.681 min)  97.0 %
Property calculations            ...        0.073 sec (=   0.001 min)   0.2 %
                             ****ORCA TERMINATED NORMALLY****
TOTAL RUN TIME: 0 days 0 hours 0 minutes 42 seconds 247 msec
