
                                 *****************
                                 * O   R   C   A *
                                 *****************

                                            #,                                       
                                            ###                                      
                                            ####                                     
                                            #####                                    
                                            ######                                   
                                           ########,                                 
                                     ,,################,,,,,                         
                               ,,#################################,,                 
                          ,,##########################################,,             
                       ,#########################################, ''#####,          
                    ,#############################################,,   '####,        
                  ,##################################################,,,,####,       
                ,###########''''           ''''###############################       
              ,#####''   ,,,,##########,,,,          '''####'''          '####       
            ,##' ,,,,###########################,,,                        '##       
           ' ,,###''''                  '''############,,,                           
         ,,##''                                '''############,,,,        ,,,,,,###''
      ,#''                                            '''#######################'''  
     '                                                          ''''####''''         
             ,#######,   #######,   ,#######,      ##                                
            ,#'     '#,  ##    ##  ,#'     '#,    #''#        ,####,   ,####,        
            ##       ##  ##   ,#'  ##            #'  '#       #'       #'  '#        
            ##       ##  #######   ##           ,######,      #####,   #    #        
            '#,     ,#'  ##    ##  '#,     ,#' ,#      #,     #,   #   #,  ,#        
             '#######'   ##     ##  '#######'  #'      '#     '####' # '####'        



                #########################################################
                #                        -***-                          #
                #          Department of theory and spectroscopy        #
                #                                                       #
                #                      Frank Neese                      #
                #                                                       #
                #     Directorship, Architecture, Infrastructure        #
                #                    SHARK, DRIVERS                     #
                #        Core code/Algorithms in most modules           #
                #                                                       #
                #        Max Planck Institute fuer Kohlenforschung      #
                #                Kaiser Wilhelm Platz 1                 #
                #                 D-45470 Muelheim/Ruhr                 #
                #                      Germany                          #
                #                                                       #
                #                  All rights reserved                  #
                #                        -***-                          #
                #########################################################


                         Program Version 6.0.1  -  RELEASE   -


 With contributions from (in alphabetic order):
[Max-Planck-Institut fuer Kohlenforschung]                               
  Daniel Aravena         : Magnetic Suceptibility                        
  Michael Atanasov       : Ab Initio Ligand Field Theory (pilot matlab implementation)
  Alexander A. Auer      : GIAO ZORA, VPT2 properties, NMR spectrum      
  Ute Becker             : All parallelization in ORCA, NUMFREQ, NUMCALC 
  Giovanni Bistoni       : ED, misc. LED, open-shell LED, HFLD           
  Martin Brehm           : Molecular dynamics                            
  Dmytro Bykov           : pre 5.0 version of the SCF Hessian            
  Marcos Casanova-Páez   : Triplet and SCS-CIS(D). UHF-(DLPNO)-IP/EA/STEOM-CCSD. UHF-CVS-IP/STEOM-CCSD   
  Vijay G. Chilkuri      : MRCI spin determinant printing, contributions to CSF-ICE 
  Pauline Colinet        : FMM embedding                                 
  Dipayan Datta          : RHF DLPNO-CCSD density                        
  Achintya Kumar Dutta   : EOM-CC, STEOM-CC                              
  Nicolas Foglia         : Exact transition moments, OPA infrastructure, MCD improvements    
  Dmitry Ganyushin       : Spin-Orbit,Spin-Spin,Magnetic field MRCI      
  Miquel Garcia-Rates    : C-PCM and meta-GGA Hessian, CCSD/C-PCM, Gaussian charge scheme 
  Tiago L. C. Gouveia    : GS-ROHF, GS-ROCIS                             
  Yang Guo               : DLPNO-NEVPT2, F12-NEVPT2, CIM, IAO-localization        
  Andreas Hansen         : Spin unrestricted coupled pair/coupled cluster methods 
  Ingolf Harden          : AUTO-CI MPn and infrastructure                
  Benjamin Helmich-Paris : MC-RPA, TRAH-(SCF,CASSCF), AVAS, COSX integrals, SCF dyn. polar. 
  Lee Huntington         : MR-EOM, pCC                                   
  Robert Izsak           : Overlap fitted RIJCOSX, COSX-SCS-MP3, EOM     
  Riya Kayal             : Wick's Theorem for AUTO-CI, AUTO-CI UHF-CCSDT 
  Emily Kempfer          : AUTO-CI, RHF CISDT and CCSDT                  
  Christian Kollmar      : KDIIS, OOCD, Brueckner-CCSD(T), CCSD density, CASPT2, CASPT2-K, improved NEVPT2 
  Axel Koslowski         : Symmetry handling                             
  Simone Kossmann        : meta-GGA functionals, TD-DFT gradient, OOMP2, (MP2 Hessian; deprecated post 5.0) 
  Lucas Lang             : DCDCAS                                        
  Marvin Lechner         : AUTO-CI (C++ implementation), FIC-MRCC        
  Spencer Leger          : CASSCF response                               
  Dagmar Lenk            : GEPOL surface, SMD, ORCA-2-JSON               
  Dimitrios Liakos       : Extrapolation schemes; Compound Job, initial MDCI parallelization 
  Dimitrios Manganas     : Further ROCIS development; embedding schemes. LFT, Crystal Embedding 
  Dimitrios Pantazis     : SARC Basis sets                               
  Anastasios Papadopoulos: AUTO-CI, single reference methods and gradients 
  Taras Petrenko         : pre 6.0 DFT Hessian and TD-DFT gradient, (ASA, deprecated), ECA, 1-Electron XAS/XES, NRVS 
  Peter Pinski           : DLPNO-MP2, DLPNO-MP2 Gradient                 
  Christoph Reimann      : Effective Core Potentials                     
  Marius Retegan         : Local ZFS, SOC                                
  Christoph Riplinger    : Optimizer, TS searches, QM/MM, DLPNO-CCSD(T), (RO)-DLPNO pert. Triples 
  Michael Roemelt        : Original ROCIS implementation                 
  Masaaki Saitow         : Open-shell DLPNO-CCSD energy and density      
  Barbara Sandhoefer     : DKH picture change effects                    
  Kantharuban Sivalingam : CASSCF convergence/infrastructure, NEVPT2 and variants, FIC-MRCI 
  Bernardo de Souza      : ESD, SOC TD-DFT                               
  Georgi L. Stoychev     : AutoAux, RI-MP2 NMR, DLPNO-MP2 response, X2C  
  Van Anh Tran           : RI-MP2 g-tensors                              
  Willem Van den Heuvel  : Paramagnetic NMR                              
  Zikuan Wang            : NOTCH, Electric field optimization            
  Frank Wennmohs         : Technical directorship and infrastructure     
  Hang Xu                : AUTO-CI-Response properties                   
                                                                         
[FACCTs GmbH]                                                            
  Markus Bursch, Miquel Garcia-Rates, Christoph Riplinger, Bernardo de Souza, Georgi L. Stoychev 
                                                                 
  APM, Basis sets (HGBS, AHGBS, def-TZVP (Ac-Lr), def2-XVPD (La-Lu)), CI-OPT, improved COSX, DLPNO-Multilevel,           
  DOCKER, DRACO, updates on ESD, GOAT, IRC, LR-CPCM, MBIS, meta-GGA TD-DFT gradient, ML-optimized integration grids, 
  MM, NACMEs, nearIR, NEB, NEB-TS, NL-DFT gradient (VV10), 2- and 3-layer-ONIOM, interface openCOSMO-RS, QMMM,   
  Crystal-QMMM, SF, symmetry and pop. for TD-DFT, r2SCAN hybrids, SOLVATOR                                   
                                                                         
[Other institutions]                                                     
  V. Asgeirsson          : NEB                                           
  Christoph Bannwarth    : sTDA-DFT, sTD-DFT, PBEh-3c, B97-3c, D3        
  Sebastian Ehlert       : rSCAN, r2SCAN, r2SCAN-3c, D4, dhf basis sets  
  Marvin Friede          : D4 for Fr, Ra, Ac-Lr                          
  Lars Goerigk           : TD-DFT with DH, B97 family of functionals     
  Stefan Grimme          : VdW corrections, initial TS optimization, DFT functionals, gCP, sTDA/sTD-DF 
  Waldemar Hujo          : DFT-NL                                        
  H. Jonsson             : NEB                                           
  Holger Kruse           : gCP                                           
  Marcel Mueller         : wB97X-3c, vDZP basis set                      
  Hagen Neugebauer       : wr2SCAN                                       
  Tobias Risthaus        : range-separated hybrid DFT                    
  Lukas Wittmann         : regularized MP2, r2SCAN double-hybrids, wr2SCAN        
                                                                         
We gratefully acknowledge several colleagues who have allowed us to      
interface, adapt or use parts of their codes:                            
  Ed Valeev, F. Pavosevic, A. Kumar             : LibInt (2-el integral package), F12 methods 
  Garnet Chan, S. Sharma, J. Yang, R. Olivares  : DMRG                   
  Ulf Ekstrom                                   : XCFun DFT Library      
  Mihaly Kallay                                 : mrcc  (arbitrary order and MRCC methods)
  Frank Weinhold                                : gennbo (NPA and NBO analysis)           
  Simon Mueller                                 : openCOSMO-RS                            
  Christopher J. Cramer and Donald G. Truhlar   : smd solvation model                     
  S Lehtola, MJT Oliveira, MAL Marques          : LibXC Library                           
  Liviu Ungur et al                             : ANISO software                          


 Your calculation uses the libint2 library for the computation of 2-el integrals
 For citations please refer to: http://libint.valeyev.net

 Your ORCA version has been built with support for libXC version: 6.2.2
 For citations please refer to: https://libxc.gitlab.io

 This ORCA versions uses:
   CBLAS   interface :  Fast vector & matrix operations
   LAPACKE interface :  Fast linear algebra routines
   SCALAPACK package :  Parallel linear algebra routines
   Shared memory     :  Shared parallel matrices
   BLAS/LAPACK       :  OpenBLAS 0.3.27  USE64BITINT DYNAMIC_ARCH NO_AFFINITY Zen SINGLE_THREADED
        Core in use  :  Zen
   Copyright (c) 2011-2014, The OpenBLAS Project


Your calculation utilizes the geometrical counterpoise correction gCP
Please cite in your paper:
H.Kruse, S. Grimme J.Chem.Phys., 136, (2012), 154101 
   

Your calculation utilizes the atom-pairwise dispersion correction
based on EEQ partial charges (D4)


================================================================================

----- Orbital basis set information -----
Your calculation utilizes the basis: def2-SV(P)
   F. Weigend and R. Ahlrichs, Phys. Chem. Chem. Phys. 7, 3297 (2005).

----- AuxJ basis set information -----
Your calculation utilizes the auxiliary basis: def2/J
   F. Weigend, Phys. Chem. Chem. Phys. 8, 1057 (2006).

================================================================================
                                        WARNINGS
                       Please study these warnings very carefully!
================================================================================

WARNING: Old DensityContainer found on disk!
         Will remove this file - 
         If you want to keep old densities, please start your calculation with a different basename. 


================================================================================
                                       INPUT FILE
================================================================================
NAME = sp.inp
|  1> ! pbe def2-sv(p) def2/J RI DEFGRID1 loosescf d4 GCP(DFT/SV(P)) printgap
|  2> %output
|  3>     printlevel normal
|  4> end
|  5> * xyz 0 1
|  6> C 0.6538313086 1.6924606648 -0.0528833539
|  7> C 1.4188355497 0.38561163 -0.2799703897
|  8> H 1.6113210682 0.2525100885 -1.3561764169
|  9> C 0.558702501 -0.7927348369 0.193679744
| 10> H 0.4109255885 -0.7175817333 1.2866633316
| 11> C -0.8056730922 -0.743150516 -0.5112737338
| 12> H -0.6524794848 -0.9072607356 -1.5836134329
| 13> C -1.4628177205 0.6372250791 -0.2851651219
| 14> H -2.3529470039 0.7297892449 -0.9187514114
| 15> O -0.6255496202 1.6868153157 -0.6579641745
| 16> O -1.934504595 0.7205036532 1.0335302627
| 17> O -1.6422513321 -1.7705079174 -0.0454856559
| 18> O 1.2387164457 -1.9906036414 -0.0970022737
| 19> O 2.6243311816 0.4562712339 0.4334342125
| 20> H 1.1875729505 2.5248756263 -0.5112192558
| 21> H 0.5958616197 1.8807740064 1.0291637182
| 22> H -1.2096269286 0.9717843934 1.6187192764
| 23> H -2.1410005251 -1.4206210844 0.7081911413
| 24> H 0.5843611083 -2.7010924429 -0.102456436
| 25> H 3.0270185933 -0.4208116531 0.3988295937
| 26> *
| 27> 
| 28>                          ****END OF INPUT****
================================================================================

                       ****************************
                       * Single Point Calculation *
                       ****************************

---------------------------------
CARTESIAN COORDINATES (ANGSTROEM)
---------------------------------
  C      0.653831    1.692461   -0.052883
  C      1.418836    0.385612   -0.279970
  H      1.611321    0.252510   -1.356176
  C      0.558703   -0.792735    0.193680
  H      0.410926   -0.717582    1.286663
  C     -0.805673   -0.743151   -0.511274
  H     -0.652479   -0.907261   -1.583613
  C     -1.462818    0.637225   -0.285165
  H     -2.352947    0.729789   -0.918751
  O     -0.625550    1.686815   -0.657964
  O     -1.934505    0.720504    1.033530
  O     -1.642251   -1.770508   -0.045486
  O      1.238716   -1.990604   -0.097002
  O      2.624331    0.456271    0.433434
  H      1.187573    2.524876   -0.511219
  H      0.595862    1.880774    1.029164
  H     -1.209627    0.971784    1.618719
  H     -2.141001   -1.420621    0.708191
  H      0.584361   -2.701092   -0.102456
  H      3.027019   -0.420812    0.398830

----------------------------
CARTESIAN COORDINATES (A.U.)
----------------------------
  NO LB      ZA    FRAG     MASS         X           Y           Z
   0 C     6.0000    0    12.011    1.235562    3.198287   -0.099935
   1 C     6.0000    0    12.011    2.681211    0.728700   -0.529067
   2 H     1.0000    0     1.008    3.044956    0.477175   -2.562802
   3 C     6.0000    0    12.011    1.055795   -1.498052    0.366002
   4 H     1.0000    0     1.008    0.776537   -1.356033    2.431441
   5 C     6.0000    0    12.011   -1.522501   -1.404351   -0.966167
   6 H     1.0000    0     1.008   -1.233008   -1.714474   -2.992596
   7 C     6.0000    0    12.011   -2.764325    1.204181   -0.538884
   8 H     1.0000    0     1.008   -4.446425    1.379102   -1.736189
   9 O     8.0000    0    15.999   -1.182117    3.187619   -1.243372
  10 O     8.0000    0    15.999   -3.655684    1.361555    1.953089
  11 O     8.0000    0    15.999   -3.103405   -3.345775   -0.085955
  12 O     8.0000    0    15.999    2.340835   -3.761696   -0.183308
  13 O     8.0000    0    15.999    4.959267    0.862228    0.819072
  14 H     1.0000    0     1.008    2.244188    4.771323   -0.966064
  15 H     1.0000    0     1.008    1.126015    3.554148    1.944838
  16 H     1.0000    0     1.008   -2.285864    1.836406    3.058936
  17 H     1.0000    0     1.008   -4.045905   -2.684585    1.338287
  18 H     1.0000    0     1.008    1.104282   -5.104325   -0.193615
  19 H     1.0000    0     1.008    5.720236   -0.795219    0.753679

--------------------------------
INTERNAL COORDINATES (ANGSTROEM)
--------------------------------
 C      0   0   0     0.000000000000     0.00000000     0.00000000
 C      1   0   0     1.531226439978     0.00000000     0.00000000
 H      2   1   0     1.101356485505   109.59545558     0.00000000
 C      2   1   3     1.533842790730   109.25062706   242.00479713
 H      4   2   1     1.105485923751   109.15003196   295.19005591
 C      4   2   1     1.536534662825   109.35818662    54.88044988
 H      6   4   2     1.095587913310   108.66680011    65.42892984
 C      6   4   2     1.545445227249   109.83241122   305.47072650
 H      8   6   4     1.096508026509   109.63602958   170.82370261
 O      8   6   4     1.393426234203   112.21905172    53.76206352
 O      8   6   4     1.402990144600   109.48081905   285.96503112
 O      6   4   2     1.404380616215   110.68158171   183.08327241
 O      4   2   1     1.407765844590   108.60544007   176.39604467
 O      2   1   3     1.402554321441   108.11811626   120.70534547
 H      1   2   3     1.089892933915   110.17019318   306.00595867
 H      1   2   3     1.099840109150   108.56418984   187.94780035
 H     11   8   6     0.964901976056   109.44643144    82.94854208
 H     12   6   4     0.969123453468   107.48108658    90.36844501
 H     13   4   2     0.965921835620   107.44653941   200.37595441
 H     14   2   1     0.965727198464   107.12227711   171.03916971

---------------------------
INTERNAL COORDINATES (A.U.)
---------------------------
 C      0   0   0     0.000000000000     0.00000000     0.00000000
 C      1   0   0     2.893598620577     0.00000000     0.00000000
 H      2   1   0     2.081262133422   109.59545558     0.00000000
 C      2   1   3     2.898542806970   109.25062706   242.00479713
 H      4   2   1     2.089065640794   109.15003196   295.19005591
 C      4   2   1     2.903629708015   109.35818662    54.88044988
 H      6   4   2     2.070361111790   108.66680011    65.42892984
 C      6   4   2     2.920468234476   109.83241122   305.47072650
 H      8   6   4     2.072099873749   109.63602958   170.82370261
 O      8   6   4     2.633193970465   112.21905172    53.76206352
 O      8   6   4     2.651267141885   109.48081905   285.96503112
 O      6   4   2     2.653894752433   110.68158171   183.08327241
 O      4   2   1     2.660291906964   108.60544007   176.39604467
 O      2   1   3     2.650443555472   108.11811626   120.70534547
 H      1   2   3     2.059599160395   110.17019318   306.00595867
 H      1   2   3     2.078396597396   108.56418984   187.94780035
 H     11   8   6     1.823400480825   109.44643144    82.94854208
 H     12   6   4     1.831377917015   107.48108658    90.36844501
 H     13   4   2     1.825327736096   107.44653941   200.37595441
 H     14   2   1     1.824959925175   107.12227711   171.03916971

---------------------
BASIS SET INFORMATION
---------------------
There are 3 groups of distinct atoms

 Group   1 Type C   : 7s4p1d contracted to 3s2p1d pattern {511/31/1}
 Group   2 Type H   : 4s contracted to 2s pattern {31}
 Group   3 Type O   : 7s4p1d contracted to 3s2p1d pattern {511/31/1}

Atom   0C    basis set group =>   1
Atom   1C    basis set group =>   1
Atom   2H    basis set group =>   2
Atom   3C    basis set group =>   1
Atom   4H    basis set group =>   2
Atom   5C    basis set group =>   1
Atom   6H    basis set group =>   2
Atom   7C    basis set group =>   1
Atom   8H    basis set group =>   2
Atom   9O    basis set group =>   3
Atom  10O    basis set group =>   3
Atom  11O    basis set group =>   3
Atom  12O    basis set group =>   3
Atom  13O    basis set group =>   3
Atom  14H    basis set group =>   2
Atom  15H    basis set group =>   2
Atom  16H    basis set group =>   2
Atom  17H    basis set group =>   2
Atom  18H    basis set group =>   2
Atom  19H    basis set group =>   2
---------------------------------
AUXILIARY/J BASIS SET INFORMATION
---------------------------------
There are 3 groups of distinct atoms

 Group   1 Type C   : 12s5p4d2f1g contracted to 6s4p3d1f1g pattern {711111/2111/211/2/1}
 Group   2 Type H   : 5s2p1d contracted to 3s1p1d pattern {311/2/1}
 Group   3 Type O   : 12s5p4d2f1g contracted to 6s4p3d1f1g pattern {711111/2111/211/2/1}

Atom   0C    basis set group =>   1
Atom   1C    basis set group =>   1
Atom   2H    basis set group =>   2
Atom   3C    basis set group =>   1
Atom   4H    basis set group =>   2
Atom   5C    basis set group =>   1
Atom   6H    basis set group =>   2
Atom   7C    basis set group =>   1
Atom   8H    basis set group =>   2
Atom   9O    basis set group =>   3
Atom  10O    basis set group =>   3
Atom  11O    basis set group =>   3
Atom  12O    basis set group =>   3
Atom  13O    basis set group =>   3
Atom  14H    basis set group =>   2
Atom  15H    basis set group =>   2
Atom  16H    basis set group =>   2
Atom  17H    basis set group =>   2
Atom  18H    basis set group =>   2
Atom  19H    basis set group =>   2

Checking for AutoStart:
The File: sp.gbw exists
Trying to determine its content:
     ... Fine, the file contains calculation information
     ... Fine, the calculation information was read
     ... Fine, the file contains a basis set
     ... Fine, the basis set was read
     ... Fine, the file contains a geometry
     ... Fine, the geometry was read
     ... Fine, the file contains a set of orbitals
     ... Fine, the orbitals can be read
     => possible old guess file was deleted
     => GBW file was renamed to GES file
     => GES file is set as startup file
     => Guess is set to MORead
     ... now leaving AutoStart

------------------------------------------------------------------------------
                             ORCA STARTUP CALCULATIONS
                           -- RI-GTO INTEGRALS CHOSEN --
------------------------------------------------------------------------------
------------------------------------------------------------------------------
                   ___                                                        
                  /   \      - P O W E R E D   B Y -                         
                 /     \                                                     
                 |  |  |   _    _      __       _____    __    __             
                 |  |  |  | |  | |    /  \     |  _  \  |  |  /  |          
                  \  \/   | |  | |   /    \    | | | |  |  | /  /          
                 / \  \   | |__| |  /  /\  \   | |_| |  |  |/  /          
                |  |  |   |  __  | /  /__\  \  |    /   |      \           
                |  |  |   | |  | | |   __   |  |    \   |  |\   \          
                \     /   | |  | | |  |  |  |  | |\  \  |  | \   \       
                 \___/    |_|  |_| |__|  |__|  |_| \__\ |__|  \__/        
                                                                              
                      - O R C A' S   B I G   F R I E N D -                    
                                      &                                       
                       - I N T E G R A L  F E E D E R -                       
                                                                              
 v1 FN, 2020, v2 2021, v3 2022-2024                                           
------------------------------------------------------------------------------


----------------------
SHARK INTEGRAL PACKAGE
----------------------

Number of atoms                             ...     20
Number of basis functions                   ...    160
Number of shells                            ...     80
Maximum angular momentum                    ...      2
Integral batch strategy                     ... SHARK/LIBINT Hybrid
RI-J (if used) integral strategy            ... SPLIT-RIJ (Revised 2003 algorithm where possible)
Printlevel                                  ...      1
Contraction scheme used                     ... SEGMENTED contraction
Prescreening option                         ... SCHWARTZ
   Thresh                                   ... 1.000e-09
   Tcut                                     ... 1.000e-10
   Tpresel                                  ... 1.000e-10 
Coulomb Range Separation                    ... NOT USED
Exchange Range Separation                   ... NOT USED
Multipole approximations                    ... NOT USED
Finite Nucleus Model                        ... NOT USED
CABS basis                                  ... NOT available
Auxiliary Coulomb fitting basis             ... AVAILABLE
   # of basis functions in Aux-J            ...    600
   # of shells in Aux-J                     ...    200
   Maximum angular momentum in Aux-J        ...      4
Auxiliary J/K fitting basis                 ... NOT available
Auxiliary Correlation fitting basis         ... NOT available
Auxiliary 'external' fitting basis          ... NOT available

Checking pre-screening integrals            ... done (  0.0 sec) Dimension = 80
Check shell pair data                       ... done (  0.0 sec)
Shell pair information
Shell pair cut-off parameter TPreSel        ...   1.0e-10
Total number of shell pairs                 ...      3240
Shell pairs after pre-screening             ...      3037
Total number of primitive shell pairs       ...     13040
Primitive shell pairs kept                  ...      8519
          la=0 lb=0:   1185 shell pairs
          la=1 lb=0:    953 shell pairs
          la=1 lb=1:    206 shell pairs
          la=2 lb=0:    452 shell pairs
          la=2 lb=1:    191 shell pairs
          la=2 lb=2:     50 shell pairs

Calculating one electron integrals          ... done (  0.0 sec)
Calculating RI/J V-Matrix + Cholesky decomp.... done (  0.0 sec)
Calculating Nuclear repulsion               ... done (  0.0 sec) ENN=    624.586511375460 Eh

Diagonalization of the overlap matrix:
Smallest eigenvalue                        ... 9.999e-04
Time for diagonalization                   ...    0.002 sec
Threshold for overlap eigenvalues          ... 1.000e-07
Number of eigenvalues below threshold      ... 0
Time for construction of square roots      ...    0.001 sec
Total time needed                          ...    0.004 sec

-------------------
DFT GRID GENERATION
-------------------

General Integration Accuracy     IntAcc      ... 4.159
Radial Grid Type                 RadialGrid  ... OptM3 with GC (2021)
Angular Grid (max. ang.)         AngularGrid ... 3 (Lebedev-194)
Angular grid pruning method      GridPruning ... 4 (adaptive)
Weight generation scheme         WeightScheme... mBecke (2022)
Basis function cutoff            BFCut       ... 1.0000e-10
Integration weight cutoff        WCut        ... 1.0000e-14
Partially contracted basis set               ... off
Rotationally invariant grid construction     ... off
Angular grids for H and He will be reduced by one unit

Total number of grid points                  ...    46489
Total number of batches                      ...      738
Average number of points per batch           ...       62
Average number of grid points per atom       ...     2324
Initializing property integral containers    ... done (  0.0 sec)

SHARK setup successfully completed in   0.5 seconds

Maximum memory used throughout the entire STARTUP-calculation: 23.8 MB
-------------------------------------------------------------------------------
                                 ORCA GUESS
                   Start orbitals & Density for SCF / CASSCF
-------------------------------------------------------------------------------

------------
SCF SETTINGS
------------
Hamiltonian:
 Density Functional     Method          .... DFT(GTOs)
 Exchange Functional    Exchange        .... PBE
   PBE kappa parameter   XKappa         ....  0.804000
   PBE mue parameter    XMuePBE         ....  0.219520
 Correlation Functional Correlation     .... PBE
   PBE beta parameter  CBetaPBE         ....  0.066725
 LDA part of GGA corr.  LDAOpt          .... PW91-LDA
 Gradients option       PostSCFGGA      .... off
   NL short-range parameter             ....  6.400000
 RI-approximation to the Coulomb term is turned on
   Number of AuxJ basis functions       .... 600


General Settings:
 Integral files         IntName         .... sp
 Hartree-Fock type      HFTyp           .... RHF
 Total Charge           Charge          ....    0
 Multiplicity           Mult            ....    1
 Number of Electrons    NEL             ....   80
 Basis Dimension        Dim             ....  160
 Nuclear Repulsion      ENuc            ....    624.5865113755 Eh

Convergence Acceleration:
 AO-DIIS                CNVDIIS         .... on
   Start iteration      DIISMaxIt       ....    12
   Startup error        DIISStart       ....  0.200000
   # of expansion vecs  DIISMaxEq       ....     5
   Bias factor          DIISBfac        ....   1.050
   Max. coefficient     DIISMaxC        ....  10.000
 MO-DIIS                CNVKDIIS        .... off
 Trust-Rad. Augm. Hess. CNVTRAH         .... auto
   Auto Start mean grad. ratio tolernc. ....  1.125000
   Auto Start start iteration           ....     1
   Auto Start num. interpolation iter.  ....    10
   Max. Number of Micro iterations      ....    24
   Max. Number of Macro iterations      .... Maxiter - #DIIS iter
   Number of Davidson start vectors     ....     2
   Converg. threshold    (grad. norm)   ....   1.000e-04
   Grad. Scal. Fac. for Micro threshold ....   0.100
   Minimum threshold for Micro iter.    ....   1.000e-02
   NR start threshold (gradient norm)   ....   1.000e-04
   Initial trust radius                 ....   0.400
   Minimum AH scaling param. (alpha)    ....   1.000
   Maximum AH scaling param. (alpha)    .... 1000.000
   Quad. conv. algorithm                .... NR
   White noise on init. David. guess    .... on
   Maximum white noise                  ....   0.010
   Pseudo random numbers                .... off
   Inactive MOs                         .... canonical
   Orbital update algorithm             .... Taylor
   Preconditioner                       .... Diag
   Full preconditioner red. dimension   ....   250
 SOSCF                  CNVSOSCF        .... on
   Start iteration      SOSCFMaxIt      ....   150
   Startup grad/error   SOSCFStart      ....  0.003300
   Hessian update       SOSCFHessUp     .... L-BFGS
 Level Shifting         CNVShift        .... on
   Level shift para.    LevelShift      ....    0.2500
   Turn off err/grad.   ShiftErr        ....    0.0010
 Zerner damping         CNVZerner       .... off
 Static damping         CNVDamp         .... on
   Fraction old density DampFac         ....    0.7000
   Max. Damping (<1)    DampMax         ....    0.9800
   Min. Damping (>=0)   DampMin         ....    0.0000
   Turn off err/grad.   DampErr         ....    0.1000

SCF Procedure:
 Maximum # iterations   MaxIter         ....   125
 SCF integral mode      SCFMode         .... Direct
   Integral package                     .... SHARK and LIBINT hybrid scheme
 Reset frequency        DirectResetFreq ....    20
 Integral Threshold     Thresh          ....  1.000e-09 Eh
 Primitive CutOff       TCut            ....  1.000e-10 Eh

Convergence Tolerance:
 Convergence Check Mode ConvCheckMode   .... Total+1el-Energy
 Convergence forced     ConvForced      .... 0
 Energy Change          TolE            ....  1.000e-05 Eh
 1-El. energy change                    ....  1.000e-02 Eh
 Orbital Gradient       TolG            ....  1.000e-04
 Orbital Rotation angle TolX            ....  1.000e-04
 DIIS Error             TolErr          ....  5.000e-04

---------------------
INITIAL GUESS: MOREAD
---------------------
Guess MOs are being read from file: sp.ges
Input Geometry matches current geometry (good)
Input basis set matches current basis set (good)
Occupation numbers will be reassigned to an Aufbau configuration
MOs were renormalized
MOs were reorthogonalized (Cholesky)
                      ------------------
                      INITIAL GUESS DONE (   0.0 sec)
                      ------------------
             **** ENERGY FILE WAS UPDATED (sp.en.tmp) ****
Finished Guess after   0.1 sec
Maximum memory used throughout the entire GUESS-calculation: 11.7 MB

-------------------------------------------------------------------------------------------
                                      ORCA LEAN-SCF
                              memory conserving SCF solver
-------------------------------------------------------------------------------------------

----------------------------------------D-I-I-S--------------------------------------------
Iteration    Energy (Eh)           Delta-E    RMSDP     MaxDP     DIISErr   Damp  Time(sec)
-------------------------------------------------------------------------------------------
               ***  Starting incremental Fock matrix formation  ***
                              *** Initializing SOSCF ***
---------------------------------------S-O-S-C-F--------------------------------------
Iteration    Energy (Eh)           Delta-E    RMSDP     MaxDP     MaxGrad    Time(sec)
--------------------------------------------------------------------------------------
    1    -571.5276030732587742     0.00e+00  1.58e-05  2.60e-04  2.06e-05     0.7
               *** Restarting incremental Fock matrix formation ***
    2    -571.5276031318627474    -5.86e-08  2.48e-05  3.98e-04  5.35e-05     0.7
    3    -571.5276024854894104     6.46e-07  1.67e-05  2.72e-04  1.04e-04     0.5
                 **** Energy Check signals convergence ****

               *****************************************************
               *                     SUCCESS                       *
               *           SCF CONVERGED AFTER   3 CYCLES          *
               *****************************************************

             **** ENERGY FILE WAS UPDATED (sp.en.tmp) ****

----------------
TOTAL SCF ENERGY
----------------

Total Energy       :       -571.52760248548941 Eh          -15552.05671 eV

Components:
Nuclear Repulsion  :        624.58651137546019 Eh           16995.86303 eV
Electronic Energy  :      -1196.11411386094960 Eh          -32547.91974 eV
One Electron Energy:      -2022.80769251587571 Eh          -55043.39567 eV
Two Electron Energy:        826.69357865492611 Eh           22495.47592 eV

Virial components:
Potential Energy   :      -1139.12713522992453 Eh          -30997.22522 eV
Kinetic Energy     :        567.59953274443512 Eh           15445.16850 eV
Virial Ratio       :          2.00692049502236

DFT components:
N(Alpha)           :       40.000625492805 electrons
N(Beta)            :       40.000625492805 electrons
N(Total)           :       80.001250985611 electrons
E(X)               :      -70.505896747558 Eh       
E(C)               :       -2.735503580083 Eh       
E(XC)              :      -73.241400327641 Eh       

---------------
SCF CONVERGENCE
---------------

  Last Energy change         ...   -6.4637e-07  Tolerance :   1.0000e-05
  Last MAX-Density change    ...    2.7233e-04  Tolerance :   1.0000e-03
  Last RMS-Density change    ...    1.6744e-05  Tolerance :   1.0000e-04
  Last DIIS Error            ...    1.6616e-04  Tolerance :   5.0000e-04
  Last Orbital Gradient      ...    1.0360e-04  Tolerance :   1.0000e-04
  Last Orbital Rotation      ...    6.0096e-05  Tolerance :   1.0000e-04


----------------
ORBITAL ENERGIES
----------------

  NO   OCC          E(Eh)            E(eV) 
   0   2.0000     -18.781367      -511.0670 
   1   2.0000     -18.781230      -511.0633 
   2   2.0000     -18.762321      -510.5487 
   3   2.0000     -18.760373      -510.4957 
   4   2.0000     -18.756108      -510.3796 
   5   2.0000      -9.997137      -272.0359 
   6   2.0000      -9.948711      -270.7182 
   7   2.0000      -9.947341      -270.6809 
   8   2.0000      -9.946441      -270.6564 
   9   2.0000      -9.945238      -270.6237 
  10   2.0000      -0.998029       -27.1578 
  11   2.0000      -0.951498       -25.8916 
  12   2.0000      -0.942193       -25.6384 
  13   2.0000      -0.925234       -25.1769 
  14   2.0000      -0.920543       -25.0493 
  15   2.0000      -0.707670       -19.2567 
  16   2.0000      -0.690392       -18.7865 
  17   2.0000      -0.596138       -16.2218 
  18   2.0000      -0.588724       -16.0200 
  19   2.0000      -0.539737       -14.6870 
  20   2.0000      -0.508151       -13.8275 
  21   2.0000      -0.496067       -13.4987 
  22   2.0000      -0.474220       -12.9042 
  23   2.0000      -0.453833       -12.3494 
  24   2.0000      -0.441812       -12.0223 
  25   2.0000      -0.427823       -11.6417 
  26   2.0000      -0.415379       -11.3030 
  27   2.0000      -0.391574       -10.6553 
  28   2.0000      -0.364021        -9.9055 
  29   2.0000      -0.357215        -9.7203 
  30   2.0000      -0.338088        -9.1999 
  31   2.0000      -0.322703        -8.7812 
  32   2.0000      -0.310685        -8.4542 
  33   2.0000      -0.303840        -8.2679 
  34   2.0000      -0.289282        -7.8718 
  35   2.0000      -0.255569        -6.9544 
  36   2.0000      -0.252882        -6.8813 
  37   2.0000      -0.242627        -6.6022 
  38   2.0000      -0.222524        -6.0552 
  39   2.0000      -0.211738        -5.7617 
  40   0.0000       0.002896         0.0788 
  41   0.0000       0.021347         0.5809 
  42   0.0000       0.041150         1.1198 
  43   0.0000       0.053444         1.4543 
  44   0.0000       0.074543         2.0284 
  45   0.0000       0.082839         2.2542 
  46   0.0000       0.086882         2.3642 
  47   0.0000       0.098751         2.6871 
  48   0.0000       0.109466         2.9787 
  49   0.0000       0.120163         3.2698 
  50   0.0000       0.130225         3.5436 
*Only the first 10 virtual orbitals were printed.

                    ********************************
                    * MULLIKEN POPULATION ANALYSIS *
                    ********************************

-----------------------
MULLIKEN ATOMIC CHARGES
-----------------------
   0 C :    0.046322
   1 C :    0.042098
   2 H :    0.065964
   3 C :    0.017407
   4 H :    0.030709
   5 C :    0.038825
   6 H :    0.077729
   7 C :    0.157954
   8 H :    0.086616
   9 O :   -0.292089
  10 O :   -0.415680
  11 O :   -0.424127
  12 O :   -0.425241
  13 O :   -0.417043
  14 H :    0.114349
  15 H :    0.061119
  16 H :    0.308998
  17 H :    0.303131
  18 H :    0.310080
  19 H :    0.312880
Sum of atomic charges:   -0.0000000

--------------------------------
MULLIKEN REDUCED ORBITAL CHARGES
--------------------------------
  0 C s       :     3.023626  s :     3.023626
      pz      :     0.997212  p :     2.869069
      px      :     0.789513
      py      :     1.082344
      dz2     :     0.014972  d :     0.060983
      dxz     :     0.013060
      dyz     :     0.005722
      dx2y2   :     0.012815
      dxy     :     0.014413

  1 C s       :     3.042723  s :     3.042723
      pz      :     0.989472  p :     2.846008
      px      :     0.834378
      py      :     1.022158
      dz2     :     0.019083  d :     0.069171
      dxz     :     0.015132
      dyz     :     0.006439
      dx2y2   :     0.013155
      dxy     :     0.015362

  2 H s       :     0.934036  s :     0.934036

  3 C s       :     3.079013  s :     3.079013
      pz      :     1.015413  p :     2.835527
      px      :     0.964952
      py      :     0.855162
      dz2     :     0.016231  d :     0.068052
      dxz     :     0.008904
      dyz     :     0.011804
      dx2y2   :     0.013813
      dxy     :     0.017301

  4 H s       :     0.969291  s :     0.969291

  5 C s       :     3.033106  s :     3.033106
      pz      :     1.044685  p :     2.860911
      px      :     0.916624
      py      :     0.899602
      dz2     :     0.015754  d :     0.067158
      dxz     :     0.009919
      dyz     :     0.008781
      dx2y2   :     0.016102
      dxy     :     0.016601

  6 H s       :     0.922271  s :     0.922271

  7 C s       :     3.026028  s :     3.026028
      pz      :     0.830453  p :     2.715238
      px      :     1.000332
      py      :     0.884454
      dz2     :     0.022703  d :     0.100781
      dxz     :     0.024393
      dyz     :     0.018757
      dx2y2   :     0.016810
      dxy     :     0.018117

  8 H s       :     0.913384  s :     0.913384

  9 O s       :     3.748353  s :     3.748353
      pz      :     1.688069  p :     4.527598
      px      :     1.278641
      py      :     1.560888
      dz2     :     0.002234  d :     0.016138
      dxz     :     0.003730
      dyz     :     0.002594
      dx2y2   :     0.003874
      dxy     :     0.003706

 10 O s       :     3.778837  s :     3.778837
      pz      :     1.240983  p :     4.621516
      px      :     1.550617
      py      :     1.829917
      dz2     :     0.001983  d :     0.015327
      dxz     :     0.007160
      dyz     :     0.001292
      dx2y2   :     0.002942
      dxy     :     0.001950

 11 O s       :     3.781900  s :     3.781900
      pz      :     1.512926  p :     4.626814
      px      :     1.554510
      py      :     1.559378
      dz2     :     0.002620  d :     0.015413
      dxz     :     0.002758
      dyz     :     0.003801
      dx2y2   :     0.002356
      dxy     :     0.003878

 12 O s       :     3.778621  s :     3.778621
      pz      :     1.871480  p :     4.631372
      px      :     1.542627
      py      :     1.217264
      dz2     :     0.002733  d :     0.015248
      dxz     :     0.001582
      dyz     :     0.001150
      dx2y2   :     0.001618
      dxy     :     0.008164

 13 O s       :     3.783085  s :     3.783085
      pz      :     1.745693  p :     4.618297
      px      :     1.412334
      py      :     1.460269
      dz2     :     0.003013  d :     0.015661
      dxz     :     0.002760
      dyz     :     0.001359
      dx2y2   :     0.004664
      dxy     :     0.003865

 14 H s       :     0.885651  s :     0.885651

 15 H s       :     0.938881  s :     0.938881

 16 H s       :     0.691002  s :     0.691002

 17 H s       :     0.696869  s :     0.696869

 18 H s       :     0.689920  s :     0.689920

 19 H s       :     0.687120  s :     0.687120


------------------------
MULLIKEN OVERLAP CHARGES
------------------------
B(  0-C ,  1-C ) :   0.2307 B(  0-C ,  5-C ) :  -0.0746 B(  0-C ,  7-C ) :  -0.1329 
B(  0-C ,  9-O ) :   0.5961 B(  0-C , 13-O ) :  -0.1046 B(  0-C , 14-H ) :   0.6827 
B(  0-C , 15-H ) :   0.6103 B(  1-C ,  2-H ) :   0.6052 B(  1-C ,  3-C ) :   0.2836 
B(  1-C ,  4-H ) :  -0.1122 B(  1-C ,  5-C ) :   0.0525 B(  1-C ,  9-O ) :  -0.0642 
B(  1-C , 12-O ) :  -0.1314 B(  1-C , 13-O ) :   0.6020 B(  1-C , 19-H ) :  -0.1080 
B(  2-H ,  3-C ) :  -0.0984 B(  2-H , 13-O ) :  -0.0670 B(  3-C ,  4-H ) :   0.5776 
B(  3-C ,  5-C ) :   0.1576 B(  3-C ,  6-H ) :  -0.0726 B(  3-C , 11-O ) :  -0.1310 
B(  3-C , 12-O ) :   0.6665 B(  3-C , 13-O ) :  -0.0656 B(  3-C , 15-H ) :  -0.0552 
B(  3-C , 18-H ) :  -0.1039 B(  4-H ,  5-C ) :  -0.0569 B(  4-H , 12-O ) :  -0.0791 
B(  5-C ,  6-H ) :   0.6206 B(  5-C ,  7-C ) :   0.3139 B(  5-C ,  8-H ) :  -0.0857 
B(  5-C ,  9-O ) :  -0.0770 B(  5-C , 10-O ) :  -0.1154 B(  5-C , 11-O ) :   0.6162 
B(  5-C , 12-O ) :  -0.0699 B(  5-C , 17-H ) :  -0.0999 B(  6-H , 11-O ) :  -0.0763 
B(  7-C ,  8-H ) :   0.6844 B(  7-C ,  9-O ) :   0.6586 B(  7-C , 10-O ) :   0.6162 
B(  7-C , 16-H ) :  -0.1051 B(  8-H ,  9-O ) :  -0.0512 B(  8-H , 10-O ) :  -0.0725 
B(  9-O , 10-O ) :  -0.1096 B(  9-O , 15-H ) :  -0.0755 B( 10-O , 16-H ) :   0.5506 
B( 10-O , 17-H ) :   0.0776 B( 11-O , 17-H ) :   0.5329 B( 11-O , 18-H ) :   0.0508 
B( 12-O , 18-H ) :   0.5368 B( 13-O , 19-H ) :   0.5399 B( 14-H , 15-H ) :  -0.0728 



                     *******************************
                     * LOEWDIN POPULATION ANALYSIS *
                     *******************************

----------------------
LOEWDIN ATOMIC CHARGES
----------------------
   0 C :   -0.116646
   1 C :   -0.077221
   2 H :    0.106664
   3 C :   -0.088753
   4 H :    0.090745
   5 C :   -0.102424
   6 H :    0.119541
   7 C :   -0.003840
   8 H :    0.115464
   9 O :   -0.135847
  10 O :   -0.309234
  11 O :   -0.320247
  12 O :   -0.327771
  13 O :   -0.320255
  14 H :    0.129024
  15 H :    0.095370
  16 H :    0.284834
  17 H :    0.279667
  18 H :    0.289270
  19 H :    0.291659

-------------------------------
LOEWDIN REDUCED ORBITAL CHARGES
-------------------------------
  0 C s       :     2.923731  s :     2.923731
      pz      :     1.073702  p :     3.054128
      px      :     0.883864
      py      :     1.096563
      dz2     :     0.036100  d :     0.138787
      dxz     :     0.028273
      dyz     :     0.011607
      dx2y2   :     0.028136
      dxy     :     0.034671

  1 C s       :     2.892088  s :     2.892088
      pz      :     1.046762  p :     3.024213
      px      :     0.910946
      py      :     1.066505
      dz2     :     0.045067  d :     0.160920
      dxz     :     0.034730
      dyz     :     0.012218
      dx2y2   :     0.029156
      dxy     :     0.039749

  2 H s       :     0.893336  s :     0.893336

  3 C s       :     2.898359  s :     2.898359
      pz      :     1.078463  p :     3.031006
      px      :     1.029962
      py      :     0.922581
      dz2     :     0.037675  d :     0.159388
      dxz     :     0.021389
      dyz     :     0.026529
      dx2y2   :     0.032276
      dxy     :     0.041518

  4 H s       :     0.909255  s :     0.909255

  5 C s       :     2.900431  s :     2.900431
      pz      :     1.078571  p :     3.043451
      px      :     0.994160
      py      :     0.970720
      dz2     :     0.037064  d :     0.158542
      dxz     :     0.022992
      dyz     :     0.019022
      dx2y2   :     0.039902
      dxy     :     0.039562

  6 H s       :     0.880459  s :     0.880459

  7 C s       :     2.881877  s :     2.881877
      pz      :     0.912223  p :     2.896417
      px      :     1.018262
      py      :     0.965932
      dz2     :     0.052679  d :     0.225546
      dxz     :     0.054228
      dyz     :     0.037773
      dx2y2   :     0.036635
      dxy     :     0.044231

  8 H s       :     0.884536  s :     0.884536

  9 O s       :     3.463810  s :     3.463810
      pz      :     1.712451  p :     4.640937
      px      :     1.336356
      py      :     1.592130
      dz2     :     0.003646  d :     0.031099
      dxz     :     0.007290
      dyz     :     0.003741
      dx2y2   :     0.008233
      dxy     :     0.008190

 10 O s       :     3.533049  s :     3.533049
      pz      :     1.322646  p :     4.749132
      px      :     1.601494
      py      :     1.824993
      dz2     :     0.005162  d :     0.027053
      dxz     :     0.013146
      dyz     :     0.002456
      dx2y2   :     0.003785
      dxy     :     0.002503

 11 O s       :     3.530890  s :     3.530890
      pz      :     1.564281  p :     4.762426
      px      :     1.588139
      py      :     1.610006
      dz2     :     0.004612  d :     0.026931
      dxz     :     0.005126
      dyz     :     0.006223
      dx2y2   :     0.003700
      dxy     :     0.007270

 12 O s       :     3.530759  s :     3.530759
      pz      :     1.883465  p :     4.770339
      px      :     1.600686
      py      :     1.286187
      dz2     :     0.004277  d :     0.026674
      dxz     :     0.001884
      dyz     :     0.002230
      dx2y2   :     0.003271
      dxy     :     0.015012

 13 O s       :     3.533058  s :     3.533058
      pz      :     1.782513  p :     4.759841
      px      :     1.459373
      py      :     1.517955
      dz2     :     0.004645  d :     0.027356
      dxz     :     0.005412
      dyz     :     0.001766
      dx2y2   :     0.008562
      dxy     :     0.006970

 14 H s       :     0.870976  s :     0.870976

 15 H s       :     0.904630  s :     0.904630

 16 H s       :     0.715166  s :     0.715166

 17 H s       :     0.720333  s :     0.720333

 18 H s       :     0.710730  s :     0.710730

 19 H s       :     0.708341  s :     0.708341


---------------------------------
LOEWDIN BOND ORDERS (THRESH 0.050000)
---------------------------------
B(  0-C ,  1-C ) :   1.0525 B(  0-C ,  3-C ) :   0.0581 B(  0-C ,  7-C ) :   0.0663 
B(  0-C ,  9-O ) :   1.1605 B(  0-C , 13-O ) :   0.0670 B(  0-C , 14-H ) :   0.9092 
B(  0-C , 15-H ) :   0.8944 B(  1-C ,  2-H ) :   0.8674 B(  1-C ,  3-C ) :   1.0260 
B(  1-C ,  5-C ) :   0.0596 B(  1-C ,  9-O ) :   0.0646 B(  1-C , 12-O ) :   0.0646 
B(  1-C , 13-O ) :   1.2305 B(  3-C ,  4-H ) :   0.8619 B(  3-C ,  5-C ) :   1.0191 
B(  3-C ,  7-C ) :   0.0574 B(  3-C , 11-O ) :   0.0820 B(  3-C , 12-O ) :   1.2179 
B(  3-C , 13-O ) :   0.0792 B(  5-C ,  6-H ) :   0.8694 B(  5-C ,  7-C ) :   1.0102 
B(  5-C ,  9-O ) :   0.0686 B(  5-C , 10-O ) :   0.0781 B(  5-C , 11-O ) :   1.2252 
B(  5-C , 12-O ) :   0.0735 B(  7-C ,  8-H ) :   0.8835 B(  7-C ,  9-O ) :   1.2266 
B(  7-C , 10-O ) :   1.2312 B(  7-C , 11-O ) :   0.0743 B(  9-O , 10-O ) :   0.0811 
B( 10-O , 16-H ) :   0.8725 B( 10-O , 17-H ) :   0.0558 B( 11-O , 17-H ) :   0.8612 
B( 12-O , 18-H ) :   0.8680 B( 13-O , 19-H ) :   0.8741 

------------------------------------------
LOEWDIN REDUCED ORBITAL POPULATIONS PER MO
-------------------------------------------
THRESHOLD FOR PRINTING IS 0.1%%
                      0         1         2         3         4         5   
                 -18.78137 -18.78123 -18.76232 -18.76037 -18.75611  -9.99714
                   2.00000   2.00000   2.00000   2.00000   2.00000   2.00000
                  --------  --------  --------  --------  --------  --------
 7 C  s               0.0       0.0       0.0       0.0       0.0      99.6
 9 O  s              97.1       2.8       0.0       0.0       0.0       0.0
10 O  s               2.8      97.1       0.0       0.0       0.0       0.0
10 O  pz              0.0       0.0       0.0       0.0       0.0       0.1
11 O  s               0.0       0.0      99.9       0.0       0.0       0.0
12 O  s               0.0       0.0       0.0      99.9       0.0       0.0
13 O  s               0.0       0.0       0.0       0.0      99.9       0.0

                      6         7         8         9        10        11   
                  -9.94871  -9.94734  -9.94644  -9.94524  -0.99803  -0.95150
                   2.00000   2.00000   2.00000   2.00000   2.00000   2.00000
                  --------  --------  --------  --------  --------  --------
 0 C  s              99.6       0.0       0.0       0.0       4.0       0.1
 0 C  pz              0.0       0.0       0.0       0.0       0.5       0.1
 0 C  px              0.0       0.0       0.0       0.0       3.3       0.9
 0 C  py              0.0       0.1       0.0       0.0       0.1       0.2
 0 C  dxz             0.0       0.0       0.0       0.0       0.1       0.0
 0 C  dx2y2           0.0       0.0       0.0       0.0       0.2       0.0
 1 C  s               0.0      99.5       0.0       0.0       0.7       3.2
 1 C  pz              0.0       0.0       0.0       0.0       0.0       0.6
 1 C  px              0.0       0.0       0.0       0.0       0.3       0.7
 1 C  py              0.1       0.0       0.0       0.1       0.1       0.9
 2 H  s               0.0       0.1       0.0       0.0       0.1       0.4
 3 C  s               0.0       0.0       0.0      99.5       0.7       8.2
 3 C  pz              0.0       0.0       0.0       0.0       0.1       0.4
 3 C  px              0.0       0.0       0.1       0.0       0.1       0.5
 3 C  py              0.0       0.1       0.0       0.0       0.0       2.7
 3 C  dz2             0.0       0.0       0.0       0.0       0.0       0.1
 3 C  dxy             0.0       0.0       0.0       0.0       0.0       0.1
 4 H  s               0.0       0.0       0.0       0.1       0.2       1.1
 5 C  s               0.0       0.0      99.5       0.0       2.6       4.2
 5 C  pz              0.0       0.0       0.0       0.0       0.4       0.7
 5 C  px              0.0       0.0       0.0       0.1       0.3       0.1
 5 C  py              0.0       0.0       0.0       0.0       0.8       2.4
 5 C  dxy             0.0       0.0       0.0       0.0       0.0       0.1
 6 H  s               0.0       0.0       0.1       0.0       0.3       0.6
 7 C  s               0.0       0.0       0.0       0.0      15.7       0.3
 7 C  pz              0.0       0.0       0.0       0.0       1.7       0.0
 7 C  px              0.0       0.0       0.0       0.0       0.9       0.0
 7 C  py              0.0       0.0       0.1       0.0       1.6       1.5
 7 C  dxz             0.0       0.0       0.0       0.0       0.2       0.0
 7 C  dxy             0.0       0.0       0.0       0.0       0.2       0.1
 8 H  s               0.0       0.0       0.0       0.0       1.8       0.0
 9 O  s               0.0       0.0       0.0       0.0      26.1       2.8
 9 O  pz              0.0       0.0       0.0       0.0       1.0       0.1
 9 O  py              0.0       0.0       0.0       0.0       1.4       0.1
10 O  s               0.0       0.0       0.0       0.0      22.3       0.7
10 O  pz              0.0       0.0       0.0       0.0       0.7       0.0
10 O  px              0.0       0.0       0.0       0.0       1.4       0.0
11 O  s               0.0       0.0       0.0       0.0       2.2      14.6
11 O  py              0.0       0.0       0.1       0.0       0.2       0.8
12 O  s               0.0       0.0       0.0       0.0       0.3      26.7
12 O  px              0.0       0.0       0.0       0.0       0.0       1.5
12 O  py              0.0       0.0       0.0       0.1       0.0       0.2
13 O  s               0.0       0.0       0.0       0.0       0.3       9.7
13 O  pz              0.0       0.0       0.0       0.0       0.0       0.2
13 O  px              0.0       0.1       0.0       0.0       0.0       0.2
13 O  py              0.0       0.0       0.0       0.0       0.0       0.4
14 H  s               0.1       0.0       0.0       0.0       0.4       0.0
15 H  s               0.1       0.0       0.0       0.0       0.6       0.0
16 H  s               0.0       0.0       0.0       0.0       4.8       0.2
17 H  s               0.0       0.0       0.0       0.0       0.9       2.7
18 H  s               0.0       0.0       0.0       0.0       0.1       5.8
19 H  s               0.0       0.0       0.0       0.0       0.1       2.3

                     12        13        14        15        16        17   
                  -0.94219  -0.92523  -0.92054  -0.70767  -0.69039  -0.59614
                   2.00000   2.00000   2.00000   2.00000   2.00000   2.00000
                  --------  --------  --------  --------  --------  --------
 0 C  s               3.2       1.3       0.6       7.5      12.6       5.3
 0 C  pz              0.2       0.5       0.1       0.0       0.1       0.2
 0 C  px              0.4       2.8       0.0       1.7       0.1       4.6
 0 C  py              0.3       0.1       0.1       2.3       0.3       0.1
 0 C  dx2y2           0.1       0.1       0.0       0.1       0.0       0.1
 1 C  s               5.2       1.6       1.1      13.8       0.7       1.9
 1 C  pz              0.9       0.7       0.3       0.0       0.0       0.1
 1 C  px              1.4       4.1       1.1       6.4       0.0       0.2
 1 C  py              0.1       0.0       0.6       0.0       3.5       7.6
 1 C  dxz             0.2       0.2       0.1       0.1       0.0       0.0
 1 C  dx2y2           0.1       0.2       0.1       0.1       0.0       0.0
 2 H  s               0.6       0.1       0.1       2.7       0.1       0.5
 3 C  s               0.4       0.4       2.0      12.5       2.4       7.3
 3 C  pz              0.0       0.1       0.0       0.4       0.3       0.3
 3 C  px              1.9       0.1       1.1       0.3       2.0       0.2
 3 C  py              0.2       1.1       4.1       5.6       0.1       0.0
 3 C  dx2y2           0.0       0.0       0.1       0.0       0.1       0.0
 3 C  dxy             0.0       0.1       0.2       0.1       0.0       0.0
 4 H  s               0.0       0.0       0.2       2.5       0.3       2.6
 5 C  s               2.7       0.6       1.7       4.8      10.9       0.1
 5 C  pz              0.6       0.0       0.1       0.1       0.1       0.4
 5 C  px              2.3       0.0       2.4       3.4       0.2       4.7
 5 C  py              1.7       0.3       1.1       0.4       3.7       2.1
 5 C  dxy             0.2       0.0       0.2       0.0       0.1       0.1
 6 H  s               0.2       0.1       0.1       1.0       2.5       0.0
 7 C  s               0.1       0.0       0.0       0.2      13.4       8.0
 7 C  pz              2.0       5.4       1.5       0.1       2.2       0.2
 7 C  px              1.4       2.8       0.5       0.4       0.2       3.8
 7 C  py              2.3       0.6       0.1       3.1       1.3       1.1
 7 C  dz2             0.2       0.6       0.2       0.0       0.1       0.0
 7 C  dxy             0.1       0.2       0.0       0.2       0.0       0.0
 8 H  s               0.0       0.0       0.0       0.1       3.5       4.5
 9 O  s               9.7      14.3       1.5       3.5       0.2       2.7
 9 O  pz              0.2       0.2       0.0       0.1       0.3       0.1
 9 O  px              0.3       0.3       0.1       2.5      10.0       0.1
 9 O  py              0.1       0.2       0.0       0.1       3.5       0.4
10 O  s               7.5      22.6       7.4       0.0       2.1       0.4
10 O  pz              0.0       0.0       0.0       0.1       4.3      12.2
10 O  px              0.3       0.9       0.3       0.0       0.1       1.2
10 O  py              0.0       0.0       0.0       0.0       0.2       0.8
11 O  s              19.3       2.5      19.7       1.2       3.0       0.1
11 O  pz              0.1       0.0       0.1       0.3       1.1       0.0
11 O  px              0.0       0.0       0.0       0.6       1.1       0.4
11 O  py              1.1       0.1       0.9       0.1       0.6       0.1
12 O  s               1.1       4.1      26.4       3.0       0.7       1.7
12 O  pz              0.0       0.0       0.0       0.0       0.0       0.2
12 O  px              0.0       0.3       1.3       0.1       0.0       0.1
12 O  py              0.0       0.0       0.0       2.8       0.5       6.5
12 O  dxy             0.0       0.0       0.0       0.1       0.0       0.1
13 O  s              19.1      19.3       9.4       4.1       0.2       0.1
13 O  pz              0.3       0.2       0.1       0.3       0.0       0.4
13 O  px              0.3       0.2       0.1       2.5       0.3       1.9
13 O  py              0.6       0.7       0.3       0.8       0.3       2.2
14 H  s               0.5       0.2       0.1       1.4       3.3       2.2
15 H  s               0.4       0.1       0.1       1.7       2.7       1.5
16 H  s               1.4       4.5       1.6       0.0       2.0       4.1
17 H  s               4.3       0.3       3.6       0.6       1.5       0.0
18 H  s               0.1       1.0       5.0       1.5       0.3       2.3
19 H  s               3.9       3.7       1.6       2.1       0.2       1.3

                     18        19        20        21        22        23   
                  -0.58872  -0.53974  -0.50815  -0.49607  -0.47422  -0.45383
                   2.00000   2.00000   2.00000   2.00000   2.00000   2.00000
                  --------  --------  --------  --------  --------  --------
 0 C  s               3.2       2.3       0.2       0.4       2.7       0.8
 0 C  pz              0.0       0.4       8.5       4.2       3.0       5.3
 0 C  px              0.5       1.3       0.5       1.4       1.5       0.1
 0 C  py              2.8       3.3       1.2       1.9       1.7       1.5
 0 C  dz2             0.0       0.0       0.0       0.0       0.1       0.0
 0 C  dxz             0.0       0.0       0.1       0.0       0.1       0.2
 1 C  s               6.0       4.6       1.0       0.3       0.8       0.3
 1 C  pz              0.0       2.1       8.1       5.6       0.1       1.8
 1 C  px              0.0       1.0       0.5       2.0       0.5       6.2
 1 C  py              2.5       0.5       2.4       0.7       0.0       0.4
 1 C  dxz             0.0       0.0       0.0       0.0       0.0       0.2
 1 C  dx2y2           0.0       0.0       0.0       0.0       0.2       0.1
 2 H  s               1.7       3.2       4.5       2.1       0.3       1.0
 3 C  s               1.7       3.4       0.2       0.7       0.2       0.1
 3 C  pz              0.4       3.5       6.0       2.6       0.7       4.3
 3 C  px              7.8       0.0       4.8       0.2       5.3       0.0
 3 C  py              1.1       0.3       1.1       2.9       0.7       1.5
 3 C  dxz             0.2       0.0       0.0       0.0       0.0       0.0
 3 C  dxy             0.0       0.1       0.0       0.0       0.3       0.1
 4 H  s               0.6       3.0       3.3       1.2       0.8       1.8
 5 C  s              11.5       0.7       0.1       0.0       0.1       0.4
 5 C  pz              1.2       4.0       3.5       0.0       6.0       0.4
 5 C  px              0.0       0.0       0.5       0.2       1.7       2.0
 5 C  py              0.3       0.9       2.5      11.0       2.8       3.8
 5 C  dxy             0.0       0.1       0.0       0.1       0.1       0.2
 6 H  s               4.7       2.0       1.4       0.0       1.5       0.0
 7 C  s               0.5       0.6       0.2       0.0       1.0       0.1
 7 C  pz              0.0       3.4       0.3       0.1       9.7       2.4
 7 C  px              0.7       2.9       6.5       2.7       0.1       0.0
 7 C  py              5.5       1.3       0.1       7.1       0.4       8.1
 7 C  dxz             0.0       0.0       0.1       0.0       0.1       0.0
 7 C  dxy             0.1       0.0       0.0       0.1       0.0       0.0
 8 H  s               0.4       0.3       0.5       0.7       2.5       0.3
 9 O  s               0.2       0.3       1.1       0.2       1.1       1.6
 9 O  pz              0.1       1.0       1.0       0.1       0.2       5.3
 9 O  px              7.0       3.8       3.2       6.4       1.3       3.2
 9 O  py              1.2       2.1       4.4       0.8       1.2       1.8
10 O  s               0.0       0.1       1.4       0.0       0.1       0.2
10 O  pz              1.0      13.6       2.4       0.4      10.1       4.6
10 O  px              0.2       1.3       3.6       0.2       0.7       0.1
10 O  py              0.0       1.8       0.1       1.8       0.5       2.7
10 O  dxz             0.0       0.1       0.0       0.0       0.1       0.0
11 O  s               1.8       0.2       0.0       0.3       0.0       1.6
11 O  pz              6.1       2.3       3.5       7.8       0.1       1.3
11 O  px              6.4       1.0       0.7       7.9       4.2       1.0
11 O  py              1.2       0.1       0.1       0.0       0.0       2.6
12 O  s               0.0       0.1       0.0       0.3       0.9       0.0
12 O  pz              0.2       0.9       0.2       0.8       0.0       1.4
12 O  px              0.6       0.0       0.8       0.2       3.0       0.0
12 O  py              3.9       4.9       8.2       4.6      10.0       0.9
13 O  s               1.7       0.1       0.4       0.0       0.1       0.3
13 O  pz              0.6       1.9       0.9       0.0       0.8       1.0
13 O  px              3.5       4.2       0.2       4.9       2.2       9.4
13 O  py              0.2       2.4       1.1       3.3       1.4       6.9
14 H  s               1.7       1.2       0.3       0.6       2.3       0.2
15 H  s               1.1       1.4       3.2       2.6       4.9       3.2
16 H  s               0.4       4.4       1.5       0.0       3.6       0.4
17 H  s               4.3       0.8       0.8       4.5       0.7       0.7
18 H  s               1.2       1.6       2.4       1.0       3.5       0.4
19 H  s               1.3       2.3       0.2       2.3       1.3       4.8

                     24        25        26        27        28        29   
                  -0.44181  -0.42782  -0.41538  -0.39157  -0.36402  -0.35722
                   2.00000   2.00000   2.00000   2.00000   2.00000   2.00000
                  --------  --------  --------  --------  --------  --------
 0 C  s               0.4       0.0       0.2       0.2       0.0       0.1
 0 C  pz              3.9       0.6       2.7       4.3       4.4       2.6
 0 C  px              7.2       0.2       3.5       1.2       0.6       8.7
 0 C  py              2.4       2.3       0.0      16.3       2.4       3.5
 0 C  dxz             0.1       0.0       0.1       0.0       0.0       0.0
 0 C  dyz             0.0       0.0       0.0       0.0       0.0       0.2
 0 C  dx2y2           0.1       0.1       0.0       0.0       0.0       0.2
 1 C  s               0.1       0.8       0.1       0.3       0.1       0.0
 1 C  pz              3.0       1.1       9.6       1.6       0.1       6.4
 1 C  px              0.3       4.9       0.7       5.4       0.7       1.8
 1 C  py              1.8       0.8       2.2      12.2       0.0       0.7
 1 C  dxz             0.0       0.1       0.1       0.0       0.0       0.0
 1 C  dyz             0.0       0.1       0.0       0.0       0.1       0.0
 1 C  dx2y2           0.0       0.0       0.1       0.1       0.0       0.1
 1 C  dxy             0.0       0.1       0.1       0.1       0.0       0.1
 2 H  s               0.7       0.0       4.2       3.2       0.1       4.3
 3 C  s               1.6       0.1       0.2       0.1       0.1       0.0
 3 C  pz              0.0      10.8       2.6       0.0       8.5       2.2
 3 C  px              7.4       2.5       0.0       0.1       0.4       0.6
 3 C  py              0.5       6.5       2.7       2.2       0.0       5.6
 3 C  dz2             0.1       0.0       0.0       0.0       0.3       0.0
 3 C  dx2y2           0.0       0.0       0.0       0.2       0.0       0.1
 3 C  dxy             0.0       0.2       0.2       0.2       0.0       0.0
 4 H  s               1.1       5.0       0.4       0.2       5.7       1.3
 5 C  s               0.1       0.6       0.4       0.2       0.2       0.2
 5 C  pz              0.2       0.0      12.3       1.1      12.9       0.7
 5 C  px              7.9       7.4       4.3       0.0       0.1       0.2
 5 C  py              0.3       0.4       0.2       0.3       0.6       0.0
 5 C  dz2             0.0       0.0       0.2       0.0       0.2       0.0
 5 C  dxz             0.1       0.0       0.0       0.0       0.0       0.0
 5 C  dyz             0.1       0.0       0.0       0.0       0.2       0.0
 5 C  dx2y2           0.1       0.0       0.1       0.0       0.1       0.0
 5 C  dxy             0.0       0.1       0.0       0.0       0.0       0.1
 6 H  s               0.0       0.5       8.0       0.2       7.5       0.1
 7 C  s               0.1       0.1       0.7       0.1       0.2       0.3
 7 C  pz              4.3       4.1       0.5       0.0       2.3       1.8
 7 C  px              4.1       4.4       3.4       0.3       1.8       3.1
 7 C  py              2.9       0.2       0.1       0.1       0.1       0.2
 7 C  dz2             0.0       0.0       0.0       0.0       0.2       0.0
 7 C  dxz             0.0       0.1       0.0       0.2       0.0       0.3
 7 C  dyz             0.1       0.0       0.1       0.0       0.2       0.2
 7 C  dx2y2           0.0       0.0       0.1       0.1       0.0       0.2
 8 H  s               3.5       4.0       0.8       0.4       1.4       5.2
 9 O  s               0.2       0.1       0.3       0.2       0.4       1.2
 9 O  pz              7.2       2.5       0.0       1.1       0.3       7.3
 9 O  px              3.0       0.6       0.8       2.4       0.1       4.7
 9 O  py              0.5       0.1       3.0      10.6       0.1       0.5
10 O  s               0.8       0.2       1.5       1.2       0.8       0.2
10 O  pz              1.1       2.3       0.0       0.2       4.4       0.6
10 O  px              3.3       1.5       7.5       2.5       8.1       0.0
10 O  py              0.3       0.0       0.0       0.1       1.8       1.0
11 O  s               0.0       0.1       0.1       0.5       1.8       0.0
11 O  pz              4.1       6.4       0.7       0.7       1.9       0.0
11 O  px              0.1       1.2       5.3       0.0       5.0       0.3
11 O  py              1.8       0.4       3.3       1.3      11.4       0.7
12 O  s               1.9       0.1       0.2       0.1       0.1       1.7
12 O  pz              0.0       1.1       1.5       0.7       4.2       3.6
12 O  px              6.0       1.2       0.5       0.0       0.0       9.9
12 O  py              1.0       8.2       1.9       5.0       0.9       0.6
12 O  dxy             0.0       0.1       0.0       0.1       0.0       0.0
13 O  s               0.2       0.9       0.2       2.1       0.2       0.0
13 O  pz              0.1       1.3       1.2       5.8       0.4       3.9
13 O  px              4.6       0.5       3.9       2.0       0.1       1.1
13 O  py              0.0       6.2       0.4       4.5       0.3       0.4
14 H  s               5.9       0.4       2.2       1.2       3.6       7.8
15 H  s               0.4       0.3       0.5       3.8       2.0       1.4
16 H  s               0.0       0.3       0.4       0.8       0.1       0.7
17 H  s               1.0       1.9       1.8       0.1       0.0       0.0
18 H  s               0.8       1.7       0.8       1.2       0.3       0.1
19 H  s               0.6       1.6       0.9       0.0       0.0       0.1

                     30        31        32        33        34        35   
                  -0.33809  -0.32270  -0.31069  -0.30384  -0.28928  -0.25557
                   2.00000   2.00000   2.00000   2.00000   2.00000   2.00000
                  --------  --------  --------  --------  --------  --------
 0 C  s               0.0       0.4       0.0       0.4       0.2       0.0
 0 C  pz              3.8       0.2       0.0       4.0       1.1       0.6
 0 C  px              0.6       0.0       1.1       0.0       0.4       0.5
 0 C  py              0.0       1.0       0.8       0.5       6.9       1.2
 0 C  dz2             0.0       0.0       0.0       0.2       0.1       0.0
 0 C  dxy             0.0       0.3       0.1       0.0       0.3       0.1
 1 C  s               0.0       0.1       0.7       0.1       0.1       0.0
 1 C  pz              1.4       2.2       0.7       1.5       0.3       0.3
 1 C  px              1.0       1.7       1.3       0.2       0.3       0.0
 1 C  py              0.3       1.3       0.0       0.9       5.4       1.7
 1 C  dz2             0.0       0.1       0.0       0.1       0.0       0.3
 1 C  dx2y2           0.0       0.0       0.1       0.0       0.0       0.1
 1 C  dxy             0.1       0.1       0.1       0.2       0.5       0.0
 2 H  s               1.5       1.8       0.1       1.8       0.3       1.2
 3 C  s               0.2       0.1       0.1       0.1       1.0       0.4
 3 C  pz              4.2       0.8       0.3       0.1       0.1       0.2
 3 C  px              0.0       0.1       2.9       0.4       1.8       1.9
 3 C  py              0.5       0.6       1.2       0.3       1.5       0.1
 3 C  dz2             0.1       0.1       0.0       0.0       0.0       0.0
 3 C  dx2y2           0.0       0.0       0.5       0.0       0.1       0.0
 3 C  dxy             0.0       0.0       0.1       0.0       0.0       0.2
 4 H  s               2.1       1.7       0.6       0.1       0.1       0.6
 5 C  s               0.3       0.3       0.1       0.8       0.1       0.4
 5 C  pz              2.4       1.0       1.5       0.2       0.2       1.9
 5 C  px              0.1       0.1       2.7       0.3       2.1       0.1
 5 C  py              0.1       0.5       0.5       1.1       0.6       3.4
 5 C  dz2             0.3       0.2       0.0       0.2       0.2       0.3
 5 C  dxz             0.0       0.0       0.1       0.0       0.0       0.2
 5 C  dx2y2           0.0       0.3       0.1       0.1       0.0       0.1
 5 C  dxy             0.0       0.0       0.0       0.0       0.1       0.0
 6 H  s               3.4       2.2       0.5       1.1       1.5       2.8
 7 C  s               1.6       0.7       0.1       0.0       0.1       0.1
 7 C  pz              0.7       0.7       0.9       0.1       0.5       0.2
 7 C  px              4.1       1.6       0.0       0.5       1.9       0.5
 7 C  py              0.3       0.7       0.0       3.2       0.2       1.3
 7 C  dz2             0.1       0.0       0.1       0.1       0.4       0.0
 7 C  dxz             0.9       0.0       0.0       0.0       0.0       0.1
 7 C  dyz             0.1       0.0       0.0       0.4       0.1       0.1
 7 C  dx2y2           0.1       0.2       0.2       0.0       0.0       0.1
 7 C  dxy             0.2       0.0       0.1       0.0       0.0       0.3
 8 H  s               8.1       0.0       1.0       0.3       0.4       1.2
 9 O  s               0.5       0.8       0.8       1.4       1.1       0.7
 9 O  pz              0.0       0.1       1.7       5.8      11.2       5.7
 9 O  px              3.3       2.2       1.6       0.8       0.0       0.2
 9 O  py              1.4      12.5       1.5       2.0       3.3       3.8
10 O  s               4.9       0.8       0.3       0.0       0.6       0.1
10 O  pz              0.3       0.7       0.6       0.1       1.0       0.5
10 O  px             23.0       2.6       5.6       0.6       8.5       2.4
10 O  py              6.8       1.8       1.6      22.1       4.4      20.1
11 O  s               1.0       1.5       1.5       2.6       0.0       0.7
11 O  pz              0.0       0.3       0.1       7.6       4.5      11.2
11 O  px              0.3       1.9       2.3       0.2       2.9      14.2
11 O  py              3.2      11.1      12.2      15.3       3.5       0.0
12 O  s               0.0       1.4       4.3       0.2       0.7       0.1
12 O  pz              3.4       0.0       0.7       0.2       0.1       0.1
12 O  px              1.0       7.5      35.9       1.3       5.4       0.2
12 O  py              0.3       0.4       0.5       0.1       0.2       0.2
13 O  s               0.8       2.6       0.3       1.4       2.3       0.4
13 O  pz              2.2       3.3       1.9       1.2       3.6      12.7
13 O  px              0.2       7.6       0.4       3.6       1.1       0.8
13 O  py              1.2      15.2       3.9       7.7       8.2       0.4
14 H  s               0.1       1.5       0.0       0.5       4.4       0.8
15 H  s               2.2       0.1       0.0       3.0       1.0       0.3
16 H  s               3.4       0.3       0.1       0.0       0.3       0.0
17 H  s               0.9       0.9       0.7       1.7       0.1       0.7
18 H  s               0.0       0.6       1.9       0.2       0.8       0.2
19 H  s               0.4       0.7       0.5       0.5       1.5       0.4

                     36        37        38        39        40        41   
                  -0.25288  -0.24263  -0.22252  -0.21174   0.00290   0.02135
                   2.00000   2.00000   2.00000   2.00000   0.00000   0.00000
                  --------  --------  --------  --------  --------  --------
 0 C  s               0.2       0.0       0.0       0.0       3.4       0.1
 0 C  pz              1.0       1.2       0.0       0.1       4.7       0.5
 0 C  px              0.1       0.5       0.0       0.4       0.3       5.0
 0 C  py              0.4       0.7       0.2       0.4       0.7       0.1
 0 C  dz2             0.2       0.7       0.0       0.1       0.1       0.0
 0 C  dxz             0.0       0.2       0.0       0.0       0.1       0.4
 0 C  dx2y2           0.0       0.0       0.0       0.0       0.0       0.7
 0 C  dxy             0.0       0.3       0.1       0.1       0.0       0.0
 1 C  s               0.2       0.8       0.1       0.2       0.2       0.0
 1 C  pz              0.5       0.2       2.2       0.7       0.1       0.5
 1 C  px              0.1       0.8       1.1       0.6       0.1       2.8
 1 C  py              1.2       2.5       2.5       0.2       0.0       0.2
 1 C  dz2             0.3       0.0       1.0       0.1       0.0       0.0
 1 C  dxz             0.0       0.0       0.1       0.2       0.1       0.2
 1 C  dx2y2           0.0       0.0       0.1       0.1       0.0       1.2
 1 C  dxy             0.0       0.0       0.3       0.0       0.0       0.0
 2 H  s               1.4       0.7       5.2       0.6       0.4       0.1
 3 C  s               0.5       0.0       0.6       0.2       1.6       0.1
 3 C  pz              0.3       1.0       1.7       2.0       2.6       0.9
 3 C  px              1.0       0.2       2.1       5.5       0.2       1.1
 3 C  py              0.2       0.0       2.7       0.2       0.4       1.8
 3 C  dz2             0.3       0.3       0.2       0.0       0.0       0.0
 3 C  dxz             0.1       0.1       0.0       0.2       0.0       0.0
 3 C  dyz             0.4       0.1       0.2       0.1       0.0       0.0
 3 C  dx2y2           0.0       0.0       0.0       0.1       0.0       0.7
 3 C  dxy             0.0       0.1       0.0       0.0       0.1       0.4
 4 H  s               2.5       2.7       2.7       1.0       6.9       0.8
 5 C  s               0.6       0.7       0.1       0.0       0.0       0.3
 5 C  pz              0.2       0.4       0.3       1.2       0.0       0.2
 5 C  px              0.1       0.3       0.2       5.8       0.0       0.2
 5 C  py              2.3       1.4       0.9       2.2       0.0       2.3
 5 C  dyz             0.1       0.0       0.0       0.0       0.1       0.2
 5 C  dx2y2           0.2       0.0       0.0       0.6       0.0       0.0
 5 C  dxy             0.0       0.0       0.1       0.1       0.0       0.8
 6 H  s               0.1       0.5       0.1       0.7       0.1       0.4
 7 C  s               0.0       0.1       0.0       0.2       0.0       0.3
 7 C  pz              0.1       0.3       0.0       0.0       1.7       0.3
 7 C  px              0.9       0.1       0.2       1.2       0.3       0.5
 7 C  py              1.5       0.3       0.6       2.4       0.0       1.9
 7 C  dz2             0.0       0.4       0.1       0.0       0.5       0.1
 7 C  dxz             0.2       0.4       0.0       0.0       0.0       0.0
 7 C  dyz             0.1       0.0       0.0       0.2       0.0       0.0
 7 C  dx2y2           0.0       0.3       0.1       0.3       0.0       0.0
 7 C  dxy             0.3       0.0       0.0       0.0       0.0       0.3
 8 H  s               1.2       0.1       0.2       1.4       0.1       0.2
 9 O  s               0.1       0.0       0.0       0.1       0.1       2.3
 9 O  pz              6.2      25.1       0.5       1.2       0.1       0.3
 9 O  px              0.2       7.1       0.2       1.2       0.1       0.7
[...]
12 O  px              0.0       0.0       0.1       0.0       0.0       0.0
12 O  py              0.0       0.0       0.0       0.0       0.2       0.2
12 O  dz2             9.8       2.2       4.8       0.1       0.3       0.4
12 O  dxz             0.5       0.0       0.0       0.0       0.0       0.0
12 O  dyz             0.8       0.1       2.8       0.4       0.1       0.1
12 O  dx2y2           6.5       5.5       8.3       0.4       0.8       0.2
12 O  dxy             4.9       7.3      15.5       1.1       1.7       1.7
13 O  s               0.2       1.1       0.2       0.0       0.0       0.3
13 O  px              0.1       0.0       0.0       0.0       0.0       0.3
13 O  py              0.1       0.1       0.0       0.0       0.0       0.0
13 O  dz2             0.0       8.8       0.1       0.3       0.2       0.0
13 O  dxz             1.7       5.2       0.6       0.1       0.0       3.1
13 O  dyz             0.3       0.2       0.5       0.0       0.3       0.1
13 O  dx2y2           6.2       1.1       0.3       0.1       0.4       2.3
13 O  dxy            12.2      27.6       5.6       0.2       1.3       0.4
16 H  s               0.1       0.1       0.2       2.1       0.0       0.4
17 H  s               1.0       1.3       0.8       0.0       0.1       0.1
18 H  s               1.1       0.8       1.9       0.0       0.0       0.0
19 H  s               1.2       2.7       0.3       0.0       0.0       0.1

                    156       157       158       159   
                   3.30320   3.31459   3.35607   3.38035
                   0.00000   0.00000   0.00000   0.00000
                  --------  --------  --------  --------
 0 C  s               0.1       0.2       0.2       1.1
 0 C  pz              0.0       0.0       0.0       0.2
 0 C  px              0.0       0.0       0.0       1.9
 0 C  dz2             0.1       0.1       0.1       0.2
 0 C  dxz             0.1       0.0       0.0       1.7
 0 C  dyz             0.0       0.0       0.0       0.2
 0 C  dx2y2           0.1       0.3       0.0       2.8
 0 C  dxy             0.0       0.7       0.0       0.3
 1 C  s               0.2       0.9       0.9       0.2
 1 C  pz              0.1       0.4       0.3       0.1
 1 C  px              0.3       1.8       0.4       0.3
 1 C  dxz             0.7       3.4       1.5       0.7
 1 C  dx2y2           0.0       5.3       0.7       0.3
 1 C  dxy             0.0       0.0       0.3       0.2
 3 C  s               0.5       0.3       0.8       0.0
 3 C  px              0.6       0.1       0.4       0.0
 3 C  py              0.8       0.8       1.3       0.1
 3 C  dz2             0.6       0.2       1.0       0.0
 3 C  dxz             0.4       0.0       0.3       0.0
 3 C  dyz             0.1       0.1       1.3       0.1
 3 C  dx2y2           1.2       1.0       0.4       0.0
 3 C  dxy             2.7       3.3       1.9       0.0
 5 C  s               0.8       0.0       1.1       0.0
 5 C  pz              0.1       0.0       0.2       0.0
 5 C  px              0.8       0.0       0.2       0.0
 5 C  py              1.0       0.1       1.2       0.0
 5 C  dz2             0.4       0.1       0.4       0.0
 5 C  dxz             0.5       0.0       0.3       0.0
 5 C  dyz             0.9       0.2       1.7       0.0
 5 C  dx2y2           1.0       0.0       0.0       0.1
 5 C  dxy             4.8       0.2       2.9       0.0
 7 C  s               0.0       0.2       0.3       1.4
 7 C  pz              0.3       0.5       0.1       0.4
 7 C  px              0.1       0.1       0.0       1.4
 7 C  py              0.0       0.0       0.3       1.3
 7 C  dz2             0.9       1.5       0.2       2.2
 7 C  dxz             0.5       0.7       0.9       0.2
 7 C  dyz             0.1       0.0       0.1       0.4
 7 C  dx2y2           1.2       0.0       0.3       0.1
 7 C  dxy             0.3       0.0       0.6       4.5
 9 O  s               0.2       0.0       0.0       0.1
 9 O  px              0.1       0.1       0.1       4.6
 9 O  py              0.0       0.0       0.2       1.2
 9 O  dz2             0.3       0.0       1.0       0.9
 9 O  dxz             0.3       1.5       0.4      20.1
 9 O  dyz             0.7       0.7       0.0       4.0
 9 O  dx2y2           1.2       0.2       2.2      17.0
 9 O  dxy             1.2       0.3       0.9      19.7
10 O  s               0.2       0.8       0.2       0.0
10 O  pz              0.3       0.7       0.2       0.2
10 O  dz2             3.8       5.0       2.6       0.9
10 O  dxz             1.3       3.6       0.2       1.1
10 O  dyz             0.0       0.2       0.1       0.2
10 O  dxy             0.0       0.1       0.0       0.0
11 O  s               1.9       0.0       2.3       0.0
11 O  pz              0.5       0.0       0.4       0.0
11 O  px              1.1       0.0       0.8       0.0
11 O  py              0.6       0.0       0.6       0.0
11 O  dz2             3.0       0.0       4.1       0.0
11 O  dxz             2.9       0.1       1.1       0.0
11 O  dyz             6.2       0.1       3.7       0.0
11 O  dx2y2           0.3       0.5       0.6       0.3
11 O  dxy            19.1       0.0      13.6       0.0
12 O  s               1.5       0.7       2.6       0.2
12 O  px              0.1       0.1       0.2       0.0
12 O  py              1.4       1.1       1.6       0.0
12 O  dz2             2.8       1.0       5.9       0.3
12 O  dxz             1.0       0.5       0.2       0.0
12 O  dyz             2.1       2.0       1.0       0.0
12 O  dx2y2           4.9       2.0       3.5       0.1
12 O  dxy            11.4      11.3      11.4       0.3
13 O  s               0.5       2.2       1.3       0.5
13 O  pz              0.0       0.5       0.1       0.1
13 O  px              0.3       2.1       0.8       0.3
13 O  py              0.0       0.2       0.1       0.1
13 O  dz2             0.4       0.0       0.4       0.1
13 O  dxz             2.0      20.3       6.0       2.2
13 O  dyz             0.0       0.1       0.0       0.0
13 O  dx2y2           2.5      17.4       5.4       2.5
13 O  dxy             0.4       0.7       0.3       0.0
17 H  s               0.3       0.0       0.3       0.0
18 H  s               0.2       0.4       0.1       0.0
19 H  s               0.1       0.5       0.1       0.1


                      *****************************
                      * MAYER POPULATION ANALYSIS *
                      *****************************

  NA   - Mulliken gross atomic population
  ZA   - Total nuclear charge
  QA   - Mulliken gross atomic charge
  VA   - Mayer's total valence
  BVA  - Mayer's bonded valence
  FA   - Mayer's free valence

  ATOM       NA         ZA         QA         VA         BVA        FA
  0 C      5.9537     6.0000     0.0463     3.9509     3.9509    -0.0000
  1 C      5.9579     6.0000     0.0421     4.0695     4.0695    -0.0000
  2 H      0.9340     1.0000     0.0660     0.9677     0.9677     0.0000
  3 C      5.9826     6.0000     0.0174     4.0399     4.0399    -0.0000
  4 H      0.9693     1.0000     0.0307     0.9981     0.9981     0.0000
  5 C      5.9612     6.0000     0.0388     3.9757     3.9757    -0.0000
  6 H      0.9223     1.0000     0.0777     0.9694     0.9694    -0.0000
  7 C      5.8420     6.0000     0.1580     4.1521     4.1521    -0.0000
  8 H      0.9134     1.0000     0.0866     0.9629     0.9629    -0.0000
  9 O      8.2921     8.0000    -0.2921     2.1814     2.1814     0.0000
 10 O      8.4157     8.0000    -0.4157     2.0443     2.0443     0.0000
 11 O      8.4241     8.0000    -0.4241     2.0110     2.0110    -0.0000
 12 O      8.4252     8.0000    -0.4252     2.0299     2.0299    -0.0000
 13 O      8.4170     8.0000    -0.4170     2.0133     2.0133    -0.0000
 14 H      0.8857     1.0000     0.1143     0.9565     0.9565    -0.0000
 15 H      0.9389     1.0000     0.0611     0.9771     0.9771    -0.0000
 16 H      0.6910     1.0000     0.3090     0.9030     0.9030    -0.0000
 17 H      0.6969     1.0000     0.3031     0.9141     0.9141    -0.0000
 18 H      0.6899     1.0000     0.3101     0.8985     0.8985    -0.0000
 19 H      0.6871     1.0000     0.3129     0.8895     0.8895    -0.0000

  Mayer bond orders larger than 0.100000
B(  0-C ,  1-C ) :   1.0470 B(  0-C ,  9-O ) :   1.0048 B(  0-C , 14-H ) :   0.9239 
B(  0-C , 15-H ) :   0.8909 B(  1-C ,  2-H ) :   0.8734 B(  1-C ,  3-C ) :   1.0174 
B(  1-C , 13-O ) :   1.0828 B(  3-C ,  4-H ) :   0.8761 B(  3-C ,  5-C ) :   0.9690 
B(  3-C , 12-O ) :   1.0892 B(  5-C ,  6-H ) :   0.8751 B(  5-C ,  7-C ) :   0.9811 
B(  5-C , 11-O ) :   1.0600 B(  7-C ,  8-H ) :   0.9043 B(  7-C ,  9-O ) :   1.0837 
B(  7-C , 10-O ) :   1.0463 B( 10-O , 16-H ) :   0.8344 B( 11-O , 17-H ) :   0.8230 
B( 12-O , 18-H ) :   0.8312 B( 13-O , 19-H ) :   0.8387 

-------
TIMINGS
-------

Total SCF time: 0 days 0 hours 0 min 2 sec 

Total time                  ....       2.191 sec
Sum of individual times     ....       2.170 sec  ( 99.0%)

SCF preparation             ....       0.220 sec  ( 10.0%)
Fock matrix formation       ....       1.825 sec  ( 83.3%)
  Startup                   ....       0.005 sec  (  0.3% of F)
  Split-RI-J                ....       0.890 sec  ( 48.8% of F)
  XC integration            ....       0.925 sec  ( 50.7% of F)
    XC Preparation          ....       0.000 sec  (  0.0% of XC)
    Basis function eval.    ....       0.369 sec  ( 40.0% of XC)
    Density eval.           ....       0.230 sec  ( 24.9% of XC)
    XC-Functional eval.     ....       0.058 sec  (  6.2% of XC)
    XC-Potential eval.      ....       0.235 sec  ( 25.4% of XC)
Diagonalization             ....       0.000 sec  (  0.0%)
Density matrix formation    ....       0.003 sec  (  0.1%)
Total Energy calculation    ....       0.001 sec  (  0.0%)
Population analysis         ....       0.100 sec  (  4.6%)
Orbital Transformation      ....       0.004 sec  (  0.2%)
Orbital Orthonormalization  ....       0.000 sec  (  0.0%)
DIIS solution               ....       0.006 sec  (  0.3%)
  MO trafo                  ....       0.000 sec  (  0.0 % of DIIS)
  Orb grad                  ....       0.000 sec  (  0.0 % of DIIS)
  Energy W gradient         ....       0.000 sec  (  0.0 % of DIIS)
  DIIS error                ....       0.001 sec  ( 10.6 % of DIIS)
  DIIS work                 ....       0.005 sec  ( 86.0 % of DIIS)
  Form Q                    ....       0.000 sec  (  0.0 % of DIIS)
  Form QpQm                 ....       0.000 sec  (  0.0 % of DIIS)
  Exp/Cayley                ....       0.000 sec  (  0.0 % of DIIS)
  Orb update                ....       0.000 sec  (  0.0 % of DIIS)
  Wake-sleep                ....       0.000 sec  (  3.3 % of DIIS)
SOSCF solution              ....       0.011 sec  (  0.5%)
  MO trafo                  ....       0.006 sec  ( 55.9 % of SOSCF)
  Orb grad                  ....       0.000 sec  (  1.4 % of SOSCF)
  Rot update                ....       0.000 sec  (  2.2 % of SOSCF)
  Step                      ....       0.004 sec  ( 39.5 % of SOSCF)
Finished LeanSCF after   2.2 sec

Maximum memory used throughout the entire LEANSCF-calculation: 15.3 MB


-------------------------------------------------------------------------------
                          DFT DISPERSION CORRECTION                            
                                                                               
                                DFTD4 V3.4.0                                   
-------------------------------------------------------------------------------
The PBE functional is recognized
Active option DFTDOPT                   ...         5   

-------------------------   ----------------
Dispersion correction           -0.019257616
-------------------------   ----------------

------------------   -----------------
gCP correction             0.129447937
------------------   -----------------

-------------------------   --------------------
FINAL SINGLE POINT ENERGY      -571.417412164562
-------------------------   --------------------


------------------------------------------------------------------------------
                              ORCA PROPERTY CALCULATIONS
------------------------------------------------------------------------------

GBWName                                 ... sp.gbw
Number of atoms                         ...     20
Number of basis functions               ...    160
Max core memory                         ...   1024 MB

Electric properties:
Dipole moment                           ... YES
Quadrupole moment                       ...  NO
Static polarizability (Dipole/Dipole)   ...  NO
Static polarizability (Dipole/Quad.)    ...  NO
Static polarizability (Quad./Quad.)     ...  NO
Static polarizability (Velocity)        ...  NO

Atomic electric properties:
Dipole moment                           ...  NO
Quadrupole moment                       ...  NO
Static polarizability                   ...  NO

Choice of electric origin               ... Center of mass
Position of electric origin             ...     0.000003     0.000005    -0.000003

General magnetic properties:
Magnetizability                         ...  NO

EPR properties:
g-Tensor (aka g-matrix)                 ...  NO
Zero-Field splitting spin-orbit         ...  NO
Zero-field splitting spin-spin          ...  NO
Hyperfine couplings                     ...  NO (   0 nuclei)
Quadrupole couplings                    ...  NO (   0 nuclei)
Contact density                         ...  NO (   0 nuclei)

NMR properties:
Chemical shifts                         ...  NO (   0 nuclei)
Spin-rotation constants                 ...  NO (   0 nuclei)
Spin-spin couplings                     ...  NO (   0 nuclei,    0 pairs)

Choice of magnetic origin               ... GIAO
Position of magnetic origin             ...     0.000000     0.000000     0.000000

Properties with geometric perturbations:
SCF Hessian                             ...  NO
IR spectrum                             ...  NO
VCD spectrum                            ...  NO
X-ray spectroscopy properties:
SCF XES/XAS/RIXS spectra                ...  NO


-------------
DIPOLE MOMENT
-------------

Method             : SCF
Type of density    : Electron Density
Multiplicity       :   1
Irrep              :   0
Energy             :  -571.5276024854894104 Eh
Relativity type    : 
Basis              : AO
                                X                 Y                 Z
Electronic contribution:     -0.986968323      -0.345608256      -0.246519107
Nuclear contribution   :      0.990379116       0.167175439       0.544021300
                        -----------------------------------------
Total Dipole Moment    :      0.003410793      -0.178432817       0.297502193
                        -----------------------------------------
Magnitude (a.u.)       :      0.346925725
Magnitude (Debye)      :      0.881815113



--------------------
Rotational spectrum 
--------------------
 
Rotational constants in cm-1:             0.057596             0.044231             0.028803 
Rotational constants in MHz :          1726.675401          1326.006870           863.489818 

Dipole components along the rotational axes: 
x,y,z [a.u.] :    -0.001293    -0.177424     0.298122 
x,y,z [Debye]:    -0.003287    -0.450976     0.757765 

 

Dipole moment calculation done in   0.0 sec 

Maximum memory used throughout the entire PROP-calculation: 10.1 MB

--------------------------------
SUGGESTED CITATIONS FOR THIS RUN
--------------------------------

Below you find a list of papers that are relevant to this ORCA run
We neither can nor want to force you to cite these papers, but we appreciate if you do
You receive ORCA, which is the product of decades of hard work by many enthusiastic individuals, for free
The only thing we kindly ask in return is that you cite our papers,
We deeply appreciate it, if you show your appreciation for ORCA by not just citing the generic ORCA reference.

Please note that relegating all ORCA citations to the supporting information does *not* help us.
SI sections are not indexed - citations you put there will not count into any citation statistics
But we need these citations in order to attract the funding resources that allow us to do what we are doing

Therefore, if you are a happy ORCA user, please consider citing a few of the papers listed below in the main body of your paper

In addition to the list printed below, the program has created the file sp.bibtex that contains the list in bibtex format
You can import this file easily into all common literature databanks and citation aid programs


List of essential papers. We consider these as the minimum necessary citations

  1. Neese,F.
     Software update: the ORCA program system, version 5.0
     WIRES Comput. Molec. Sci., 2022 12(1)e1606
     doi.org/10.1002/wcms.1606

List of papers to cite with high priority. The work reported in these papers was absolutely
necessary for this run to complete.
Our perspective: the developers of density functionals and basis sets usually get cited in chemistry papers
Good! But without the algorithms to do something with them, the functionals or basis sets would not do anything.
Hence, in our opinion, the algorithm design and method developments papers are equally worthy of getting cited

  1. Neese,F.
     An improvement of the resolution of the identity approximation for the formation of the Coulomb matrix
     J. Comp. Chem., 2003 24(14)1740-1747
     doi.org/10.1002/jcc.10318
  2. Neese,F.
     The SHARK Integral Generation and Digestion System
     J. Comp. Chem., 2022  1-16
     doi.org/10.1002/jcc.26942
  3. Caldeweyher,E.; Bannwarth,C.; Grimme,S.
     Extension of the D3 dispersion coefficient model
     J. Chem. Phys., 2017 147 034112
     doi.org/10.1063/1.4993215
  4. Caldeweyher,E.; Ehlert,S.; Hansen,A.; Neugebauer,H.; Spicher,S.; Bannwarth,C.; Grimme,S.
     A generally applicable atomic-charge dependent London dispersion correction
     J. Chem. Phys., 2019 150 154122
     doi.org/10.1063/1.5090222
  5. Caldeweyher,E.; Mewes,J.; Ehlert,S.; Grimme,S.
     Extension and evaluation of the D4 London-dispersion model for periodic systems
     Phys. Chem. Chem. Phys., 2020 22(16)8499-8512
     doi.org/10.1039/D0CP00502A
  6. Wittmann,L.; Gordiy,I.; Friede,M.; Helmich-Paris,B.; Grimme,S.; Hansen,A.; Bursch,M.
     Extension of the D3 and D4 London Dispersion Corrections to the full Actinides Series
     Phys. Chem. Chem. Phys., 2024 26(32)21379-21394
     doi.org/https://doi.org/10.1039/D4CP01514B 

List of suggested additional citations. These are papers that are important in the 'surrounding' of 
of this run, or papers that preceded the highly important papers. If you like your results we are grateful for a citation.

  1. Neese,F.
     The ORCA program system
     WIRES Comput. Molec. Sci., 2012 2(1)73-78
     doi.org/10.1002/wcms.81
  2. Neese,F.
     Software update: the ORCA program system, version 4.0
     WIRES Comput. Molec. Sci., 2018 8(1)1-6
     doi.org/10.1002/wcms.1327
  3. Neese,F.; Wennmohs,F.; Becker,U.; Riplinger,C.
     The ORCA quantum chemistry program package
     J. Chem. Phys., 2020 152 Art. No. L224108
     doi.org/10.1063/5.0004608

List of optional additional citations

  1. Neese,F.
     Approximate second-order SCF convergence for spin unrestricted wavefunctions
     Chem. Phys. Lett., 2000 325(1-3)93-98
     doi.org/10.1016/s0009-2614(00)00662-x

Timings for individual modules:

Sum of individual times          ...        2.866 sec (=   0.048 min)
Startup calculation              ...        0.503 sec (=   0.008 min)  17.5 %
SCF iterations                   ...        2.291 sec (=   0.038 min)  79.9 %
Property calculations            ...        0.073 sec (=   0.001 min)   2.5 %
                             ****ORCA TERMINATED NORMALLY****
TOTAL RUN TIME: 0 days 0 hours 0 minutes 3 seconds 38 msec
