 Entering Gaussian System
 *********************************************
 Gaussian 98:
 frequency output generated by the xtb code
 *********************************************
                         Standard orientation:
 --------------------------------------------------------------------
  Center     Atomic     Atomic              Coordinates (Angstroms)
  Number     Number      Type              X           Y           Z
 --------------------------------------------------------------------
    1          6             0        0.721381    0.643078   -0.005317
    2          6             0       -0.609006   -0.024731   -0.421113
    3          9             0       -1.169644    0.689941   -1.414071
    4         17             0       -1.712858   -0.045337    0.961151
    5         17             0       -0.285739   -1.661987   -1.008080
    6          9             0        1.551835    0.713014   -1.051439
    7          9             0        0.503857    1.901051    0.393521
    8         17             0        1.485792   -0.272639    1.301895
 --------------------------------------------------------------------
     1 basis functions        1 primitive gaussians
     1 alpha electrons        1 beta electrons

 Harmonic frequencies (cm**-1), IR intensities (km*mol⁻¹),
 Raman scattering activities (A**4/amu), Raman depolarization ratios,
 reduced masses (AMU), force constants (mDyne/A) and normal coordinates:
                      1                      2                      3
                        a                      a                      a 
 Frequencies --    50.3332               132.4536               136.9064
 Red. masses --    25.8129                30.1932                25.8276
 Frc consts  --     0.0000                 0.0000                 0.0000
 IR Inten    --     0.0112                 1.2209                 2.3427
 Raman Activ --     0.0000                 0.0000                 0.0000
 Depolar     --     0.0000                 0.0000                 0.0000
 Atom AN      X      Y      Z        X      Y      Z        X      Y      Z
   1   6     0.02  -0.03  -0.03    -0.04   0.08  -0.09    -0.02   0.02   0.02
   2   6    -0.01   0.01   0.01    -0.02   0.06  -0.06    -0.09   0.10   0.12
   3   9    -0.14   0.16   0.19    -0.29  -0.17  -0.08    -0.08   0.09   0.11
   4  17     0.18  -0.31   0.18     0.33   0.16   0.20    -0.50  -0.16  -0.11
   5  17    -0.04   0.15  -0.37     0.39   0.09   0.12     0.42   0.25   0.22
   6   9     0.13  -0.39   0.01     0.08   0.09  -0.01    -0.24  -0.28  -0.18
   7   9     0.14   0.09  -0.38     0.09   0.08  -0.02     0.39   0.10  -0.04
   8  17    -0.24   0.28   0.34    -0.59  -0.33  -0.15     0.09  -0.09  -0.12
                      4                      5                      6
                        a                      a                      a 
 Frequencies --   211.3999               268.2224               269.0511
 Red. masses --    27.0957                21.0787                20.1853
 Frc consts  --     0.0000                 0.0000                 0.0000
 IR Inten    --     0.4439                 0.0071                 0.8923
 Raman Activ --     0.0000                 0.0000                 0.0000
 Depolar     --     0.0000                 0.0000                 0.0000
 Atom AN      X      Y      Z        X      Y      Z        X      Y      Z
   1   6    -0.08  -0.14   0.06    -0.01   0.02   0.02    -0.07  -0.07   0.01
   2   6    -0.07  -0.12   0.05     0.00  -0.01  -0.01     0.02  -0.02   0.03
   3   9    -0.14  -0.19   0.06     0.15  -0.18  -0.21     0.55   0.42   0.06
   4  17    -0.08   0.54   0.15     0.19  -0.03   0.00     0.18  -0.01   0.12
   5  17     0.35   0.06  -0.44    -0.09  -0.09  -0.15     0.17   0.01   0.13
   6   9    -0.18  -0.23   0.01    -0.48   0.07  -0.33    -0.35  -0.12  -0.21
   7   9    -0.21  -0.20   0.05     0.43  -0.02   0.40    -0.38  -0.08  -0.16
   8  17     0.21   0.01   0.14    -0.18   0.20   0.25    -0.19  -0.11  -0.05
                      7                      8                      9
                        a                      a                      a 
 Frequencies --   330.3924               331.3892               385.3989
 Red. masses --    21.8642                22.2800                26.5605
 Frc consts  --     0.0000                 0.0000                 0.0000
 IR Inten    --     9.3236                18.7693                32.3238
 Raman Activ --     0.0000                 0.0000                 0.0000
 Depolar     --     0.0000                 0.0000                 0.0000
 Atom AN      X      Y      Z        X      Y      Z        X      Y      Z
   1   6     0.11   0.08   0.01     0.08  -0.10  -0.11    -0.06  -0.03  -0.02
   2   6     0.13  -0.15   0.21     0.04  -0.04  -0.06    -0.06  -0.01  -0.04
   3   9     0.28  -0.12   0.33    -0.35   0.39   0.46     0.13   0.15  -0.02
   4  17    -0.35   0.11   0.21     0.09   0.14  -0.38    -0.12   0.01   0.23
   5  17     0.02  -0.33  -0.29     0.13  -0.37   0.09     0.09  -0.23  -0.07
   6   9     0.04   0.37  -0.07     0.02   0.13  -0.20     0.23  -0.28   0.17
   7   9     0.18   0.21  -0.25     0.04  -0.22   0.11     0.08  -0.12   0.38
   8  17    -0.18  -0.08  -0.06    -0.08   0.10   0.12    -0.22   0.43  -0.51
                     10                     11                     12
                        a                      a                      a 
 Frequencies --   403.7656               458.0182               565.1837
 Red. masses --    19.9869                20.2132                17.7639
 Frc consts  --     0.0000                 0.0000                 0.0000
 IR Inten    --     7.6395                17.5030                 7.7817
 Raman Activ --     0.0000                 0.0000                 0.0000
 Depolar     --     0.0000                 0.0000                 0.0000
 Atom AN      X      Y      Z        X      Y      Z        X      Y      Z
   1   6    -0.19   0.22   0.26     0.14   0.06   0.05    -0.20  -0.35   0.14
   2   6    -0.04   0.04   0.05     0.27  -0.10   0.28    -0.13  -0.19   0.06
   3   9    -0.06   0.07   0.08     0.11  -0.40   0.41     0.07  -0.04   0.08
   4  17     0.25   0.06  -0.25     0.13   0.03  -0.35     0.15   0.02  -0.14
   5  17     0.00  -0.35  -0.10    -0.15   0.34   0.03    -0.01   0.19   0.07
   6   9    -0.29  -0.24   0.35     0.02  -0.21  -0.11    -0.22   0.27   0.42
   7   9     0.04   0.51  -0.02    -0.17   0.01   0.16     0.31  -0.33  -0.31
   8  17     0.10  -0.11  -0.14    -0.19   0.09  -0.21    -0.06   0.17  -0.18
                     13                     14                     15
                        a                      a                      a 
 Frequencies --   756.2150               793.5006               920.8376
 Red. masses --    12.7812                13.1445                13.0383
 Frc consts  --     0.0000                 0.0000                 0.0000
 IR Inten    --    12.2360                24.8476                97.7356
 Raman Activ --     0.0000                 0.0000                 0.0000
 Depolar     --     0.0000                 0.0000                 0.0000
 Atom AN      X      Y      Z        X      Y      Z        X      Y      Z
   1   6     0.04  -0.04  -0.05     0.45  -0.16   0.46     0.39  -0.22   0.46
   2   6    -0.46   0.52   0.63     0.41   0.44  -0.07    -0.40  -0.46   0.09
   3   9     0.06  -0.07  -0.08    -0.18  -0.00  -0.13    -0.09   0.13  -0.17
   4  17     0.11  -0.03  -0.13    -0.08  -0.02   0.08     0.05   0.01  -0.03
   5  17     0.04  -0.14  -0.08    -0.00  -0.11  -0.03     0.01   0.06   0.02
   6   9     0.13   0.05  -0.06    -0.21   0.01   0.06     0.14   0.03  -0.22
   7   9    -0.05  -0.13  -0.04    -0.07  -0.15  -0.14    -0.06   0.25   0.04
   8  17    -0.01   0.01   0.01    -0.08   0.07  -0.12    -0.05   0.03  -0.06
                     16                     17                     18
                        a                      a                      a 
 Frequencies --  1030.0460              1070.7112              1113.9596
 Red. masses --    13.6326                13.3759                12.9729
 Frc consts  --     0.0000                 0.0000                 0.0000
 IR Inten    --    21.5467               115.1268               150.3718
 Raman Activ --     0.0000                 0.0000                 0.0000
 Depolar     --     0.0000                 0.0000                 0.0000
 Atom AN      X      Y      Z        X      Y      Z        X      Y      Z
   1   6    -0.14  -0.35   0.18     0.42  -0.47  -0.57    -0.50  -0.53   0.08
   2   6    -0.30   0.38  -0.52    -0.02   0.02   0.02     0.42   0.02   0.29
   3   9     0.20  -0.26   0.36     0.00  -0.00  -0.00    -0.11   0.10  -0.16
   4  17     0.01  -0.00   0.00    -0.02  -0.01   0.01    -0.01  -0.00   0.00
   5  17     0.01   0.00   0.01     0.01   0.02   0.01    -0.00  -0.01  -0.01
   6   9     0.12   0.03  -0.16    -0.23  -0.01   0.29     0.18   0.05  -0.20
   7   9    -0.03   0.20   0.04    -0.07   0.34   0.12    -0.01   0.27   0.07
   8  17     0.02   0.00   0.01    -0.01   0.01   0.01     0.01   0.00   0.01
