8
 energy: -32.103961667773 gnorm: 0.019460075337 xtb: 6.7.1 (41059b4)
C            0.73689619196910        0.63864296153145        0.00969188649573
C           -0.61517143058410       -0.03861302197900       -0.41398879813347
F           -1.12510655485390        0.72288338034686       -1.40682726815709
Cl          -1.75970855812495       -0.05566735503006        0.95056620084781
Cl          -0.32206964002977       -1.68215306897759       -1.03462647110474
F            1.53592443687726        0.69273257699844       -1.06875862990113
F            0.47397080805050        1.89861021006631        0.39372421132972
Cl           1.56087786797445       -0.23404071567618        1.32677141083003
8
 energy: -32.105033668212 gnorm: 0.008323817053 xtb: 6.7.1 (41059b4)
C            0.72616728462221        0.64442356644966       -0.00299454901435
C           -0.61112307536163       -0.02823724447321       -0.41969086986147
F           -1.15155562806456        0.70602047003737       -1.41249530243957
Cl          -1.72260781007543       -0.05210472335511        0.96203320448968
Cl          -0.29379936062574       -1.66957273796214       -1.01170946366854
F            1.54623070855963        0.70489679119635       -1.06012862604198
F            0.49131978237333        1.90208975285388        0.39266440804991
Cl           1.50098121985079       -0.26512090746659        1.30887374069318
8
 energy: -32.105207164342 gnorm: 0.000976872814 xtb: 6.7.1 (41059b4)
C            0.72135245575533        0.64322164739226       -0.00551961310315
C           -0.60882743697075       -0.02422548497682       -0.42129359646001
F           -1.16917133526094        0.69177845905009       -1.41413471899468
Cl          -1.71314170142223       -0.04848313359198        0.96006920511060
Cl          -0.28814069596217       -1.66187238782865       -1.00745886000612
F            1.55214102033020        0.71162031804886       -1.05095039928511
F            0.50393793534898        1.90075550108222        0.39323133157716
Cl           1.48746287946018       -0.27039995189578        1.30260919336816
8
 energy: -32.105208706416 gnorm: 0.000559049108 xtb: 6.7.1 (41059b4)
C            0.72091678505089        0.64317866062103       -0.00573705268192
C           -0.60905649416737       -0.02525931707246       -0.42068966514858
F           -1.16977748760461        0.68978171414155       -1.41347949776702
Cl          -1.71191348574004       -0.04383612822331        0.96239059702959
Cl          -0.28353387258751       -1.66150906242873       -1.00920906701419
F            1.55155921412905        0.71253152882970       -1.05160414660871
F            0.50352793282731        1.90110639805707        0.39290319025040
Cl           1.48389052937089       -0.27359882664463        1.30197818414728
8
 energy: -32.105210110332 gnorm: 0.000237485021 xtb: 6.7.1 (41059b4)
C            0.72149282877981        0.64318996238787       -0.00532917554418
C           -0.60890317813309       -0.02488915889372       -0.42088673990472
F           -1.16976038071161        0.68984966699741       -1.41378743784641
Cl          -1.71305570628243       -0.04541238835583        0.96108163343483
Cl          -0.28585352460628       -1.66189776443609       -1.00853875718357
F            1.55192559474312        0.71287936899693       -1.05144973981544
F            0.50391375452647        1.90119217586825        0.39327403986760
Cl           1.48585373296260       -0.27251689528461        1.30218871919875
8
 energy: -32.105210183567 gnorm: 0.000112761959 xtb: 6.7.1 (41059b4)
C            0.72137796347343        0.64308184514985       -0.00531352556064
C           -0.60900434218856       -0.02473310936041       -0.42111489424004
F           -1.16964264425198        0.68993713048635       -1.41407388661883
Cl          -1.71286122031383       -0.04534775300895        0.96114438738681
Cl          -0.28572695249118       -1.66198679758603       -1.00808368667507
F            1.55183527017146        0.71302396178421       -1.05143204730362
F            0.50384587062210        1.90105272334082        0.39352620145071
Cl           1.48578917625715       -0.27263303352562        1.30189999376755
