9
 energy: -477.956822087786 gnorm: 0.012096300456 xtb: 6.7.1 (41059b4)
C           -1.72319184548099        0.40890548151572        0.01615119463927
C           -0.61528160169377       -0.63468280801123       -0.00386953616107
S            1.01507946507612        0.22684907758765       -0.17466613454261
H           -1.79333770894810        0.92153579987612       -0.94724918257402
H           -2.68468520235812       -0.07113545698547        0.22339735474890
H           -1.54826202589093        1.15976831915494        0.79200636431016
H           -0.74186731024046       -1.30886652743900       -0.85351292140593
H           -0.61366265393087       -1.22002367025270        0.91927966436198
H            1.73215172448797       -0.86274048635590       -0.56078985967564
9
 energy: -477.957026310811 gnorm: 0.004069183328 xtb: 6.7.1 (41059b4)
C           -1.72456856210766        0.40942728861589        0.01717203202068
C           -0.61589636215190       -0.63361927941116       -0.00883138661597
S            1.01510042348969        0.22386029515053       -0.19921556111143
H           -1.79393828986838        0.93000685477502       -0.94179490626663
H           -2.68637105092518       -0.07179791623873        0.22070296795079
H           -1.55112262486899        1.15540329414944        0.79883897909737
H           -0.74797248397451       -1.31396234312193       -0.85351316387318
H           -0.60827517749506       -1.21700073010391        0.91600174158429
H            1.73998687699300       -0.86270801272455       -0.53861307575247
9
 energy: -477.957162759458 gnorm: 0.001778152901 xtb: 6.7.1 (41059b4)
C           -1.72274620243060        0.40957916698016        0.01802209081075
C           -0.61492422489282       -0.63393071001274       -0.01842807762175
S            1.00930322344917        0.23074342383157       -0.23724156626609
H           -1.79206858974797        0.94385653356211       -0.93356130974493
H           -2.68444237529859       -0.07521302233385        0.21370932961367
H           -1.55120014669741        1.14520056139447        0.81069597607284
H           -0.76028698652484       -1.32272812077989       -0.85531323931689
H           -0.59352720792638       -1.21038094552193        0.91123017685757
H            1.73683512392655       -0.86751789928858       -0.49836466457862
9
 energy: -477.957163544089 gnorm: 0.012983928140 xtb: 6.7.1 (41059b4)
C           -1.72689058824247        0.41003042928401        0.02319963454008
C           -0.61736081839257       -0.62914017389009       -0.04430925426898
S            0.99586181118296        0.23638040555501       -0.34182569315450
H           -1.79559335710138        0.97682350619607       -0.91076325040692
H           -2.68879935184034       -0.08226041027269        0.19871638938565
H           -1.55468423282622        1.11790982654053        0.84199499747646
H           -0.79552004685605       -1.33498865326603       -0.86305391006153
H           -0.55306024852285       -1.18740182855397        0.89660203758338
H            1.76298895591536       -0.88774552172500       -0.38980875637547
9
 energy: -477.957300495854 gnorm: 0.002236139693 xtb: 6.7.1 (41059b4)
C           -1.72615629559684        0.40994220974262        0.02172066829980
C           -0.61758245507574       -0.63059254038411       -0.03496776448806
S            1.00088997380572        0.22891292961717       -0.30563771479310
H           -1.79299588280746        0.96667380258828       -0.91763980363515
H           -2.68888762546570       -0.07956981063274        0.19934601948912
H           -1.55491849891450        1.12512658519619        0.83262907853901
H           -0.78684279040159       -1.33129857719454       -0.85799381047655
H           -0.56413044845171       -1.19182282961440        0.90298411225148
H            1.75756631331654       -0.87776368239152       -0.42968993164819
9
 energy: -477.957313392795 gnorm: 0.001239836352 xtb: 6.7.1 (41059b4)
C           -1.72463464644897        0.41006517120591        0.02245493253310
C           -0.61711803728660       -0.63174686557921       -0.03548943130589
S            0.99844906944851        0.23025118794238       -0.31309920252691
H           -1.79113844787305        0.96806287355611       -0.91602273455816
H           -2.68761842027900       -0.07969933305110        0.19739346336389
H           -1.55480727754527        1.12375835974377        0.83421322815734
H           -0.78847627360931       -1.33217874998385       -0.85745317470319
H           -0.56310888904760       -1.19208843797637        0.90205258603765
H            1.75539521703409       -0.87681617283773       -0.42329870677363
9
 energy: -477.957327583173 gnorm: 0.001578577251 xtb: 6.7.1 (41059b4)
C           -1.72359686590362        0.41024889674751        0.02415556315255
C           -0.61713601302521       -0.63271910024961       -0.04059994906494
S            0.99349354705455        0.22977060400805       -0.33733548756596
H           -1.78910370218173        0.97444747301109       -0.91070077437233
H           -2.68725155077190       -0.08007392522493        0.19277488745923
H           -1.55464880608995        1.11768825652106        0.84059548021202
H           -0.79779708856011       -1.33570325060450       -0.85760519536161
H           -0.55483311090976       -1.18850337171271        0.89830497633653
H            1.75781583354444       -0.87554783201463       -0.39883788901142
9
 energy: -477.957332287911 gnorm: 0.000720480671 xtb: 6.7.1 (41059b4)
C           -1.72443552583632        0.41031039138044        0.02438870847190
C           -0.61750215100430       -0.63222480117265       -0.04358312244598
S            0.99271302344439        0.22822517251173       -0.34721884233683
H           -1.79008959178254        0.97730750045180       -0.90891456733866
H           -2.68809571653643       -0.08017610435651        0.19273963377079
H           -1.55365344932235        1.11532372744260        0.84296544423494
H           -0.80180155475572       -1.33720282446592       -0.85861022809894
H           -0.55110069238972       -1.18699791184309        0.89620866282715
H            1.76090786701597       -0.87495754900028       -0.38722369157757
9
 energy: -477.957332287911 gnorm: 0.000720480671 xtb: 6.7.1 (41059b4)
C           -1.72443552583632        0.41031039138044        0.02438870847190
C           -0.61750215100430       -0.63222480117265       -0.04358312244598
S            0.99271302344439        0.22822517251173       -0.34721884233683
H           -1.79008959178254        0.97730750045180       -0.90891456733866
H           -2.68809571653643       -0.08017610435651        0.19273963377079
H           -1.55365344932235        1.11532372744260        0.84296544423494
H           -0.80180155475572       -1.33720282446592       -0.85861022809894
H           -0.55110069238972       -1.18699791184309        0.89620866282715
H            1.76090786701597       -0.87495754900028       -0.38722369157757
