
                                 *****************
                                 * O   R   C   A *
                                 *****************

                                            #,                                       
                                            ###                                      
                                            ####                                     
                                            #####                                    
                                            ######                                   
                                           ########,                                 
                                     ,,################,,,,,                         
                               ,,#################################,,                 
                          ,,##########################################,,             
                       ,#########################################, ''#####,          
                    ,#############################################,,   '####,        
                  ,##################################################,,,,####,       
                ,###########''''           ''''###############################       
              ,#####''   ,,,,##########,,,,          '''####'''          '####       
            ,##' ,,,,###########################,,,                        '##       
           ' ,,###''''                  '''############,,,                           
         ,,##''                                '''############,,,,        ,,,,,,###''
      ,#''                                            '''#######################'''  
     '                                                          ''''####''''         
             ,#######,   #######,   ,#######,      ##                                
            ,#'     '#,  ##    ##  ,#'     '#,    #''#        ,####,   ,####,        
            ##       ##  ##   ,#'  ##            #'  '#       #'       #'  '#        
            ##       ##  #######   ##           ,######,      #####,   #    #        
            '#,     ,#'  ##    ##  '#,     ,#' ,#      #,     #,   #   #,  ,#        
             '#######'   ##     ##  '#######'  #'      '#     '####' # '####'        



                #########################################################
                #                        -***-                          #
                #          Department of theory and spectroscopy        #
                #                                                       #
                #                      Frank Neese                      #
                #                                                       #
                #     Directorship, Architecture, Infrastructure        #
                #                    SHARK, DRIVERS                     #
                #        Core code/Algorithms in most modules           #
                #                                                       #
                #        Max Planck Institute fuer Kohlenforschung      #
                #                Kaiser Wilhelm Platz 1                 #
                #                 D-45470 Muelheim/Ruhr                 #
                #                      Germany                          #
                #                                                       #
                #                  All rights reserved                  #
                #                        -***-                          #
                #########################################################


                         Program Version 6.0.1  -  RELEASE   -


 With contributions from (in alphabetic order):
[Max-Planck-Institut fuer Kohlenforschung]                               
  Daniel Aravena         : Magnetic Suceptibility                        
  Michael Atanasov       : Ab Initio Ligand Field Theory (pilot matlab implementation)
  Alexander A. Auer      : GIAO ZORA, VPT2 properties, NMR spectrum      
  Ute Becker             : All parallelization in ORCA, NUMFREQ, NUMCALC 
  Giovanni Bistoni       : ED, misc. LED, open-shell LED, HFLD           
  Martin Brehm           : Molecular dynamics                            
  Dmytro Bykov           : pre 5.0 version of the SCF Hessian            
  Marcos Casanova-Páez   : Triplet and SCS-CIS(D). UHF-(DLPNO)-IP/EA/STEOM-CCSD. UHF-CVS-IP/STEOM-CCSD   
  Vijay G. Chilkuri      : MRCI spin determinant printing, contributions to CSF-ICE 
  Pauline Colinet        : FMM embedding                                 
  Dipayan Datta          : RHF DLPNO-CCSD density                        
  Achintya Kumar Dutta   : EOM-CC, STEOM-CC                              
  Nicolas Foglia         : Exact transition moments, OPA infrastructure, MCD improvements    
  Dmitry Ganyushin       : Spin-Orbit,Spin-Spin,Magnetic field MRCI      
  Miquel Garcia-Rates    : C-PCM and meta-GGA Hessian, CCSD/C-PCM, Gaussian charge scheme 
  Tiago L. C. Gouveia    : GS-ROHF, GS-ROCIS                             
  Yang Guo               : DLPNO-NEVPT2, F12-NEVPT2, CIM, IAO-localization        
  Andreas Hansen         : Spin unrestricted coupled pair/coupled cluster methods 
  Ingolf Harden          : AUTO-CI MPn and infrastructure                
  Benjamin Helmich-Paris : MC-RPA, TRAH-(SCF,CASSCF), AVAS, COSX integrals, SCF dyn. polar. 
  Lee Huntington         : MR-EOM, pCC                                   
  Robert Izsak           : Overlap fitted RIJCOSX, COSX-SCS-MP3, EOM     
  Riya Kayal             : Wick's Theorem for AUTO-CI, AUTO-CI UHF-CCSDT 
  Emily Kempfer          : AUTO-CI, RHF CISDT and CCSDT                  
  Christian Kollmar      : KDIIS, OOCD, Brueckner-CCSD(T), CCSD density, CASPT2, CASPT2-K, improved NEVPT2 
  Axel Koslowski         : Symmetry handling                             
  Simone Kossmann        : meta-GGA functionals, TD-DFT gradient, OOMP2, (MP2 Hessian; deprecated post 5.0) 
  Lucas Lang             : DCDCAS                                        
  Marvin Lechner         : AUTO-CI (C++ implementation), FIC-MRCC        
  Spencer Leger          : CASSCF response                               
  Dagmar Lenk            : GEPOL surface, SMD, ORCA-2-JSON               
  Dimitrios Liakos       : Extrapolation schemes; Compound Job, initial MDCI parallelization 
  Dimitrios Manganas     : Further ROCIS development; embedding schemes. LFT, Crystal Embedding 
  Dimitrios Pantazis     : SARC Basis sets                               
  Anastasios Papadopoulos: AUTO-CI, single reference methods and gradients 
  Taras Petrenko         : pre 6.0 DFT Hessian and TD-DFT gradient, (ASA, deprecated), ECA, 1-Electron XAS/XES, NRVS 
  Peter Pinski           : DLPNO-MP2, DLPNO-MP2 Gradient                 
  Christoph Reimann      : Effective Core Potentials                     
  Marius Retegan         : Local ZFS, SOC                                
  Christoph Riplinger    : Optimizer, TS searches, QM/MM, DLPNO-CCSD(T), (RO)-DLPNO pert. Triples 
  Michael Roemelt        : Original ROCIS implementation                 
  Masaaki Saitow         : Open-shell DLPNO-CCSD energy and density      
  Barbara Sandhoefer     : DKH picture change effects                    
  Kantharuban Sivalingam : CASSCF convergence/infrastructure, NEVPT2 and variants, FIC-MRCI 
  Bernardo de Souza      : ESD, SOC TD-DFT                               
  Georgi L. Stoychev     : AutoAux, RI-MP2 NMR, DLPNO-MP2 response, X2C  
  Van Anh Tran           : RI-MP2 g-tensors                              
  Willem Van den Heuvel  : Paramagnetic NMR                              
  Zikuan Wang            : NOTCH, Electric field optimization            
  Frank Wennmohs         : Technical directorship and infrastructure     
  Hang Xu                : AUTO-CI-Response properties                   
                                                                         
[FACCTs GmbH]                                                            
  Markus Bursch, Miquel Garcia-Rates, Christoph Riplinger, Bernardo de Souza, Georgi L. Stoychev 
                                                                 
  APM, Basis sets (HGBS, AHGBS, def-TZVP (Ac-Lr), def2-XVPD (La-Lu)), CI-OPT, improved COSX, DLPNO-Multilevel,           
  DOCKER, DRACO, updates on ESD, GOAT, IRC, LR-CPCM, MBIS, meta-GGA TD-DFT gradient, ML-optimized integration grids, 
  MM, NACMEs, nearIR, NEB, NEB-TS, NL-DFT gradient (VV10), 2- and 3-layer-ONIOM, interface openCOSMO-RS, QMMM,   
  Crystal-QMMM, SF, symmetry and pop. for TD-DFT, r2SCAN hybrids, SOLVATOR                                   
                                                                         
[Other institutions]                                                     
  V. Asgeirsson          : NEB                                           
  Christoph Bannwarth    : sTDA-DFT, sTD-DFT, PBEh-3c, B97-3c, D3        
  Sebastian Ehlert       : rSCAN, r2SCAN, r2SCAN-3c, D4, dhf basis sets  
  Marvin Friede          : D4 for Fr, Ra, Ac-Lr                          
  Lars Goerigk           : TD-DFT with DH, B97 family of functionals     
  Stefan Grimme          : VdW corrections, initial TS optimization, DFT functionals, gCP, sTDA/sTD-DF 
  Waldemar Hujo          : DFT-NL                                        
  H. Jonsson             : NEB                                           
  Holger Kruse           : gCP                                           
  Marcel Mueller         : wB97X-3c, vDZP basis set                      
  Hagen Neugebauer       : wr2SCAN                                       
  Tobias Risthaus        : range-separated hybrid DFT                    
  Lukas Wittmann         : regularized MP2, r2SCAN double-hybrids, wr2SCAN        
                                                                         
We gratefully acknowledge several colleagues who have allowed us to      
interface, adapt or use parts of their codes:                            
  Ed Valeev, F. Pavosevic, A. Kumar             : LibInt (2-el integral package), F12 methods 
  Garnet Chan, S. Sharma, J. Yang, R. Olivares  : DMRG                   
  Ulf Ekstrom                                   : XCFun DFT Library      
  Mihaly Kallay                                 : mrcc  (arbitrary order and MRCC methods)
  Frank Weinhold                                : gennbo (NPA and NBO analysis)           
  Simon Mueller                                 : openCOSMO-RS                            
  Christopher J. Cramer and Donald G. Truhlar   : smd solvation model                     
  S Lehtola, MJT Oliveira, MAL Marques          : LibXC Library                           
  Liviu Ungur et al                             : ANISO software                          


 Your calculation uses the libint2 library for the computation of 2-el integrals
 For citations please refer to: http://libint.valeyev.net

 Your ORCA version has been built with support for libXC version: 6.2.2
 For citations please refer to: https://libxc.gitlab.io

 This ORCA versions uses:
   CBLAS   interface :  Fast vector & matrix operations
   LAPACKE interface :  Fast linear algebra routines
   SCALAPACK package :  Parallel linear algebra routines
   Shared memory     :  Shared parallel matrices
   BLAS/LAPACK       :  OpenBLAS 0.3.27  USE64BITINT DYNAMIC_ARCH NO_AFFINITY Zen SINGLE_THREADED
        Core in use  :  Zen
   Copyright (c) 2011-2014, The OpenBLAS Project


Your calculation utilizes the geometrical counterpoise correction gCP
Please cite in your paper:
H.Kruse, S. Grimme J.Chem.Phys., 136, (2012), 154101 
   

Your calculation utilizes the atom-pairwise dispersion correction
based on EEQ partial charges (D4)


================================================================================

----- Orbital basis set information -----
Your calculation utilizes the basis: def2-mTZVPP
   Stefan Grimme, Andreas Hansen, Sebastian Ehlert, and Jan-Michael Mewes 
   J. Chem. Phys. 154, 064103 (2021). DOI: 10.1063/5.0040021

----- AuxJ basis set information -----
Your calculation utilizes the auxiliary basis: def2/J
   F. Weigend, Phys. Chem. Chem. Phys. 8, 1057 (2006).

================================================================================
                                        WARNINGS
                       Please study these warnings very carefully!
================================================================================

WARNING: Old DensityContainer found on disk!
         Will remove this file - 
         If you want to keep old densities, please start your calculation with a different basename. 



WARNING: SCAN, rSCAN, or r2SCAN functional requested.
  ===> : libXC variant has now been activated.



================================================================================
                                       INPUT FILE
================================================================================
NAME = sp.inp
|  1> ! r2scan-3c def2/J RI DEFGRID2 scfconv6 printgap
|  2> %output
|  3>     printlevel normal
|  4> end
|  5> * xyz 0 1
|  6> C -2.4776530056 -0.0370789248 -0.191554356
|  7> C -1.2298892697 0.7555225599 0.1737982831
|  8> C 0.0189532651 -0.0909227059 0.0738820699
|  9> O 0.0560289944 -1.2913722788 0.0928441445
| 10> O 1.1059220593 0.6880535709 -0.0318640194
| 11> C 2.3674146932 0.0361182693 -0.0993867424
| 12> H -2.4464774704 -0.3337362307 -1.2367687774
| 13> H -2.5352251907 -0.9377712017 0.4136961448
| 14> H -3.3691517559 0.5611089667 -0.0236954422
| 15> H -1.2948917621 1.1058574293 1.2074289826
| 16> H -1.1073808819 1.6315507813 -0.4639903731
| 17> H 2.261640872 -0.9361260084 -0.5843737719
| 18> H 2.7640858851 -0.1063470062 0.9078158577
| 19> H 3.0268397654 0.6840483709 -0.6725787396
| 20> *
| 21> 
| 22>                          ****END OF INPUT****
================================================================================

                       ****************************
                       * Single Point Calculation *
                       ****************************

---------------------------------
CARTESIAN COORDINATES (ANGSTROEM)
---------------------------------
  C     -2.477653   -0.037079   -0.191554
  C     -1.229889    0.755523    0.173798
  C      0.018953   -0.090923    0.073882
  O      0.056029   -1.291372    0.092844
  O      1.105922    0.688054   -0.031864
  C      2.367415    0.036118   -0.099387
  H     -2.446477   -0.333736   -1.236769
  H     -2.535225   -0.937771    0.413696
  H     -3.369152    0.561109   -0.023695
  H     -1.294892    1.105857    1.207429
  H     -1.107381    1.631551   -0.463990
  H      2.261641   -0.936126   -0.584374
  H      2.764086   -0.106347    0.907816
  H      3.026840    0.684048   -0.672579

----------------------------
CARTESIAN COORDINATES (A.U.)
----------------------------
  NO LB      ZA    FRAG     MASS         X           Y           Z
   0 C     6.0000    0    12.011   -4.682086   -0.070069   -0.361985
   1 C     6.0000    0    12.011   -2.324154    1.427731    0.328431
   2 C     6.0000    0    12.011    0.035816   -0.171819    0.139617
   3 O     8.0000    0    15.999    0.105879   -2.440340    0.175450
   4 O     8.0000    0    15.999    2.089890    1.300233   -0.060214
   5 C     6.0000    0    12.011    4.473765    0.068254   -0.187814
   6 H     1.0000    0     1.008   -4.623172   -0.630670   -2.337154
   7 H     1.0000    0     1.008   -4.790881   -1.772131    0.781772
   8 H     1.0000    0     1.008   -6.366774    1.060342   -0.044778
   9 H     1.0000    0     1.008   -2.446991    2.089768    2.281710
  10 H     1.0000    0     1.008   -2.092647    3.083184   -0.876815
  11 H     1.0000    0     1.008    4.273882   -1.769022   -1.104306
  12 H     1.0000    0     1.008    5.223365   -0.200967    1.715523
  13 H     1.0000    0     1.008    5.719898    1.292664   -1.270990

--------------------------------
INTERNAL COORDINATES (ANGSTROEM)
--------------------------------
 C      0   0   0     0.000000000000     0.00000000     0.00000000
 C      1   0   0     1.522699578076     0.00000000     0.00000000
 C      2   1   0     1.511972392070   111.68932771     0.00000000
 O      3   2   1     1.201171655948   125.72837974   339.58457297
 O      3   2   1     1.341449751122   110.45039550   160.01562915
 C      5   3   2     1.421598614581   117.15994654   178.37901436
 H      1   2   3     1.086945563421   110.44375552   295.08374489
 H      1   2   3     1.086687306857   109.95050209    54.31145129
 H      1   2   3     1.086634892807   110.40641922   174.70599676
 H      2   1   3     1.093321667070   110.17635945   241.33013642
 H      2   1   3     1.090508193343   111.70796535   121.80442028
 H      6   5   3     1.091631556687   110.09381684    30.82974856
 H      6   5   3     1.091833992352   109.78018485   270.58729441
 H      6   5   3     1.087751767666   106.84689870   151.22052463

---------------------------
INTERNAL COORDINATES (A.U.)
---------------------------
 C      0   0   0     0.000000000000     0.00000000     0.00000000
 C      1   0   0     2.877485186801     0.00000000     0.00000000
 C      2   1   0     2.857213743062   111.68932771     0.00000000
 O      3   2   1     2.269885469570   125.72837974   339.58457297
 O      3   2   1     2.534972652037   110.45039550   160.01562915
 C      5   3   2     2.686432053919   117.15994654   178.37901436
 H      1   2   3     2.054029437347   110.44375552   295.08374489
 H      1   2   3     2.053541403167   109.95050209    54.31145129
 H      1   2   3     2.053442354968   110.40641922   174.70599676
 H      2   1   3     2.066078527044   110.17635945   241.33013642
 H      2   1   3     2.060761832215   111.70796535   121.80442028
 H      6   5   3     2.062884681285   110.09381684    30.82974856
 H      6   5   3     2.063267229251   109.78018485   270.58729441
 H      6   5   3     2.055552942577   106.84689870   151.22052463

---------------------
BASIS SET INFORMATION
---------------------
There are 3 groups of distinct atoms

 Group   1 Type C   : 11s6p1d contracted to 5s3p1d pattern {62111/411/1}
 Group   2 Type O   : 11s6p2d contracted to 5s3p2d pattern {62111/411/11}
 Group   3 Type H   : 4s1p contracted to 2s1p pattern {31/1}

Atom   0C    basis set group =>   1
Atom   1C    basis set group =>   1
Atom   2C    basis set group =>   1
Atom   3O    basis set group =>   2
Atom   4O    basis set group =>   2
Atom   5C    basis set group =>   1
Atom   6H    basis set group =>   3
Atom   7H    basis set group =>   3
Atom   8H    basis set group =>   3
Atom   9H    basis set group =>   3
Atom  10H    basis set group =>   3
Atom  11H    basis set group =>   3
Atom  12H    basis set group =>   3
Atom  13H    basis set group =>   3
---------------------------------
AUXILIARY/J BASIS SET INFORMATION
---------------------------------
There are 3 groups of distinct atoms

 Group   1 Type C   : 12s5p4d2f1g contracted to 6s4p3d1f1g pattern {711111/2111/211/2/1}
 Group   2 Type O   : 12s5p4d2f1g contracted to 6s4p3d1f1g pattern {711111/2111/211/2/1}
 Group   3 Type H   : 5s2p1d contracted to 3s1p1d pattern {311/2/1}

Atom   0C    basis set group =>   1
Atom   1C    basis set group =>   1
Atom   2C    basis set group =>   1
Atom   3O    basis set group =>   2
Atom   4O    basis set group =>   2
Atom   5C    basis set group =>   1
Atom   6H    basis set group =>   3
Atom   7H    basis set group =>   3
Atom   8H    basis set group =>   3
Atom   9H    basis set group =>   3
Atom  10H    basis set group =>   3
Atom  11H    basis set group =>   3
Atom  12H    basis set group =>   3
Atom  13H    basis set group =>   3

Checking for AutoStart:
The File: sp.gbw exists
Trying to determine its content:
     ... Fine, the file contains calculation information
     ... Fine, the calculation information was read
     ... Fine, the file contains a basis set
     ... Fine, the basis set was read
     ... Fine, the file contains a geometry
     ... Fine, the geometry was read
     ... Fine, the file contains a set of orbitals
     ... Fine, the orbitals can be read
     => possible old guess file was deleted
     => GBW file was renamed to GES file
     => GES file is set as startup file
     => Guess is set to MORead
     ... now leaving AutoStart

------------------------------------------------------------------------------
                             ORCA STARTUP CALCULATIONS
                           -- RI-GTO INTEGRALS CHOSEN --
------------------------------------------------------------------------------
------------------------------------------------------------------------------
                   ___                                                        
                  /   \      - P O W E R E D   B Y -                         
                 /     \                                                     
                 |  |  |   _    _      __       _____    __    __             
                 |  |  |  | |  | |    /  \     |  _  \  |  |  /  |          
                  \  \/   | |  | |   /    \    | | | |  |  | /  /          
                 / \  \   | |__| |  /  /\  \   | |_| |  |  |/  /          
                |  |  |   |  __  | /  /__\  \  |    /   |      \           
                |  |  |   | |  | | |   __   |  |    \   |  |\   \          
                \     /   | |  | | |  |  |  |  | |\  \  |  | \   \       
                 \___/    |_|  |_| |__|  |__|  |_| \__\ |__|  \__/        
                                                                              
                      - O R C A' S   B I G   F R I E N D -                    
                                      &                                       
                       - I N T E G R A L  F E E D E R -                       
                                                                              
 v1 FN, 2020, v2 2021, v3 2022-2024                                           
------------------------------------------------------------------------------


----------------------
SHARK INTEGRAL PACKAGE
----------------------

Number of atoms                             ...     14
Number of basis functions                   ...    164
Number of shells                            ...     80
Maximum angular momentum                    ...      2
Integral batch strategy                     ... SHARK/LIBINT Hybrid
RI-J (if used) integral strategy            ... SPLIT-RIJ (Revised 2003 algorithm where possible)
Printlevel                                  ...      1
Contraction scheme used                     ... SEGMENTED contraction
Prescreening option                         ... SCHWARTZ
   Thresh                                   ... 1.000e-10
   Tcut                                     ... 1.000e-11
   Tpresel                                  ... 1.000e-11 
Coulomb Range Separation                    ... NOT USED
Exchange Range Separation                   ... NOT USED
Multipole approximations                    ... NOT USED
Finite Nucleus Model                        ... NOT USED
CABS basis                                  ... NOT available
Auxiliary Coulomb fitting basis             ... AVAILABLE
   # of basis functions in Aux-J            ...    382
   # of shells in Aux-J                     ...    130
   Maximum angular momentum in Aux-J        ...      4
Auxiliary J/K fitting basis                 ... NOT available
Auxiliary Correlation fitting basis         ... NOT available
Auxiliary 'external' fitting basis          ... NOT available

Checking pre-screening integrals            ... done (  0.0 sec) Dimension = 80
Check shell pair data                       ... done (  0.0 sec)
Shell pair information
Shell pair cut-off parameter TPreSel        ...   1.0e-11
Total number of shell pairs                 ...      3240
Shell pairs after pre-screening             ...      2969
Total number of primitive shell pairs       ...     11481
Primitive shell pairs kept                  ...      7788
          la=0 lb=0:    973 shell pairs
          la=1 lb=0:   1093 shell pairs
          la=1 lb=1:    323 shell pairs
          la=2 lb=0:    347 shell pairs
          la=2 lb=1:    198 shell pairs
          la=2 lb=2:     35 shell pairs

Calculating one electron integrals          ... done (  0.0 sec)
Calculating RI/J V-Matrix + Cholesky decomp.... done (  0.0 sec)
Calculating Nuclear repulsion               ... done (  0.0 sec) ENN=    246.083011877533 Eh

Diagonalization of the overlap matrix:
Smallest eigenvalue                        ... 2.089e-04
Time for diagonalization                   ...    0.003 sec
Threshold for overlap eigenvalues          ... 1.000e-07
Number of eigenvalues below threshold      ... 0
Time for construction of square roots      ...    0.001 sec
Total time needed                          ...    0.006 sec

-------------------
DFT GRID GENERATION
-------------------

General Integration Accuracy     IntAcc      ... 4.388
Radial Grid Type                 RadialGrid  ... OptM3 with GC (2021)
Angular Grid (max. ang.)         AngularGrid ... 4 (Lebedev-302)
Angular grid pruning method      GridPruning ... 4 (adaptive)
Weight generation scheme         WeightScheme... mBecke (2022)
Basis function cutoff            BFCut       ... 1.0000e-10
Integration weight cutoff        WCut        ... 1.0000e-14
Partially contracted basis set               ... off
Rotationally invariant grid construction     ... off
Angular grids for H and He will be reduced by one unit
Diffuse basis detected: some atoms will have their outermost
                        angular grid increased by 1.

Total number of grid points                  ...    62789
Total number of batches                      ...      990
Average number of points per batch           ...       63
Average number of grid points per atom       ...     4485
Initializing property integral containers    ... done (  0.0 sec)

SHARK setup successfully completed in   0.7 seconds

Maximum memory used throughout the entire STARTUP-calculation: 28.4 MB
-------------------------------------------------------------------------------
                                 ORCA GUESS
                   Start orbitals & Density for SCF / CASSCF
-------------------------------------------------------------------------------

------------
SCF SETTINGS
------------
Hamiltonian:
 Density Functional     Method          .... DFT(GTOs)
  Functional kind                       .... Exchange
  Functional name                       .... Re-regularized SCAN exchange by Furness et al
  Functional family                     .... MGGA
  Functional refs                              
    [ 0] J. W. Furness, A. D. Kaplan, J. Ning, J. P. Perdew, and J. Sun.,  J. Phys. Chem. Lett. 11, 8208-8215 (2020), doi: 10.1021/acs.jpclett.0c02405
    [ 1] J. W. Furness, A. D. Kaplan, J. Ning, J. P. Perdew, and J. Sun.,  J. Phys. Chem. Lett. 11, 9248-9248 (2020), doi: 10.1021/acs.jpclett.0c03077
  Functional external parameters        .... 6
    Parameter  0 _c1        =  6.670000e-01 : c1 parameter        
    Parameter  1 _c2        =  8.000000e-01 : c2 parameter        
    Parameter  2 _d         =  1.240000e+00 : d parameter         
    Parameter  3 _k1        =  6.500000e-02 : k1 parameter        
    Parameter  4 _eta       =  1.000000e-03 : eta parameter       
    Parameter  5 _dp2       =  3.610000e-01 : dp2 parameter       
  Functional kind                       .... Correlation
  Functional name                       .... Re-regularized SCAN correlation by Furness et al
  Functional family                     .... MGGA
  Functional refs                              
    [ 0] J. W. Furness, A. D. Kaplan, J. Ning, J. P. Perdew, and J. Sun.,  J. Phys. Chem. Lett. 11, 8208-8215 (2020), doi: 10.1021/acs.jpclett.0c02405
    [ 1] J. W. Furness, A. D. Kaplan, J. Ning, J. P. Perdew, and J. Sun.,  J. Phys. Chem. Lett. 11, 9248-9248 (2020), doi: 10.1021/acs.jpclett.0c03077
  Functional external parameters        .... 1
    Parameter  0 _eta       =  1.000000e-03 : Regularization parameter
 Gradients option       PostSCFGGA      .... off
 RI-approximation to the Coulomb term is turned on
   Number of AuxJ basis functions       .... 382


General Settings:
 Integral files         IntName         .... sp
 Hartree-Fock type      HFTyp           .... RHF
 Total Charge           Charge          ....    0
 Multiplicity           Mult            ....    1
 Number of Electrons    NEL             ....   48
 Basis Dimension        Dim             ....  164
 Nuclear Repulsion      ENuc            ....    246.0830118775 Eh

Convergence Acceleration:
 AO-DIIS                CNVDIIS         .... on
   Start iteration      DIISMaxIt       ....    12
   Startup error        DIISStart       ....  0.200000
   # of expansion vecs  DIISMaxEq       ....     5
   Bias factor          DIISBfac        ....   1.050
   Max. coefficient     DIISMaxC        ....  10.000
 MO-DIIS                CNVKDIIS        .... off
 Trust-Rad. Augm. Hess. CNVTRAH         .... auto
   Auto Start mean grad. ratio tolernc. ....  1.125000
   Auto Start start iteration           ....     1
   Auto Start num. interpolation iter.  ....    10
   Max. Number of Micro iterations      ....    24
   Max. Number of Macro iterations      .... Maxiter - #DIIS iter
   Number of Davidson start vectors     ....     2
   Converg. threshold    (grad. norm)   ....   3.330e-04
   Grad. Scal. Fac. for Micro threshold ....   0.100
   Minimum threshold for Micro iter.    ....   1.000e-02
   NR start threshold (gradient norm)   ....   1.000e-04
   Initial trust radius                 ....   0.400
   Minimum AH scaling param. (alpha)    ....   1.000
   Maximum AH scaling param. (alpha)    .... 1000.000
   Quad. conv. algorithm                .... NR
   White noise on init. David. guess    .... on
   Maximum white noise                  ....   0.010
   Pseudo random numbers                .... off
   Inactive MOs                         .... canonical
   Orbital update algorithm             .... Taylor
   Preconditioner                       .... Diag
   Full preconditioner red. dimension   ....   250
   COSX micro iterations for RIJONX calc.... off
 SOSCF                  CNVSOSCF        .... on
   Start iteration      SOSCFMaxIt      ....   150
   Startup grad/error   SOSCFStart      ....  0.003300
   Hessian update       SOSCFHessUp     .... L-BFGS
 Level Shifting         CNVShift        .... on
   Level shift para.    LevelShift      ....    0.2500
   Turn off err/grad.   ShiftErr        ....    0.0010
 Zerner damping         CNVZerner       .... off
 Static damping         CNVDamp         .... on
   Fraction old density DampFac         ....    0.7000
   Max. Damping (<1)    DampMax         ....    0.9800
   Min. Damping (>=0)   DampMin         ....    0.0000
   Turn off err/grad.   DampErr         ....    0.1000

SCF Procedure:
 Maximum # iterations   MaxIter         ....   125
 SCF integral mode      SCFMode         .... Direct
   Integral package                     .... SHARK and LIBINT hybrid scheme
 Reset frequency        DirectResetFreq ....    20
 Integral Threshold     Thresh          ....  1.000e-10 Eh
 Primitive CutOff       TCut            ....  1.000e-11 Eh

Convergence Tolerance:
 Convergence Check Mode ConvCheckMode   .... Total+1el-Energy
 Convergence forced     ConvForced      .... 0
 Energy Change          TolE            ....  1.000e-06 Eh
 1-El. energy change                    ....  1.000e-03 Eh
 Orbital Gradient       TolG            ....  3.330e-04
 Orbital Rotation angle TolX            ....  3.330e-04
 DIIS Error             TolErr          ....  1.000e-06

---------------------
INITIAL GUESS: MOREAD
---------------------
Guess MOs are being read from file: sp.ges
Input Geometry matches current geometry (good)
Atom 0: N(Shells)= 9 and 6 - projection required
Input basis set needs projection
NBasis(read)= 100
NBasis(calc)= 164
Basis set overlap was calculated
Using GuessMode=FMatrix for the initial guess
C*T matrix was formed
Effective Fockian was calculated
Effective Fockian was diagonalized
Initial density was built
                      ------------------
                      INITIAL GUESS DONE (   0.0 sec)
                      ------------------
             **** ENERGY FILE WAS UPDATED (sp.en.tmp) ****
Finished Guess after   0.1 sec
Maximum memory used throughout the entire GUESS-calculation: 11.5 MB

-------------------------------------------------------------------------------------------
                                      ORCA LEAN-SCF
                              memory conserving SCF solver
-------------------------------------------------------------------------------------------

----------------------------------------D-I-I-S--------------------------------------------
Iteration    Energy (Eh)           Delta-E    RMSDP     MaxDP     DIISErr   Damp  Time(sec)
-------------------------------------------------------------------------------------------
               ***  Starting incremental Fock matrix formation  ***
    1    -307.4851334037560378     0.00e+00  3.81e-03  1.19e-01  6.25e-01  0.700   1.8
    2    -307.5308991945085495    -4.58e-02  3.10e-03  8.85e-02  4.39e-01  0.700   1.2
    3    -307.5632377735195746    -3.23e-02  2.27e-03  6.26e-02  3.08e-01  0.700   1.4
    4    -307.5859404265519856    -2.27e-02  1.63e-03  4.42e-02  2.16e-01  0.700   1.2
                               ***Turning on AO-DIIS***
    5    -307.6018636535098381    -1.59e-02  1.18e-03  3.17e-02  1.51e-01  0.700   1.3
    6    -307.6130241040473834    -1.12e-02  8.34e-04  2.24e-02  1.06e-01  0.700   1.8
    7    -307.6208474824596237    -7.82e-03  5.88e-04  1.57e-02  7.40e-02  0.700   1.6
    8    -307.6263283549494076    -5.48e-03  1.38e-03  3.67e-02  5.18e-02  0.000   1.7
                              *** Initializing SOSCF ***
---------------------------------------S-O-S-C-F--------------------------------------
Iteration    Energy (Eh)           Delta-E    RMSDP     MaxDP     MaxGrad    Time(sec)
--------------------------------------------------------------------------------------
    9    -307.6391327302391687    -1.28e-02  8.46e-06  3.13e-04  6.95e-05     1.2
                  *** Gradient check signals convergence ***

               *****************************************************
               *                     SUCCESS                       *
               *           SCF CONVERGED AFTER   9 CYCLES          *
               *****************************************************

             **** ENERGY FILE WAS UPDATED (sp.en.tmp) ****

----------------
TOTAL SCF ENERGY
----------------

Total Energy       :       -307.63913273023917 Eh           -8371.28639 eV

Components:
Nuclear Repulsion  :        246.08301187753290 Eh            6696.25918 eV
Electronic Energy  :       -553.72214460777207 Eh          -15067.54557 eV
One Electron Energy:       -905.64855706768958 Eh          -24643.95011 eV
Two Electron Energy:        351.92641245991751 Eh            9576.40454 eV

Virial components:
Potential Energy   :       -614.07446578927409 Eh          -16709.81572 eV
Kinetic Energy     :        306.43533305903492 Eh            8338.52934 eV
Virial Ratio       :          2.00392839709177

DFT components:
N(Alpha)           :       24.000027953253 electrons
N(Beta)            :       24.000027953253 electrons
N(Total)           :       48.000055906506 electrons
E(X)               :      -40.237410371109 Eh       
E(C)               :       -1.539100366331 Eh       
E(XC)              :      -41.776510737440 Eh       

---------------
SCF CONVERGENCE
---------------

  Last Energy change         ...    1.2804e-02  Tolerance :   1.0000e-06
  Last MAX-Density change    ...    3.1307e-04  Tolerance :   1.0000e-05
  Last RMS-Density change    ...    8.4589e-06  Tolerance :   1.0000e-06
  Last DIIS Error            ...    6.9503e-05  Tolerance :   1.0000e-06
  Last Orbital Gradient      ...    6.9503e-05  Tolerance :   3.3300e-04
  Last Orbital Rotation      ...    6.9503e-05  Tolerance :   3.3300e-04


----------------
ORBITAL ENERGIES
----------------

  NO   OCC          E(Eh)            E(eV) 
   0   2.0000     -18.997950      -516.9605 
   1   2.0000     -18.934380      -515.2307 
   2   2.0000     -10.154266      -276.3116 
   3   2.0000     -10.083953      -274.3983 
   4   2.0000     -10.046041      -273.3667 
   5   2.0000     -10.023104      -272.7425 
   6   2.0000      -1.073249       -29.2046 
   7   2.0000      -0.984656       -26.7938 
   8   2.0000      -0.758045       -20.6275 
   9   2.0000      -0.695431       -18.9236 
  10   2.0000      -0.608824       -16.5670 
  11   2.0000      -0.528524       -14.3819 
  12   2.0000      -0.472147       -12.8478 
  13   2.0000      -0.460912       -12.5420 
  14   2.0000      -0.442255       -12.0344 
  15   2.0000      -0.420527       -11.4431 
  16   2.0000      -0.399012       -10.8577 
  17   2.0000      -0.364043        -9.9061 
  18   2.0000      -0.346758        -9.4358 
  19   2.0000      -0.339286        -9.2324 
  20   2.0000      -0.320029        -8.7084 
  21   2.0000      -0.317490        -8.6393 
  22   2.0000      -0.274771        -7.4769 
  23   2.0000      -0.242825        -6.6076 
  24   0.0000      -0.014304        -0.3892 
  25   0.0000       0.070369         1.9148 
  26   0.0000       0.091480         2.4893 
  27   0.0000       0.117647         3.2013 
  28   0.0000       0.135244         3.6802 
  29   0.0000       0.153273         4.1708 
  30   0.0000       0.159167         4.3312 
  31   0.0000       0.163585         4.4514 
  32   0.0000       0.180250         4.9048 
  33   0.0000       0.187643         5.1060 
  34   0.0000       0.191958         5.2234 
*Only the first 10 virtual orbitals were printed.

                    ********************************
                    * MULLIKEN POPULATION ANALYSIS *
                    ********************************

-----------------------
MULLIKEN ATOMIC CHARGES
-----------------------
   0 C :   -0.459430
   1 C :   -0.264365
   2 C :    0.382100
   3 O :   -0.425303
   4 O :   -0.187866
   5 C :   -0.301140
   6 H :    0.147844
   7 H :    0.164451
   8 H :    0.145782
   9 H :    0.162612
  10 H :    0.161438
  11 H :    0.176507
  12 H :    0.149281
  13 H :    0.148088
Sum of atomic charges:   -0.0000000

--------------------------------
MULLIKEN REDUCED ORBITAL CHARGES
--------------------------------
  0 C s       :     3.316435  s :     3.316435
      pz      :     1.088729  p :     3.116564
      px      :     0.981497
      py      :     1.046338
      dz2     :     0.006585  d :     0.026431
      dxz     :     0.002377
      dyz     :     0.005338
      dx2y2   :     0.004975
      dxy     :     0.007156

  1 C s       :     3.167566  s :     3.167566
      pz      :     1.099570  p :     3.061350
      px      :     0.943744
      py      :     1.018036
      dz2     :     0.007542  d :     0.035449
      dxz     :     0.003858
      dyz     :     0.006348
      dx2y2   :     0.007213
      dxy     :     0.010487

  2 C s       :     3.134995  s :     3.134995
      pz      :     0.753359  p :     2.357977
      px      :     0.833815
      py      :     0.770803
      dz2     :     0.006076  d :     0.124928
      dxz     :     0.010000
      dyz     :     0.025704
      dx2y2   :     0.028252
      dxy     :     0.054897

  3 O s       :     3.843899  s :     3.843899
      pz      :     1.447837  p :     4.562695
      px      :     1.805326
      py      :     1.309532
      dz2     :     0.003568  d :     0.018710
      dxz     :     0.001059
      dyz     :     0.009127
      dx2y2   :     0.005151
      dxy     :    -0.000196

  4 O s       :     3.707477  s :     3.707477
      pz      :     1.749636  p :     4.455352
      px      :     1.089774
      py      :     1.615942
      dz2     :     0.003191  d :     0.025037
      dxz     :     0.004335
      dyz     :     0.005131
      dx2y2   :     0.002942
      dxy     :     0.009437

  5 C s       :     3.316206  s :     3.316206
      pz      :     1.110839  p :     2.940905
      px      :     0.784289
      py      :     1.045777
      dz2     :     0.006400  d :     0.044028
      dxz     :     0.010701
      dyz     :     0.005638
      dx2y2   :     0.009939
      dxy     :     0.011350

  6 H s       :     0.833853  s :     0.833853
      pz      :     0.010439  p :     0.018303
      px      :     0.003528
      py      :     0.004336

  7 H s       :     0.817174  s :     0.817174
      pz      :     0.005788  p :     0.018375
      px      :     0.003513
      py      :     0.009074

  8 H s       :     0.835897  s :     0.835897
      pz      :     0.003893  p :     0.018321
      px      :     0.008733
      py      :     0.005695

  9 H s       :     0.819191  s :     0.819191
      pz      :     0.010166  p :     0.018197
      px      :     0.003543
      py      :     0.004488

 10 H s       :     0.820557  s :     0.820557
      pz      :     0.006058  p :     0.018006
      px      :     0.003355
      py      :     0.008592

 11 H s       :     0.805187  s :     0.805187
      pz      :     0.005010  p :     0.018306
      px      :     0.002729
      py      :     0.010566

 12 H s       :     0.833108  s :     0.833108
      pz      :     0.010252  p :     0.017611
      px      :     0.003728
      py      :     0.003631

 13 H s       :     0.834237  s :     0.834237
      pz      :     0.005967  p :     0.017676
      px      :     0.005786
      py      :     0.005923


------------------------
MULLIKEN OVERLAP CHARGES
------------------------
B(  0-C ,  1-C ) :   0.4606 B(  0-C ,  2-C ) :  -0.1488 B(  0-C ,  3-O ) :   0.0731 
B(  0-C ,  6-H ) :   0.8344 B(  0-C ,  7-H ) :   0.8269 B(  0-C ,  8-H ) :   0.8211 
B(  0-C ,  9-H ) :  -0.0555 B(  0-C , 10-H ) :  -0.0622 B(  1-C ,  2-C ) :   0.5590 
B(  1-C ,  3-O ) :  -0.2314 B(  1-C ,  4-O ) :  -0.1424 B(  1-C ,  6-H ) :  -0.0705 
B(  1-C ,  8-H ) :  -0.1002 B(  1-C ,  9-H ) :   0.7633 B(  1-C , 10-H ) :   0.8387 
B(  2-C ,  3-O ) :   0.9987 B(  2-C ,  4-O ) :   0.4560 B(  2-C ,  5-C ) :  -0.2133 
B(  2-C , 10-H ) :  -0.0863 B(  3-O ,  4-O ) :  -0.2234 B(  4-O ,  5-C ) :   0.3464 
B(  4-O , 11-H ) :  -0.0583 B(  4-O , 12-H ) :  -0.0717 B(  4-O , 13-H ) :  -0.0870 
B(  5-C , 11-H ) :   0.8466 B(  5-C , 12-H ) :   0.7963 B(  5-C , 13-H ) :   0.7983 
B( 11-H , 12-H ) :  -0.0526 


                     *******************************
                     * LOEWDIN POPULATION ANALYSIS *
                     *******************************

----------------------
LOEWDIN ATOMIC CHARGES
----------------------
   0 C :   -0.401742
   1 C :   -0.240271
   2 C :    0.358859
   3 O :   -0.424430
   4 O :   -0.607777
   5 C :   -0.049052
   6 H :    0.157214
   7 H :    0.165851
   8 H :    0.150777
   9 H :    0.180332
  10 H :    0.177616
  11 H :    0.187341
  12 H :    0.170886
  13 H :    0.174395

-------------------------------
LOEWDIN REDUCED ORBITAL CHARGES
-------------------------------
  0 C s       :     2.968122  s :     2.968122
      pz      :     1.158272  p :     3.371217
      px      :     1.079105
      py      :     1.133840
      dz2     :     0.016280  d :     0.062403
      dxz     :     0.004726
      dyz     :     0.012874
      dx2y2   :     0.011114
      dxy     :     0.017410

  1 C s       :     2.923721  s :     2.923721
      pz      :     1.134113  p :     3.242037
      px      :     1.022386
      py      :     1.085539
      dz2     :     0.016456  d :     0.074513
      dxz     :     0.006612
      dyz     :     0.014789
      dx2y2   :     0.014758
      dxy     :     0.021899

  2 C s       :     2.738118  s :     2.738118
      pz      :     0.709865  p :     2.630819
      px      :     0.923868
      py      :     0.997086
      dz2     :     0.017567  d :     0.272203
      dxz     :     0.017778
      dyz     :     0.046857
      dx2y2   :     0.066038
      dxy     :     0.123963

  3 O s       :     3.540436  s :     3.540436
      pz      :     1.429895  p :     4.659063
      px      :     1.741037
      py      :     1.488131
      dz2     :     0.029064  d :     0.224931
      dxz     :     0.007104
      dyz     :     0.042679
      dx2y2   :     0.073180
      dxy     :     0.072904

  4 O s       :     3.473192  s :     3.473192
      pz      :     1.722040  p :     4.671070
      px      :     1.314097
      py      :     1.634933
      dz2     :     0.050286  d :     0.463515
      dxz     :     0.099781
      dyz     :     0.038724
      dx2y2   :     0.143792
      dxy     :     0.130932

  5 C s       :     2.904286  s :     2.904286
      pz      :     1.111126  p :     3.038805
      px      :     0.868901
      py      :     1.058778
      dz2     :     0.015300  d :     0.105960
      dxz     :     0.025332
      dyz     :     0.013775
      dx2y2   :     0.023732
      dxy     :     0.027821

  6 H s       :     0.799503  s :     0.799503
      pz      :     0.026000  p :     0.043283
      px      :     0.007621
      py      :     0.009662

  7 H s       :     0.790011  s :     0.790011
      pz      :     0.014042  p :     0.044138
      px      :     0.007576
      py      :     0.022521

  8 H s       :     0.805708  s :     0.805708
      pz      :     0.008698  p :     0.043515
      px      :     0.020908
      py      :     0.013909

  9 H s       :     0.775524  s :     0.775524
      pz      :     0.025447  p :     0.044144
      px      :     0.008264
      py      :     0.010434

 10 H s       :     0.778410  s :     0.778410
      pz      :     0.014879  p :     0.043973
      px      :     0.007800
      py      :     0.021294

 11 H s       :     0.769028  s :     0.769028
      pz      :     0.011602  p :     0.043631
      px      :     0.006778
      py      :     0.025251

 12 H s       :     0.788646  s :     0.788646
      pz      :     0.024877  p :     0.040468
      px      :     0.007693
      py      :     0.007899

 13 H s       :     0.785555  s :     0.785555
      pz      :     0.013548  p :     0.040050
      px      :     0.011618
      py      :     0.014884


---------------------------------
LOEWDIN BOND ORDERS (THRESH 0.050000)
---------------------------------
B(  0-C ,  1-C ) :   1.1295 B(  0-C ,  2-C ) :   0.0707 B(  0-C ,  6-H ) :   0.9266 
B(  0-C ,  7-H ) :   0.9185 B(  0-C ,  8-H ) :   0.9277 B(  1-C ,  2-C ) :   0.9221 
B(  1-C ,  3-O ) :   0.1792 B(  1-C ,  4-O ) :   0.1867 B(  1-C ,  9-H ) :   0.8651 
B(  1-C , 10-H ) :   0.8687 B(  2-C ,  3-O ) :   2.2029 B(  2-C ,  4-O ) :   1.4291 
B(  2-C ,  5-C ) :   0.0881 B(  3-O ,  4-O ) :   0.4560 B(  3-O ,  5-C ) :   0.0738 
B(  4-O ,  5-C ) :   1.3662 B(  4-O , 11-H ) :   0.0973 B(  4-O , 12-H ) :   0.1014 
B(  4-O , 13-H ) :   0.1005 B(  5-C , 11-H ) :   0.8435 B(  5-C , 12-H ) :   0.8641 
B(  5-C , 13-H ) :   0.8662 

------------------------------------------
LOEWDIN REDUCED ORBITAL POPULATIONS PER MO
-------------------------------------------
THRESHOLD FOR PRINTING IS 0.1%%
                      0         1         2         3         4         5   
                 -18.99795 -18.93438 -10.15427 -10.08395 -10.04604 -10.02310
                   2.00000   2.00000   2.00000   2.00000   2.00000   2.00000
                  --------  --------  --------  --------  --------  --------
 0 C  s               0.0       0.0       0.0       0.0       0.0      99.7
 1 C  s               0.0       0.0       0.0       0.0      99.7       0.0
 2 C  s               0.0       0.0      98.9       0.0       0.0       0.0
 3 O  s               0.0      99.9       0.0       0.0       0.0       0.0
 3 O  py              0.0       0.0       0.2       0.0       0.0       0.0
 3 O  dx2y2           0.0       0.0       0.3       0.0       0.0       0.0
 4 O  s              99.9       0.0       0.0       0.0       0.0       0.0
 4 O  dxy             0.0       0.0       0.2       0.1       0.0       0.0
 5 C  s               0.0       0.0       0.0      99.4       0.0       0.0

                      6         7         8         9        10        11   
                  -1.07325  -0.98466  -0.75805  -0.69543  -0.60882  -0.52852
                   2.00000   2.00000   2.00000   2.00000   2.00000   2.00000
                  --------  --------  --------  --------  --------  --------
 0 C  s               0.1       0.1      15.9      11.1      19.2       1.4
 0 C  pz              0.0       0.0       0.2       0.0       0.3       0.4
 0 C  px              0.2       0.2       2.2       0.1       3.7       1.3
 0 C  py              0.0       0.0       0.8       0.1       1.0       1.0
 1 C  s               1.0       0.2      28.7       2.2       7.6       2.9
 1 C  pz              0.0       0.0       0.1       0.0       0.6       0.5
 1 C  px              1.6       0.0       0.2       5.0       7.8       0.6
 1 C  py              0.4       0.5       0.5       0.3       1.4       1.8
 1 C  dxy             0.0       0.0       0.0       0.1       0.2       0.0
 2 C  s              16.8       3.4       4.0       2.2       1.8       3.6
 2 C  pz              0.0       0.0       0.0       0.0       0.2       0.2
 2 C  px              4.5       2.8       6.1       1.7       4.6       3.1
 2 C  py              0.2      20.7       6.8       2.6       1.6       1.5
 2 C  dz2             0.6       0.1       0.0       0.0       0.0       0.0
 2 C  dx2y2           0.1       1.5       0.1       0.0       0.0       0.0
 2 C  dxy             0.4       0.3       0.0       0.2       0.3       0.0
 3 O  s              14.4      39.5       1.8       0.3       0.4       2.5
 3 O  px              0.0       0.1       0.3       0.0       0.2       1.1
 3 O  py              3.4       3.5       0.6       0.2       0.4       2.6
 3 O  dz2             0.5       0.0       0.2       0.0       0.0       0.2
 3 O  dx2y2           0.7       0.1       0.3       0.6       0.1       0.1
 3 O  dxy             0.3       0.2       0.5       0.0       0.2       0.2
 4 O  s              39.6      19.1       0.1       0.7       2.3       4.6
 4 O  pz              0.0       0.0       0.0       0.1       0.0       0.1
 4 O  px              0.3       0.7       6.7      21.7       0.0      19.5
 4 O  py              2.5       0.4       0.1       0.2       0.2       8.1
 4 O  dz2             0.5       0.1       0.0       0.3       0.6       0.2
 4 O  dx2y2           0.0       0.3       0.4       0.3       1.6       0.0
 4 O  dxy             0.3       0.9       0.2       1.6       0.2       0.2
 5 C  s               4.5       2.2       3.6      23.3       6.6       4.3
 5 C  px              4.9       1.4       0.1       0.4       2.3       6.9
 5 C  py              0.5       0.8       0.1       0.1       0.4      11.5
 5 C  dz2             0.1       0.1       0.0       0.0       0.0       0.2
 5 C  dx2y2           0.2       0.1       0.0       0.0       0.0       0.0
 5 C  dxy             0.2       0.1       0.0       0.0       0.1       0.5
 6 H  s               0.0       0.0       2.2       2.1       6.0       1.1
 6 H  pz              0.0       0.0       0.2       0.2       0.4       0.1
 7 H  s               0.0       0.0       2.2       2.1       5.6       0.7
 7 H  pz              0.0       0.0       0.1       0.1       0.2       0.0
 7 H  py              0.0       0.0       0.1       0.1       0.3       0.0
 8 H  s               0.0       0.0       2.3       2.2       6.5       0.6
 8 H  px              0.0       0.0       0.1       0.1       0.3       0.0
 8 H  py              0.0       0.0       0.0       0.1       0.2       0.0
 9 H  s               0.0       0.0       4.5       0.4       3.1       2.2
 9 H  pz              0.0       0.0       0.4       0.0       0.2       0.1
10 H  s               0.1       0.0       4.6       0.2       2.7       1.5
10 H  pz              0.0       0.0       0.1       0.0       0.1       0.1
10 H  py              0.0       0.0       0.3       0.0       0.1       0.0
11 H  s               0.4       0.1       0.5       4.5       2.2       6.6
11 H  pz              0.0       0.0       0.0       0.1       0.0       0.1
11 H  py              0.0       0.0       0.0       0.3       0.1       0.2
12 H  s               0.3       0.2       0.6       5.1       2.6       3.6
12 H  pz              0.0       0.0       0.0       0.4       0.2       0.2
13 H  s               0.3       0.2       0.7       5.9       2.6       1.1
13 H  pz              0.0       0.0       0.0       0.1       0.1       0.0
13 H  px              0.0       0.0       0.0       0.2       0.0       0.0
13 H  py              0.0       0.0       0.0       0.2       0.1       0.1

                     12        13        14        15        16        17   
                  -0.47215  -0.46091  -0.44226  -0.42053  -0.39901  -0.36404
                   2.00000   2.00000   2.00000   2.00000   2.00000   2.00000
                  --------  --------  --------  --------  --------  --------
 0 C  s               0.0       0.0       0.2       0.0       0.0       0.0
 0 C  pz              0.5       3.3       0.4      14.3       0.0      17.8
 0 C  px              0.6       0.3       1.6       1.1       7.6       1.0
 0 C  py              7.2       0.6       0.1       1.2       7.5       0.5
 0 C  dz2             0.0       0.0       0.0       0.0       0.0       0.2
 1 C  s               2.0       0.1       0.3       0.0       0.2       0.0
 1 C  pz              0.9      12.9       0.2      20.7       0.0       0.0
 1 C  px              6.0       0.0       0.9       0.1       0.7       4.0
 1 C  py             17.0       1.4       1.7       0.9       5.5       0.9
 1 C  dz2             0.2       0.0       0.0       0.0       0.0       0.0
 1 C  dxy             0.2       0.0       0.0       0.0       0.0       0.1
 2 C  s               2.3       0.1       1.3       0.0       0.8       0.0
 2 C  pz              0.1      17.0       0.3       0.3       0.1      13.6
 2 C  px             12.2       0.0       0.1       0.0       1.7       0.1
 2 C  py              0.2       0.0       4.3       0.3       4.5       0.1
 2 C  dxz             0.0       0.0       0.0       0.2       0.0       0.0
 2 C  dyz             0.0       0.0       0.0       0.0       0.0       0.2
 2 C  dx2y2           0.0       0.0       0.4       0.0       0.3       0.0
 2 C  dxy             0.0       0.0       0.2       0.0       0.0       0.1
 3 O  s               1.8       0.5      11.2       0.3       3.2       0.0
 3 O  pz              0.0       7.0       0.4       0.2       0.2      19.4
 3 O  px              9.3       0.0       0.1       0.0       0.4       0.2
 3 O  py              3.9       1.0      26.0       1.2      20.1       0.0
 3 O  dz2             0.0       0.0       0.2       0.0       0.2       0.0
 3 O  dxz             0.0       0.0       0.0       0.2       0.0       0.0
 3 O  dyz             0.0       1.1       0.0       0.0       0.0       0.7
 3 O  dx2y2           0.2       0.0       0.2       0.0       0.4       0.0
 3 O  dxy             1.2       0.0       0.0       0.0       0.1       0.0
 4 O  s               0.5       0.0       1.5       0.1       0.0       0.1
 4 O  pz              0.3      23.3       1.8       6.8       0.0       1.6
 4 O  px              0.7       0.4       7.2       1.1       0.5       0.9
 4 O  py              6.7       0.2      16.8       0.2       2.0       0.2
 4 O  dxz             0.0       0.0       0.0       1.6       0.1       2.5
 4 O  dyz             0.0       0.7       0.1       0.2       0.0       0.0
 4 O  dx2y2           1.3       0.0       0.5       0.0       0.2       0.0
 4 O  dxy             0.6       0.0       0.1       0.0       0.9       0.1
 5 C  s               0.0       0.0       0.6       0.0       0.0       0.0
 5 C  pz              0.2      15.1       1.1      18.7       0.6      11.8
 5 C  px              1.2       0.0      11.6       0.3       7.6       1.5
 5 C  py              6.1       0.0       1.0       0.0      11.8       0.2
 5 C  dz2             0.0       0.0       0.1       0.1       0.0       0.1
 5 C  dxz             0.0       0.0       0.0       0.0       0.0       0.1
 5 C  dyz             0.0       0.0       0.0       0.0       0.1       0.0
 6 H  s               0.7       0.5       0.3       3.6       0.1       8.8
 6 H  pz              0.0       0.0       0.0       0.1       0.0       0.1
 7 H  s               1.1       1.0       0.1       3.4       1.7       1.2
 7 H  py              0.0       0.0       0.0       0.1       0.0       0.1
 8 H  s               1.0       0.1       0.4       0.3       6.1       0.0
 8 H  pz              0.0       0.0       0.0       0.1       0.0       0.1
 8 H  px              0.1       0.0       0.0       0.0       0.1       0.0
 9 H  s               4.7       2.3       0.1       5.7       0.1       0.0
 9 H  pz              0.2       0.0       0.0       0.1       0.0       0.0
10 H  s               4.7       3.6       0.4       4.8       0.7       0.4
10 H  pz              0.2       0.0       0.0       0.0       0.0       0.0
10 H  py              0.0       0.1       0.0       0.2       0.0       0.0
11 H  s               1.4       1.2       0.3       1.6       3.9       2.2
11 H  py              0.0       0.1       0.0       0.1       0.0       0.1
12 H  s               0.0       3.9       2.5       5.6       0.0       7.5
13 H  s               2.0       1.4       2.7       3.1       8.4       0.5
13 H  pz              0.0       0.0       0.1       0.0       0.1       0.1

                     18        19        20        21        22        23   
                  -0.34676  -0.33929  -0.32003  -0.31749  -0.27477  -0.24283
                   2.00000   2.00000   2.00000   2.00000   2.00000   2.00000
                  --------  --------  --------  --------  --------  --------
 0 C  s               0.3       0.2       0.0       0.0       0.0       0.1
 0 C  pz              0.1       0.6      15.4       4.2       0.3       0.1
 0 C  px             30.3       0.3       0.3       3.1       0.0       0.2
 0 C  py              0.1      33.2       3.1       0.2       0.0       0.0
 0 C  dz2             0.0       0.2       0.2       0.1       0.0       0.0
 0 C  dyz             0.0       0.1       0.4       0.1       0.0       0.0
 0 C  dx2y2           0.0       0.3       0.1       0.0       0.0       0.1
 0 C  dxy             0.4       0.0       0.1       0.0       0.0       0.0
 1 C  s               0.4       0.2       0.0       0.1       0.0       0.6
 1 C  pz              0.4       1.7      14.0       4.2       0.2       0.1
 1 C  px             13.8       3.3       0.2       3.4       0.0       3.4
 1 C  py              3.1      11.9       2.2       0.4       0.0       4.4
 1 C  dz2             0.0       0.2       0.2       0.1       0.0       0.0
 1 C  dyz             0.0       0.0       0.5       0.1       0.0       0.0
 1 C  dx2y2           0.0       0.3       0.1       0.0       0.0       0.1
 1 C  dxy             0.4       0.0       0.1       0.1       0.0       0.0
 2 C  s               0.4       0.1       0.1       0.7       0.0       0.3
 2 C  pz              0.7       1.0       1.6       0.0       0.2       0.0
 2 C  px              5.7       1.9       0.1       0.2       0.0       1.2
 2 C  py              0.3       0.5       1.1       4.3       0.0       0.6
 2 C  dxz             0.0       0.0       0.1       0.0       0.5       0.0
 2 C  dyz             0.0       0.1       0.4       0.0       1.6       0.0
 2 C  dx2y2           0.1       0.0       0.1       0.6       0.0       0.0
 2 C  dxy             0.0       0.1       0.0       0.2       0.0       4.3
 3 O  s               0.0       0.1       0.3       0.9       0.0       0.0
 3 O  pz              1.9       2.9       9.7       1.0      28.6       0.1
 3 O  px              3.3       1.9       0.0       0.0       0.0      70.1
 3 O  py              0.2       0.8       2.7       7.5       0.0       0.0
 3 O  dx2y2           0.0       0.0       0.3       0.4       0.0       0.0
 3 O  dxy             0.1       0.2       0.0       0.0       0.0       0.7
 4 O  s               0.1       0.6       0.4       3.8       0.0       0.4
 4 O  pz              0.9       0.2       0.6       0.1      49.7       0.5
 4 O  px              2.0       0.2       0.0       1.3       0.4       1.9
 4 O  py              1.8       1.6       4.6      29.3       0.2       6.6
 4 O  dz2             0.0       0.0       0.0       0.1       0.0       0.3
 4 O  dxz             0.2       0.1       0.0       0.0       0.4       0.0
 4 O  dyz             0.1       0.0       0.1       0.1       0.6       0.0
 4 O  dx2y2           0.0       0.1       0.3       1.9       0.0       0.1
 4 O  dxy             0.4       0.0       0.2       0.2       0.0       0.2
 5 C  s               0.0       0.0       0.0       0.3       0.0       0.2
 5 C  pz              1.1       0.6       0.8       0.0       5.5       0.3
 5 C  px              3.7       0.1       0.0       0.6       0.1       0.7
 5 C  py              5.0       3.0       2.1      10.0       0.0       0.3
 5 C  dxz             0.1       0.0       0.0       0.1       0.8       0.0
 5 C  dyz             0.1       0.0       0.0       0.1       0.2       0.0
 5 C  dx2y2           0.0       0.1       0.1       0.4       0.1       0.1
 5 C  dxy             0.1       0.0       0.0       0.1       0.0       0.0
 6 H  s               0.2       3.2       7.2       3.6       0.2       0.0
 6 H  px              0.2       0.0       0.0       0.0       0.0       0.0
 6 H  py              0.0       0.2       0.1       0.0       0.0       0.0
 7 H  s               0.1      10.2       9.5       0.5       0.0       0.0
 7 H  pz              0.0       0.3       0.0       0.0       0.0       0.0
 7 H  px              0.2       0.0       0.0       0.0       0.0       0.0
 7 H  py              0.0       0.0       0.1       0.0       0.0       0.0
 8 H  s              11.6       5.9       0.4       2.6       0.0       0.1
 8 H  pz              0.0       0.0       0.1       0.0       0.0       0.0
 8 H  px              0.0       0.2       0.0       0.0       0.0       0.0
 8 H  py              0.2       0.0       0.0       0.0       0.0       0.0
 9 H  s               0.1       3.8       7.7       3.5       0.1       0.3
 9 H  px              0.1       0.0       0.0       0.0       0.0       0.1
10 H  s               0.5       3.6       9.4       0.7       0.0       0.8
10 H  pz              0.0       0.2       0.0       0.0       0.0       0.0
10 H  px              0.1       0.0       0.0       0.0       0.0       0.1
11 H  s               1.9       2.2       1.9       5.6       1.8       0.1
12 H  s               0.3       0.2       0.3       0.3       6.3       0.0
12 H  py              0.0       0.0       0.0       0.1       0.0       0.0
13 H  s               6.0       0.4       0.2       2.4       1.4       0.1

                     24        25        26        27        28        29   
                  -0.01430   0.07037   0.09148   0.11765   0.13524   0.15327
                   0.00000   0.00000   0.00000   0.00000   0.00000   0.00000
                  --------  --------  --------  --------  --------  --------
 0 C  s               0.4       2.0      12.4      13.8       8.6       0.6
 0 C  pz              0.1       0.2       0.0       0.1       2.4       2.6
 0 C  px              0.2       2.2       0.5       2.5      11.6       5.8
 0 C  py              0.2       0.9       0.2       0.7       8.3       2.8
 0 C  dxz             0.0       0.1       0.0       0.0       0.3       0.2
 0 C  dyz             0.0       0.0       0.0       0.0       0.1       0.4
 0 C  dx2y2           0.0       0.1       0.0       0.0       0.1       1.0
 0 C  dxy             0.0       0.1       0.1       0.0       1.3       0.1
 1 C  s               0.1      10.7       4.9       4.0      11.2       0.6
 1 C  pz              0.1       0.1       0.3       0.0       2.2       6.1
 1 C  px              0.1       1.4       0.5       4.4       9.5       0.7
 1 C  py              0.0       0.5       1.8       1.4       8.7       8.0
 1 C  dz2             0.3       0.0       0.4       0.1       0.1       0.0
 1 C  dxz             0.8       0.0       0.0       0.0       0.1       0.1
 1 C  dyz             0.9       0.0       0.1       0.1       0.2       0.6
 1 C  dx2y2           0.0       0.0       0.4       0.1       0.2       1.0
 1 C  dxy             0.0       0.0       0.3       0.3       0.9       0.4
 2 C  s               0.0       9.6       4.8       0.1       0.6       3.9
 2 C  pz             40.1       0.0       0.3       0.2       1.3       2.4
 2 C  px              0.3       1.2       0.6       4.2       0.5       0.3
 2 C  py              0.0       0.4       2.4       0.1       2.9       2.0
 2 C  dz2             0.0       1.5       0.3       0.0       0.0       1.1
 2 C  dxz             0.3       0.1       0.0       0.0       0.0       0.1
 2 C  dyz             0.8       0.0       0.0       0.0       0.0       0.0
 2 C  dx2y2           0.0       0.0       1.3       0.0       0.0       0.1
 3 O  s               0.0       1.6       1.3       0.0       0.2       0.6
 3 O  pz             24.2       0.0       0.1       0.2       0.0       0.1
 3 O  px              0.1       0.5       0.5       1.6       0.3       0.0
 3 O  py              0.0       0.2       0.5       0.1       0.1       0.2
 3 O  dz2             0.0       1.5       0.7       0.0       0.0       1.0
 3 O  dxz             0.2       0.0       0.0       0.0       0.1       0.0
 3 O  dyz             7.0       0.0       0.1       0.1       0.1       0.0
 3 O  dx2y2           0.0       0.1       0.0       0.0       0.1       0.8
 3 O  dxy             0.0       0.2       0.3       0.0       0.1       0.2
 4 O  s               0.0       9.0       2.6       0.4       0.1       0.1
 4 O  pz              9.3       0.0       0.0       0.0       0.2       0.5
 4 O  px              0.1       1.5       3.6       0.4       0.7       2.7
 4 O  py              0.0       1.7       1.0       0.8       1.3       0.8
 4 O  dz2             0.1       2.2       3.0       1.6       0.0       0.3
 4 O  dxz             4.3       0.0       0.2       0.0       0.1       0.3
 4 O  dyz             1.1       0.0       0.1       0.1       0.1       0.5
 4 O  dx2y2           0.0       0.3       1.6       0.7       0.7       2.2
 4 O  dxy             0.1       0.1       2.4       0.7       1.5       2.2
 5 C  s               0.0       3.5      11.5      24.4       0.8       0.5
 5 C  pz              0.1       0.0       0.2       0.2       0.4       4.0
 5 C  px              0.0      23.7      14.7       7.2       2.7       2.4
 5 C  py              0.0       7.5       5.0       0.3       0.8      11.8
 5 C  dz2             0.0       0.9       0.3       0.1       0.2       0.0
 5 C  dxz             0.3       0.0       0.0       0.0       0.0       0.2
 5 C  dyz             0.1       0.0       0.0       0.0       0.0       0.1
 5 C  dx2y2           0.0       0.9       0.4       0.0       0.3       0.0
 5 C  dxy             0.0       1.2       0.6       0.0       0.1       0.7
 6 H  s               0.1       0.5       1.1       2.1       1.3       0.8
 6 H  pz              0.0       0.1       0.6       1.0       1.0       0.2
 6 H  px              0.0       0.2       0.0       0.0       0.4       0.0
 6 H  py              0.0       0.0       0.0       0.0       0.3       0.2
 7 H  s               0.0       0.5       1.0       1.5       0.9       3.3
 7 H  pz              0.0       0.2       0.3       0.5       0.1       0.1
 7 H  px              0.0       0.1       0.0       0.0       0.4       0.0
 7 H  py              0.0       0.0       0.3       0.4       0.8       0.5
 8 H  s               0.1       0.2       1.4       1.3       1.3       1.4
 8 H  px              0.0       0.0       0.6       0.5       0.1       1.1
 8 H  py              0.0       0.2       0.3       0.6       0.0       0.0
 9 H  s               4.1       1.5       1.4       0.6       3.2       1.1
 9 H  pz              0.1       0.7       0.6       0.4       2.2       0.3
 9 H  px              0.1       0.0       0.1       0.2       0.6       0.0
 9 H  py              0.1       0.1       0.0       0.0       0.4       0.4
10 H  s               1.8       0.9       2.5       1.1       1.1       5.9
10 H  pz              0.0       0.3       0.7       0.4       0.3       0.4
10 H  px              0.0       0.0       0.1       0.1       0.6       0.3
10 H  py              0.1       0.3       0.2       0.3       0.9       1.3
11 H  s               0.2       0.7       1.2       2.5       1.0       0.6
11 H  pz              0.0       0.1       0.1       0.5       0.1       0.1
11 H  px              0.0       1.0       0.2       0.1       0.1       0.2
11 H  py              0.0       0.0       0.6       0.7       0.2       0.1
12 H  s               0.9       1.4       1.3       5.9       0.5       0.1
12 H  pz              0.0       0.7       0.2       2.2       0.2       0.0
12 H  px              0.0       0.5       0.7       0.1       0.0       0.2
12 H  py              0.0       0.1       0.1       0.0       0.0       0.0
13 H  s               0.1       0.5       1.1       3.6       0.0       5.9
13 H  pz              0.0       0.1       0.1       0.7       0.0       0.7
13 H  px              0.0       0.3       0.9       0.5       0.1       0.7
13 H  py              0.0       0.7       0.0       0.8       0.2       0.8

                     30        31        32        33        34        35   
                   0.15917   0.16358   0.18025   0.18764   0.19196   0.19237
                   0.00000   0.00000   0.00000   0.00000   0.00000   0.00000
                  --------  --------  --------  --------  --------  --------
 0 C  s               1.4       0.0       0.2       0.1       0.8       4.0
 0 C  pz              7.9       0.6       0.3       1.8       5.5       9.1
 0 C  px             10.4       3.4       0.5       6.2       3.3       7.1
 0 C  py              1.5       2.9       3.2       1.5       3.3       1.1
 0 C  dz2             1.3       0.4       0.4       0.1       2.2       0.3
 0 C  dxz             0.0       0.0       0.0       0.1       0.0       1.0
 0 C  dyz             0.3       0.0       0.4       0.1       0.1       0.1
 0 C  dx2y2           0.1       0.2       0.1       0.6       0.4       0.0
 0 C  dxy             0.1       0.4       0.1       0.1       0.0       0.8
 1 C  s               1.2       0.3       0.5       0.3       0.6       1.2
 1 C  pz             10.8       2.2       0.1       0.0       2.1       3.1
 1 C  px              0.0       7.9       0.6       2.0       2.3       6.1
 1 C  py              0.2      30.7       2.9       2.5       0.7       4.4
 1 C  dz2             0.4       2.3       0.1       0.1       0.4       0.0
 1 C  dxz             0.1       0.0       0.0       0.0       0.2       0.0
 1 C  dyz             0.6       0.3       0.3       0.1       0.2       0.6
 1 C  dx2y2           0.1       0.0       0.0       0.2       0.3       0.3
 1 C  dxy             0.0       0.6       0.0       0.3       0.0       0.9
 2 C  s               0.8       3.2       0.8       0.3       0.6       0.7
 2 C  pz             13.2       0.4       1.9       0.1       2.5       9.1
 2 C  px              0.2       1.5       0.6       0.8       0.8       2.3
 2 C  py              0.2       4.3       0.1       3.0       0.5       1.1
 2 C  dz2             0.3       0.0       0.0       0.0       0.0       0.4
 2 C  dxz             0.0       0.0       0.2       0.0       0.0       0.1
 2 C  dx2y2           0.0       0.0       0.0       0.0       0.2       0.6
 2 C  dxy             0.0       0.0       0.0       0.0       0.0       0.4
 3 O  s               0.0       0.5       0.0       0.5       0.2       0.7
 3 O  pz              1.2       0.6       0.0       0.4       0.5       1.3
 3 O  px              0.0       0.6       1.0       0.1       0.2       0.4
 3 O  py              0.1       0.0       0.2       0.3       0.2       0.4
 3 O  dz2             0.7       1.8       0.2       0.0       0.1       0.0
 3 O  dxz             0.4       0.0       4.3       0.5       1.0       0.1
 3 O  dyz             0.1       0.0       0.0       0.0       0.3       0.1
 3 O  dx2y2           0.7       0.4       0.2       0.4       0.0       0.2
 3 O  dxy             0.1       0.7       0.0       0.1       0.0       1.6
 4 O  s               0.1       0.1       0.1       0.2       0.0       0.1
 4 O  pz              0.9       0.4       1.0       0.3       0.1       0.0
 4 O  px              1.1       0.1       0.0       0.2       0.1       0.1
 4 O  py              0.0       0.1       0.6       1.0       0.0       0.6
 4 O  dz2             0.1       2.3       4.5       0.6       0.3       0.1
 4 O  dxz             0.5       0.1       2.0       0.1       0.2       0.4
 4 O  dyz             0.0       0.7       0.7       4.3       0.1       0.3
 4 O  dx2y2           0.4       0.2       0.0       0.0       0.0       0.0
 4 O  dxy             0.1       1.5       1.5       0.1       0.2       0.4
 5 C  s               0.2       1.2       0.0       0.0       0.1       0.2
 5 C  pz              9.7       1.6       8.1      19.6      28.9       2.3
 5 C  px              2.0       1.0       5.4       1.7       4.7       3.0
 5 C  py              3.8       1.7      12.9       5.6       2.0       3.4
 5 C  dz2             0.0       0.1       1.7       0.3       0.0       0.0
 5 C  dxz             0.0       0.0       0.0       1.5       0.0       0.1
 5 C  dyz             0.4       0.2       1.5       1.2       0.5       0.1
 5 C  dx2y2           0.0       0.2       0.5       0.0       0.1       0.0
 5 C  dxy             0.4       0.0       0.3       0.3       0.0       0.0
 6 H  s               4.3       0.5       0.1       0.1      11.1       5.2
 6 H  pz              0.9       0.2       0.1       0.0       2.9       0.7
 6 H  px              0.0       0.1       0.1       0.1       0.0       1.1
 6 H  py              0.0       0.2       0.6       0.1       0.0       0.2
 7 H  s               1.4       0.1       2.3       2.0       0.1       0.2
 7 H  pz              0.0       0.4       0.8       0.2       0.6       0.5
 7 H  px              0.1       0.2       0.0       0.0       0.0       0.2
 7 H  py              1.1       0.1       0.1       0.3       0.2       0.0
 8 H  s               1.8       3.5       3.1       0.3       2.3       5.4
 8 H  pz              0.1       0.0       0.2       0.0       0.3       1.2
 8 H  px              1.1       0.2       0.3       0.5       1.0       0.6
 8 H  py              0.1       1.2       0.1       0.1       0.0       0.9
 9 H  s               2.6       3.6       0.0       0.1       2.3       0.1
 9 H  pz              0.7       0.9       0.1       0.0       0.4       0.0
 9 H  px              0.0       0.1       0.0       0.0       0.0       0.1
 9 H  py              0.2       1.0       0.3       0.1       0.1       0.2
10 H  s               1.9       1.0       0.9       1.1       0.0       7.3
10 H  pz              0.1       1.2       0.2       0.2       0.0       0.9
10 H  px              0.1       0.4       0.0       0.1       0.0       0.6
10 H  py              0.9       0.7       0.0       0.1       0.1       1.6
11 H  s               1.5       4.2      13.3       2.0       3.5       0.1
11 H  pz              0.5       0.1       0.0       1.2       0.7       0.1
11 H  py              0.3       0.9       1.7       0.0       1.0       0.0
12 H  s               0.5       0.1       9.8       5.8       2.8       0.4
12 H  pz              0.5       0.0       1.2       1.5       1.6       0.0
12 H  px              0.0       0.0       0.0       1.5       0.2       0.2
12 H  py              0.2       0.2       1.4       0.6       0.5       0.1
13 H  s               3.7       0.1       0.3      17.6       1.1       1.2
13 H  pz              0.3       0.2       1.5       1.5       0.2       0.0
13 H  px              0.1       0.0       0.4       2.2       0.0       0.0
13 H  py              0.3       0.2       0.8       1.3       0.0       0.0

                     36        37        38        39        40        41   
                   0.19820   0.20479   0.20994   0.23132   0.23652   0.25960
                   0.00000   0.00000   0.00000   0.00000   0.00000   0.00000
                  --------  --------  --------  --------  --------  --------
 0 C  s               0.1       0.8       0.3       2.7       0.2       0.2
 0 C  pz              2.5      19.2      12.8       0.3      29.7      11.5
 0 C  px              1.0       4.7       1.0       4.1       4.0       9.1
 0 C  py             12.7       3.1      14.3      20.5       9.2       1.3
 0 C  dz2             0.1       0.6       0.4       0.3       0.0       0.0
 0 C  dxz             0.0       0.0       0.0       0.1       0.0       0.1
 0 C  dyz             2.1       1.5       0.0       0.0       0.1       0.0
 0 C  dx2y2           0.9       0.1       0.2       0.0       0.0       0.0
 0 C  dxy             0.3       1.2       0.3       0.2       0.1       0.2
 1 C  s               0.6       1.6       0.9       0.6       0.1       0.0
 1 C  pz              0.7       9.4       0.4       2.0       4.4      23.6
 1 C  px              3.7       7.9       3.0       6.8       0.0       2.0
 1 C  py              0.8       2.9       7.5       9.2       0.2       0.9
 1 C  dz2             0.0       0.0       0.1       0.6       0.2       0.0
 1 C  dxz             0.1       0.5       0.0       0.1       0.0       0.1
 1 C  dyz             0.0       0.0       0.4       0.0       0.4       0.3
 1 C  dx2y2           0.3       0.0       0.4       0.2       0.3       0.4
 1 C  dxy             0.4       0.9       0.2       0.9       0.1       0.0
 2 C  s               3.6       1.4       3.6       1.6       0.4       1.9
 2 C  pz              0.2       1.1       1.7       2.3       0.6       0.5
 2 C  px              0.8       1.9       0.2       0.1       1.0       2.6
 2 C  py              3.7       1.7       2.0       0.3       3.8       6.3
 2 C  dz2             0.2       0.0       0.6       0.3       0.0       1.0
 2 C  dxz             0.0       0.1       0.1       0.1       0.2       0.1
 2 C  dx2y2           0.3       0.0       0.0       0.2       0.6       0.1
 2 C  dxy             0.0       0.1       0.2       0.0       0.0       0.2
 3 O  s               2.7       0.5       0.2       0.1       0.9       0.2
 3 O  pz              0.0       0.3       0.5       0.2       0.1       0.5
 3 O  px              0.3       1.1       0.9       0.1       2.9       2.2
 3 O  py              1.6       1.3       0.8       1.5       0.4       1.5
 3 O  dz2             0.6       0.0       0.0       0.2       0.3       0.1
 3 O  dxz             2.8       0.0       0.8       0.1       1.3       2.0
 3 O  dyz             0.1       0.3       0.0       0.1       0.3       0.2
 3 O  dx2y2           0.5       1.7       1.0       0.2       0.0       1.1
 3 O  dxy             0.0       0.7       1.9       0.0       0.4       0.2
 4 O  s               0.1       0.0       0.4       0.1       0.3       2.6
 4 O  pz              1.2       0.1       0.3       0.1       1.1       0.1
 4 O  px              0.1       0.0       2.5       0.2       0.0       3.3
 4 O  py              0.1       0.0       0.1       1.9       0.1       1.2
 4 O  dz2             0.9       0.0       0.5       0.8       0.0       0.2
 4 O  dxz             0.2       0.1       0.1       0.4       0.3       0.1
 4 O  dyz             0.3       0.6       0.3       0.2       0.5       1.7
[...]
 4 O  dx2y2           0.8       0.0       0.0       0.0       9.4      10.1
 4 O  dxy             0.0       0.0       0.0       0.0       0.4       2.1
 5 C  s               0.0       0.0       0.0       0.0       0.2       1.6
 5 C  pz              1.0       1.0       0.1       0.0       0.0       0.0
 5 C  px              1.5       0.2       0.0       0.0       0.1       6.4
 5 C  py              7.5       1.1       0.1       0.2       0.1       1.1
 5 C  dz2             1.5       1.1       0.1       0.0       0.1       3.9
 5 C  dxz             0.3       0.1       0.1       0.0       0.0       0.2
 5 C  dyz            12.1       2.2       0.1       0.2       0.2       0.1
 5 C  dx2y2           4.4       1.1       0.0       0.0       1.3       2.7
 5 C  dxy             0.1       0.1       0.0       0.0       1.0       6.0
 6 H  s               0.0       0.8       6.7       0.3       0.0       0.0
 6 H  pz              0.1       1.5      17.7       0.5       0.0       0.0
 6 H  px              0.2       0.6       0.0       0.0       0.0       0.0
 6 H  py              0.1       0.0       0.6       0.4       0.1       0.0
 7 H  s               1.2       0.0       0.1       5.0       0.1       0.0
 7 H  pz              0.8       0.0       0.9       4.5       0.2       0.0
 7 H  px              0.1       0.2       0.0       0.3       0.0       0.0
 7 H  py              1.6       0.1       0.0       8.1       0.2       0.0
 8 H  s               2.2       6.0       1.7       1.3       0.1       0.0
 8 H  pz              0.5       0.5       0.0       0.0       0.0       0.0
 8 H  px              3.8       8.5       3.2       2.1       0.4       0.0
 8 H  py              1.7       6.6       0.4       0.6       0.1       0.0
 9 H  s               0.1       0.5       3.2       3.0       0.1       0.0
 9 H  pz              0.2       2.3       9.2       5.4       0.2       0.0
 9 H  px              0.0       0.1       0.2       0.0       0.0       0.0
 9 H  py              0.2       0.2       0.7       1.3       0.0       0.0
10 H  s               0.4       1.8       0.2       5.9       0.4       0.0
10 H  pz              0.5       4.3       0.8       3.9       0.4       0.0
10 H  px              0.0       0.0       0.1       0.2       0.1       0.0
10 H  py              0.5       1.7       0.3      10.4       0.6       0.0
11 H  s               7.7       1.7       0.0       0.1       0.2       0.1
11 H  pz              3.7       0.6       0.0       0.0       0.1       0.1
11 H  px              0.1       0.0       0.0       0.0       1.0       0.2
11 H  py             15.2       3.4       0.0       0.1       0.2       0.1
12 H  s               0.9       0.8       0.1       0.0       0.0       0.4
12 H  pz              2.0       1.6       0.1       0.0       0.0       1.0
12 H  px              0.1       0.1       0.0       0.0       0.0       0.0
12 H  py              0.4       0.1       0.0       0.0       0.1       0.0
13 H  s               2.7       0.1       0.1       0.1       0.2       0.3
13 H  pz              2.6       0.2       0.1       0.0       0.2       0.2
13 H  px              2.1       0.1       0.1       0.0       0.0       0.0
13 H  py              1.3       0.0       0.1       0.0       0.3       0.7

                    156       157       158       159       160       161   
                   4.28256   4.44188  21.92420  21.96860  22.00372  22.24146
                   0.00000   0.00000   0.00000   0.00000   0.00000   0.00000
                  --------  --------  --------  --------  --------  --------
 0 C  s               0.0       0.0      72.9      12.0      14.7       0.0
 1 C  s               0.1       0.0      26.0      24.0      48.1       1.5
 1 C  px              0.1       0.0       0.0       0.0       0.0       0.0
 1 C  dz2             0.0       0.1       0.0       0.0       0.0       0.0
 1 C  dxy             0.3       0.0       0.0       0.0       0.0       0.0
 2 C  s               2.3       5.8       0.2       0.1       2.5      96.2
 2 C  px              4.8       0.0       0.0       0.0       0.0       0.0
 2 C  py              1.9       8.0       0.0       0.0       0.0       0.1
 2 C  dz2             1.6       1.6       0.0       0.0       0.0       0.0
 2 C  dxz             0.1       0.0       0.0       0.0       0.0       0.0
 2 C  dx2y2           0.7       4.6       0.0       0.0       0.0       0.0
 2 C  dxy            10.7       0.0       0.0       0.0       0.0       0.0
 3 O  s               0.4      18.5       0.0       0.0       0.0       0.2
 3 O  px              0.3       0.1       0.0       0.0       0.0       0.0
 3 O  py              0.4      22.0       0.0       0.0       0.0       0.2
 3 O  dz2             0.5       8.3       0.0       0.0       0.0       0.0
 3 O  dx2y2           0.0      26.1       0.0       0.0       0.0       0.0
 3 O  dxy             2.2       0.1       0.0       0.0       0.0       0.0
 4 O  s               4.8       0.7       0.0       0.0       0.1       0.1
 4 O  pz              0.2       0.0       0.0       0.0       0.0       0.0
 4 O  px             28.4       0.5       0.0       0.0       0.0       0.1
 4 O  py              2.0       0.2       0.0       0.0       0.0       0.0
 4 O  dz2             2.1       0.6       0.0       0.0       0.0       0.0
 4 O  dxz             0.1       0.0       0.0       0.0       0.0       0.0
 4 O  dyz             0.2       0.0       0.0       0.0       0.0       0.0
 4 O  dx2y2           0.4       0.5       0.0       0.0       0.0       0.0
 4 O  dxy            27.8       0.7       0.0       0.0       0.0       0.0
 5 C  s               0.7       0.2       0.3      63.6      34.3       1.4
 5 C  px              1.7       0.3       0.0       0.0       0.0       0.0
 5 C  py              0.6       0.0       0.0       0.0       0.0       0.0
 5 C  dz2             0.5       0.1       0.0       0.0       0.0       0.0
 5 C  dx2y2           1.2       0.1       0.0       0.0       0.0       0.0
 5 C  dxy             1.7       0.4       0.0       0.0       0.0       0.0
11 H  s               0.1       0.0       0.0       0.0       0.0       0.0
11 H  px              0.1       0.0       0.0       0.0       0.0       0.0
13 H  py              0.1       0.0       0.0       0.0       0.0       0.0

                    162       163   
                  43.63267  43.70429
                   0.00000   0.00000
                  --------  --------
 3 O  s              73.6      26.3
 4 O  s              26.3      73.6


                      *****************************
                      * MAYER POPULATION ANALYSIS *
                      *****************************

  NA   - Mulliken gross atomic population
  ZA   - Total nuclear charge
  QA   - Mulliken gross atomic charge
  VA   - Mayer's total valence
  BVA  - Mayer's bonded valence
  FA   - Mayer's free valence

  ATOM       NA         ZA         QA         VA         BVA        FA
  0 C      6.4594     6.0000    -0.4594     3.8519     3.8519    -0.0000
  1 C      6.2644     6.0000    -0.2644     3.7530     3.7530     0.0000
  2 C      5.6179     6.0000     0.3821     3.8411     3.8411     0.0000
  3 O      8.4253     8.0000    -0.4253     1.9515     1.9515    -0.0000
  4 O      8.1879     8.0000    -0.1879     1.9371     1.9371     0.0000
  5 C      6.3011     6.0000    -0.3011     3.7708     3.7708    -0.0000
  6 H      0.8522     1.0000     0.1478     0.9642     0.9642    -0.0000
  7 H      0.8355     1.0000     0.1645     0.9601     0.9601     0.0000
  8 H      0.8542     1.0000     0.1458     0.9611     0.9611    -0.0000
  9 H      0.8374     1.0000     0.1626     0.9583     0.9583     0.0000
 10 H      0.8386     1.0000     0.1614     0.9614     0.9614     0.0000
 11 H      0.8235     1.0000     0.1765     0.9586     0.9586    -0.0000
 12 H      0.8507     1.0000     0.1493     0.9569     0.9569    -0.0000
 13 H      0.8519     1.0000     0.1481     0.9572     0.9572    -0.0000

  Mayer bond orders larger than 0.100000
B(  0-C ,  1-C ) :   0.9248 B(  0-C ,  6-H ) :   0.9774 B(  0-C ,  7-H ) :   0.9693 
B(  0-C ,  8-H ) :   0.9725 B(  1-C ,  2-C ) :   0.9939 B(  1-C ,  9-H ) :   0.9266 
B(  1-C , 10-H ) :   0.9626 B(  2-C ,  3-O ) :   1.8419 B(  2-C ,  4-O ) :   1.0602 
B(  4-O ,  5-C ) :   0.8485 B(  5-C , 11-H ) :   0.9673 B(  5-C , 12-H ) :   0.9600 
B(  5-C , 13-H ) :   0.9703 

-------
TIMINGS
-------

Total SCF time: 0 days 0 hours 0 min 13 sec 

Total time                  ....      13.377 sec
Sum of individual times     ....      13.332 sec  ( 99.7%)

SCF preparation             ....       0.049 sec  (  0.4%)
Fock matrix formation       ....      12.602 sec  ( 94.2%)
  Startup                   ....       0.002 sec  (  0.0% of F)
  Split-RI-J                ....       2.426 sec  ( 19.3% of F)
  XC integration            ....      10.136 sec  ( 80.4% of F)
    XC Preparation          ....       0.000 sec  (  0.0% of XC)
    Basis function eval.    ....       1.983 sec  ( 19.6% of XC)
    Density eval.           ....       3.404 sec  ( 33.6% of XC)
    XC-Functional eval.     ....       1.453 sec  ( 14.3% of XC)
    XC-Potential eval.      ....       3.008 sec  ( 29.7% of XC)
Diagonalization             ....       0.000 sec  (  0.0%)
Density matrix formation    ....       0.496 sec  (  3.7%)
Total Energy calculation    ....       0.001 sec  (  0.0%)
Population analysis         ....       0.105 sec  (  0.8%)
Orbital Transformation      ....       0.016 sec  (  0.1%)
Orbital Orthonormalization  ....       0.000 sec  (  0.0%)
DIIS solution               ....       0.059 sec  (  0.4%)
  MO trafo                  ....       0.000 sec  (  0.0 % of DIIS)
  Orb grad                  ....       0.000 sec  (  0.0 % of DIIS)
  Energy W gradient         ....       0.000 sec  (  0.0 % of DIIS)
  DIIS error                ....       0.008 sec  ( 14.2 % of DIIS)
  DIIS work                 ....       0.044 sec  ( 75.8 % of DIIS)
  Form Q                    ....       0.000 sec  (  0.0 % of DIIS)
  Form QpQm                 ....       0.000 sec  (  0.0 % of DIIS)
  Exp/Cayley                ....       0.000 sec  (  0.0 % of DIIS)
  Orb update                ....       0.000 sec  (  0.0 % of DIIS)
  Wake-sleep                ....       0.001 sec  (  1.2 % of DIIS)
SOSCF solution              ....       0.004 sec  (  0.0%)
  MO trafo                  ....       0.004 sec  ( 99.2 % of SOSCF)
  Orb grad                  ....       0.000 sec  (  0.0 % of SOSCF)
  Rot update                ....       0.000 sec  (  0.0 % of SOSCF)
  Step                      ....       0.000 sec  (  0.0 % of SOSCF)
Finished LeanSCF after  13.4 sec

Maximum memory used throughout the entire LEANSCF-calculation: 17.1 MB


-------------------------------------------------------------------------------
                          DFT DISPERSION CORRECTION                            
                                                                               
                                DFTD4 V3.4.0                                   
-------------------------------------------------------------------------------
The R2SCAN3C composite method is recognized
Using three-body term ABC
Active option DFTDOPT                   ...         5   

-------------------------   ----------------
Dispersion correction           -0.002946967
-------------------------   ----------------

------------------   -----------------
gCP correction             0.009474740
------------------   -----------------

-------------------------   --------------------
FINAL SINGLE POINT ENERGY      -307.632604957502
-------------------------   --------------------


------------------------------------------------------------------------------
                              ORCA PROPERTY CALCULATIONS
------------------------------------------------------------------------------

GBWName                                 ... sp.gbw
Number of atoms                         ...     14
Number of basis functions               ...    164
Max core memory                         ...   1024 MB

Electric properties:
Dipole moment                           ... YES
Quadrupole moment                       ...  NO
Static polarizability (Dipole/Dipole)   ...  NO
Static polarizability (Dipole/Quad.)    ...  NO
Static polarizability (Quad./Quad.)     ...  NO
Static polarizability (Velocity)        ...  NO

Atomic electric properties:
Dipole moment                           ...  NO
Quadrupole moment                       ...  NO
Static polarizability                   ...  NO

Choice of electric origin               ... Center of mass
Position of electric origin             ...    -0.000016     0.000009    -0.000001

General magnetic properties:
Magnetizability                         ...  NO

EPR properties:
g-Tensor (aka g-matrix)                 ...  NO
Zero-Field splitting spin-orbit         ...  NO
Zero-field splitting spin-spin          ...  NO
Hyperfine couplings                     ...  NO (   0 nuclei)
Quadrupole couplings                    ...  NO (   0 nuclei)
Contact density                         ...  NO (   0 nuclei)

NMR properties:
Chemical shifts                         ...  NO (   0 nuclei)
Spin-rotation constants                 ...  NO (   0 nuclei)
Spin-spin couplings                     ...  NO (   0 nuclei,    0 pairs)

Choice of magnetic origin               ... GIAO
Position of magnetic origin             ...     0.000000     0.000000     0.000000

Properties with geometric perturbations:
SCF Hessian                             ...  NO
IR spectrum                             ...  NO
VCD spectrum                            ...  NO
X-ray spectroscopy properties:
SCF XES/XAS/RIXS spectra                ...  NO


-------------
DIPOLE MOMENT
-------------

Method             : SCF
Type of density    : Electron Density
Multiplicity       :   1
Irrep              :   0
Energy             :  -307.6391327302391687 Eh
Relativity type    : 
Basis              : AO
                                X                 Y                 Z
Electronic contribution:      2.716233913      -0.892542057       0.409346029
Nuclear contribution   :     -2.516354923       1.556469622      -0.423585233
                        -----------------------------------------
Total Dipole Moment    :      0.199878990       0.663927565      -0.014239205
                        -----------------------------------------
Magnitude (a.u.)       :      0.693508599
Magnitude (Debye)      :      1.762758769



--------------------
Rotational spectrum 
--------------------
 
Rotational constants in cm-1:             0.312095             0.072045             0.061155 
Rotational constants in MHz :          9356.370569          2159.856606          1833.380473 

Dipole components along the rotational axes: 
x,y,z [a.u.] :     0.198667     0.664337    -0.011922 
x,y,z [Debye]:     0.504971     1.688610    -0.030304 

 

Dipole moment calculation done in   0.0 sec 

Maximum memory used throughout the entire PROP-calculation: 9.8 MB

--------------------------------
SUGGESTED CITATIONS FOR THIS RUN
--------------------------------

Below you find a list of papers that are relevant to this ORCA run
We neither can nor want to force you to cite these papers, but we appreciate if you do
You receive ORCA, which is the product of decades of hard work by many enthusiastic individuals, for free
The only thing we kindly ask in return is that you cite our papers,
We deeply appreciate it, if you show your appreciation for ORCA by not just citing the generic ORCA reference.

Please note that relegating all ORCA citations to the supporting information does *not* help us.
SI sections are not indexed - citations you put there will not count into any citation statistics
But we need these citations in order to attract the funding resources that allow us to do what we are doing

Therefore, if you are a happy ORCA user, please consider citing a few of the papers listed below in the main body of your paper

In addition to the list printed below, the program has created the file sp.bibtex that contains the list in bibtex format
You can import this file easily into all common literature databanks and citation aid programs


List of essential papers. We consider these as the minimum necessary citations

  1. Neese,F.
     Software update: the ORCA program system, version 5.0
     WIRES Comput. Molec. Sci., 2022 12(1)e1606
     doi.org/10.1002/wcms.1606
  2. Grimme,S.; Hansen,A.; Ehlert,S.; Mewes,J.
     r2SCAN-3c: A 'Swiss army knife' composite electronic-structure method
     J. Chem. Phys., 2021 154 064103
     doi.org/10.1063/5.0040021

List of papers to cite with high priority. The work reported in these papers was absolutely
necessary for this run to complete.
Our perspective: the developers of density functionals and basis sets usually get cited in chemistry papers
Good! But without the algorithms to do something with them, the functionals or basis sets would not do anything.
Hence, in our opinion, the algorithm design and method developments papers are equally worthy of getting cited

  1. Neese,F.
     An improvement of the resolution of the identity approximation for the formation of the Coulomb matrix
     J. Comp. Chem., 2003 24(14)1740-1747
     doi.org/10.1002/jcc.10318
  2. Neese,F.
     The SHARK Integral Generation and Digestion System
     J. Comp. Chem., 2022  1-16
     doi.org/10.1002/jcc.26942
  3. Lehtola,S.; Steigemann,C.; Oliveira,M.; Marques,M.
     Recent developments in Libxc - A comprehensive library of functionals for density functional theory
     Software X, 2018 7 
     doi.org/10.1016/j.softx.2017.11.002
  4. Caldeweyher,E.; Bannwarth,C.; Grimme,S.
     Extension of the D3 dispersion coefficient model
     J. Chem. Phys., 2017 147 034112
     doi.org/10.1063/1.4993215
  5. Caldeweyher,E.; Ehlert,S.; Hansen,A.; Neugebauer,H.; Spicher,S.; Bannwarth,C.; Grimme,S.
     A generally applicable atomic-charge dependent London dispersion correction
     J. Chem. Phys., 2019 150 154122
     doi.org/10.1063/1.5090222
  6. Caldeweyher,E.; Mewes,J.; Ehlert,S.; Grimme,S.
     Extension and evaluation of the D4 London-dispersion model for periodic systems
     Phys. Chem. Chem. Phys., 2020 22(16)8499-8512
     doi.org/10.1039/D0CP00502A
  7. Wittmann,L.; Gordiy,I.; Friede,M.; Helmich-Paris,B.; Grimme,S.; Hansen,A.; Bursch,M.
     Extension of the D3 and D4 London Dispersion Corrections to the full Actinides Series
     Phys. Chem. Chem. Phys., 2024 26(32)21379-21394
     doi.org/https://doi.org/10.1039/D4CP01514B 

List of suggested additional citations. These are papers that are important in the 'surrounding' of 
of this run, or papers that preceded the highly important papers. If you like your results we are grateful for a citation.

  1. Neese,F.
     The ORCA program system
     WIRES Comput. Molec. Sci., 2012 2(1)73-78
     doi.org/10.1002/wcms.81
  2. Neese,F.
     Software update: the ORCA program system, version 4.0
     WIRES Comput. Molec. Sci., 2018 8(1)1-6
     doi.org/10.1002/wcms.1327
  3. Neese,F.; Wennmohs,F.; Becker,U.; Riplinger,C.
     The ORCA quantum chemistry program package
     J. Chem. Phys., 2020 152 Art. No. L224108
     doi.org/10.1063/5.0004608

List of optional additional citations

  1. Neese,F.
     Approximate second-order SCF convergence for spin unrestricted wavefunctions
     Chem. Phys. Lett., 2000 325(1-3)93-98
     doi.org/10.1016/s0009-2614(00)00662-x

Timings for individual modules:

Sum of individual times          ...       14.262 sec (=   0.238 min)
Startup calculation              ...        0.697 sec (=   0.012 min)   4.9 %
SCF iterations                   ...       13.486 sec (=   0.225 min)  94.6 %
Property calculations            ...        0.079 sec (=   0.001 min)   0.6 %
                             ****ORCA TERMINATED NORMALLY****
TOTAL RUN TIME: 0 days 0 hours 0 minutes 14 seconds 429 msec
