
                                 *****************
                                 * O   R   C   A *
                                 *****************

                                            #,                                       
                                            ###                                      
                                            ####                                     
                                            #####                                    
                                            ######                                   
                                           ########,                                 
                                     ,,################,,,,,                         
                               ,,#################################,,                 
                          ,,##########################################,,             
                       ,#########################################, ''#####,          
                    ,#############################################,,   '####,        
                  ,##################################################,,,,####,       
                ,###########''''           ''''###############################       
              ,#####''   ,,,,##########,,,,          '''####'''          '####       
            ,##' ,,,,###########################,,,                        '##       
           ' ,,###''''                  '''############,,,                           
         ,,##''                                '''############,,,,        ,,,,,,###''
      ,#''                                            '''#######################'''  
     '                                                          ''''####''''         
             ,#######,   #######,   ,#######,      ##                                
            ,#'     '#,  ##    ##  ,#'     '#,    #''#        ,####,   ,####,        
            ##       ##  ##   ,#'  ##            #'  '#       #'       #'  '#        
            ##       ##  #######   ##           ,######,      #####,   #    #        
            '#,     ,#'  ##    ##  '#,     ,#' ,#      #,     #,   #   #,  ,#        
             '#######'   ##     ##  '#######'  #'      '#     '####' # '####'        



                #########################################################
                #                        -***-                          #
                #          Department of theory and spectroscopy        #
                #                                                       #
                #                      Frank Neese                      #
                #                                                       #
                #     Directorship, Architecture, Infrastructure        #
                #                    SHARK, DRIVERS                     #
                #        Core code/Algorithms in most modules           #
                #                                                       #
                #        Max Planck Institute fuer Kohlenforschung      #
                #                Kaiser Wilhelm Platz 1                 #
                #                 D-45470 Muelheim/Ruhr                 #
                #                      Germany                          #
                #                                                       #
                #                  All rights reserved                  #
                #                        -***-                          #
                #########################################################


                         Program Version 6.0.1  -  RELEASE   -


 With contributions from (in alphabetic order):
[Max-Planck-Institut fuer Kohlenforschung]                               
  Daniel Aravena         : Magnetic Suceptibility                        
  Michael Atanasov       : Ab Initio Ligand Field Theory (pilot matlab implementation)
  Alexander A. Auer      : GIAO ZORA, VPT2 properties, NMR spectrum      
  Ute Becker             : All parallelization in ORCA, NUMFREQ, NUMCALC 
  Giovanni Bistoni       : ED, misc. LED, open-shell LED, HFLD           
  Martin Brehm           : Molecular dynamics                            
  Dmytro Bykov           : pre 5.0 version of the SCF Hessian            
  Marcos Casanova-Páez   : Triplet and SCS-CIS(D). UHF-(DLPNO)-IP/EA/STEOM-CCSD. UHF-CVS-IP/STEOM-CCSD   
  Vijay G. Chilkuri      : MRCI spin determinant printing, contributions to CSF-ICE 
  Pauline Colinet        : FMM embedding                                 
  Dipayan Datta          : RHF DLPNO-CCSD density                        
  Achintya Kumar Dutta   : EOM-CC, STEOM-CC                              
  Nicolas Foglia         : Exact transition moments, OPA infrastructure, MCD improvements    
  Dmitry Ganyushin       : Spin-Orbit,Spin-Spin,Magnetic field MRCI      
  Miquel Garcia-Rates    : C-PCM and meta-GGA Hessian, CCSD/C-PCM, Gaussian charge scheme 
  Tiago L. C. Gouveia    : GS-ROHF, GS-ROCIS                             
  Yang Guo               : DLPNO-NEVPT2, F12-NEVPT2, CIM, IAO-localization        
  Andreas Hansen         : Spin unrestricted coupled pair/coupled cluster methods 
  Ingolf Harden          : AUTO-CI MPn and infrastructure                
  Benjamin Helmich-Paris : MC-RPA, TRAH-(SCF,CASSCF), AVAS, COSX integrals, SCF dyn. polar. 
  Lee Huntington         : MR-EOM, pCC                                   
  Robert Izsak           : Overlap fitted RIJCOSX, COSX-SCS-MP3, EOM     
  Riya Kayal             : Wick's Theorem for AUTO-CI, AUTO-CI UHF-CCSDT 
  Emily Kempfer          : AUTO-CI, RHF CISDT and CCSDT                  
  Christian Kollmar      : KDIIS, OOCD, Brueckner-CCSD(T), CCSD density, CASPT2, CASPT2-K, improved NEVPT2 
  Axel Koslowski         : Symmetry handling                             
  Simone Kossmann        : meta-GGA functionals, TD-DFT gradient, OOMP2, (MP2 Hessian; deprecated post 5.0) 
  Lucas Lang             : DCDCAS                                        
  Marvin Lechner         : AUTO-CI (C++ implementation), FIC-MRCC        
  Spencer Leger          : CASSCF response                               
  Dagmar Lenk            : GEPOL surface, SMD, ORCA-2-JSON               
  Dimitrios Liakos       : Extrapolation schemes; Compound Job, initial MDCI parallelization 
  Dimitrios Manganas     : Further ROCIS development; embedding schemes. LFT, Crystal Embedding 
  Dimitrios Pantazis     : SARC Basis sets                               
  Anastasios Papadopoulos: AUTO-CI, single reference methods and gradients 
  Taras Petrenko         : pre 6.0 DFT Hessian and TD-DFT gradient, (ASA, deprecated), ECA, 1-Electron XAS/XES, NRVS 
  Peter Pinski           : DLPNO-MP2, DLPNO-MP2 Gradient                 
  Christoph Reimann      : Effective Core Potentials                     
  Marius Retegan         : Local ZFS, SOC                                
  Christoph Riplinger    : Optimizer, TS searches, QM/MM, DLPNO-CCSD(T), (RO)-DLPNO pert. Triples 
  Michael Roemelt        : Original ROCIS implementation                 
  Masaaki Saitow         : Open-shell DLPNO-CCSD energy and density      
  Barbara Sandhoefer     : DKH picture change effects                    
  Kantharuban Sivalingam : CASSCF convergence/infrastructure, NEVPT2 and variants, FIC-MRCI 
  Bernardo de Souza      : ESD, SOC TD-DFT                               
  Georgi L. Stoychev     : AutoAux, RI-MP2 NMR, DLPNO-MP2 response, X2C  
  Van Anh Tran           : RI-MP2 g-tensors                              
  Willem Van den Heuvel  : Paramagnetic NMR                              
  Zikuan Wang            : NOTCH, Electric field optimization            
  Frank Wennmohs         : Technical directorship and infrastructure     
  Hang Xu                : AUTO-CI-Response properties                   
                                                                         
[FACCTs GmbH]                                                            
  Markus Bursch, Miquel Garcia-Rates, Christoph Riplinger, Bernardo de Souza, Georgi L. Stoychev 
                                                                 
  APM, Basis sets (HGBS, AHGBS, def-TZVP (Ac-Lr), def2-XVPD (La-Lu)), CI-OPT, improved COSX, DLPNO-Multilevel,           
  DOCKER, DRACO, updates on ESD, GOAT, IRC, LR-CPCM, MBIS, meta-GGA TD-DFT gradient, ML-optimized integration grids, 
  MM, NACMEs, nearIR, NEB, NEB-TS, NL-DFT gradient (VV10), 2- and 3-layer-ONIOM, interface openCOSMO-RS, QMMM,   
  Crystal-QMMM, SF, symmetry and pop. for TD-DFT, r2SCAN hybrids, SOLVATOR                                   
                                                                         
[Other institutions]                                                     
  V. Asgeirsson          : NEB                                           
  Christoph Bannwarth    : sTDA-DFT, sTD-DFT, PBEh-3c, B97-3c, D3        
  Sebastian Ehlert       : rSCAN, r2SCAN, r2SCAN-3c, D4, dhf basis sets  
  Marvin Friede          : D4 for Fr, Ra, Ac-Lr                          
  Lars Goerigk           : TD-DFT with DH, B97 family of functionals     
  Stefan Grimme          : VdW corrections, initial TS optimization, DFT functionals, gCP, sTDA/sTD-DF 
  Waldemar Hujo          : DFT-NL                                        
  H. Jonsson             : NEB                                           
  Holger Kruse           : gCP                                           
  Marcel Mueller         : wB97X-3c, vDZP basis set                      
  Hagen Neugebauer       : wr2SCAN                                       
  Tobias Risthaus        : range-separated hybrid DFT                    
  Lukas Wittmann         : regularized MP2, r2SCAN double-hybrids, wr2SCAN        
                                                                         
We gratefully acknowledge several colleagues who have allowed us to      
interface, adapt or use parts of their codes:                            
  Ed Valeev, F. Pavosevic, A. Kumar             : LibInt (2-el integral package), F12 methods 
  Garnet Chan, S. Sharma, J. Yang, R. Olivares  : DMRG                   
  Ulf Ekstrom                                   : XCFun DFT Library      
  Mihaly Kallay                                 : mrcc  (arbitrary order and MRCC methods)
  Frank Weinhold                                : gennbo (NPA and NBO analysis)           
  Simon Mueller                                 : openCOSMO-RS                            
  Christopher J. Cramer and Donald G. Truhlar   : smd solvation model                     
  S Lehtola, MJT Oliveira, MAL Marques          : LibXC Library                           
  Liviu Ungur et al                             : ANISO software                          


 Your calculation uses the libint2 library for the computation of 2-el integrals
 For citations please refer to: http://libint.valeyev.net

 Your ORCA version has been built with support for libXC version: 6.2.2
 For citations please refer to: https://libxc.gitlab.io

 This ORCA versions uses:
   CBLAS   interface :  Fast vector & matrix operations
   LAPACKE interface :  Fast linear algebra routines
   SCALAPACK package :  Parallel linear algebra routines
   Shared memory     :  Shared parallel matrices
   BLAS/LAPACK       :  OpenBLAS 0.3.27  USE64BITINT DYNAMIC_ARCH NO_AFFINITY Zen SINGLE_THREADED
        Core in use  :  Zen
   Copyright (c) 2011-2014, The OpenBLAS Project


Your calculation utilizes the geometrical counterpoise correction gCP
Please cite in your paper:
H.Kruse, S. Grimme J.Chem.Phys., 136, (2012), 154101 
   

Your calculation utilizes the atom-pairwise dispersion correction
based on EEQ partial charges (D4)


================================================================================

----- Orbital basis set information -----
Your calculation utilizes the basis: def2-mTZVPP
   Stefan Grimme, Andreas Hansen, Sebastian Ehlert, and Jan-Michael Mewes 
   J. Chem. Phys. 154, 064103 (2021). DOI: 10.1063/5.0040021

----- AuxJ basis set information -----
Your calculation utilizes the auxiliary basis: def2/J
   F. Weigend, Phys. Chem. Chem. Phys. 8, 1057 (2006).

================================================================================
                                        WARNINGS
                       Please study these warnings very carefully!
================================================================================

WARNING: Old DensityContainer found on disk!
         Will remove this file - 
         If you want to keep old densities, please start your calculation with a different basename. 



WARNING: SCAN, rSCAN, or r2SCAN functional requested.
  ===> : libXC variant has now been activated.



================================================================================
                                       INPUT FILE
================================================================================
NAME = sp.inp
|  1> ! r2scan-3c def2/J RI DEFGRID2 scfconv6 printgap
|  2> %output
|  3>     printlevel normal
|  4> end
|  5> * xyz 0 1
|  6> C -1.2284292733 -0.9861932187 1.2420904435
|  7> C -1.0112560398 -0.1109464982 0.0039560133
|  8> C -1.9472786559 1.0960814013 0.0345366238
|  9> C -1.2436673931 -0.9325038542 -1.2692376544
| 10> C 0.4326886941 0.3800677329 -0.0098669529
| 11> O 0.7739421357 1.5320225556 -0.0605004719
| 12> O 1.2953085703 -0.644207638 0.0396113535
| 13> C 2.6796291401 -0.3282496118 0.020598996
| 14> H -0.5611759793 -1.8437139314 1.2243822226
| 15> H -1.0401764538 -0.4164742346 2.1495785624
| 16> H -2.256004529 -1.3419847214 1.2651769149
| 17> H -1.7728437241 1.6884101401 0.9290781931
| 18> H -2.9831109004 0.7664166611 0.0262560903
| 19> H -1.7719890856 1.7327312912 -0.8286568027
| 20> H -1.0764364709 -0.3207048844 -2.1532434395
| 21> H -0.5686350492 -1.783934016 -1.3008225956
| 22> H -2.2682521692 -1.2968963842 -1.290483953
| 23> H 2.8440072071 0.6634467673 0.4463207415
| 24> H 3.0462167019 -0.3432196759 -1.0078740657
| 25> H 3.1881345898 -1.0896293736 0.6087878633
| 26> *
| 27> 
| 28>                          ****END OF INPUT****
================================================================================

                       ****************************
                       * Single Point Calculation *
                       ****************************

---------------------------------
CARTESIAN COORDINATES (ANGSTROEM)
---------------------------------
  C     -1.228429   -0.986193    1.242090
  C     -1.011256   -0.110946    0.003956
  C     -1.947279    1.096081    0.034537
  C     -1.243667   -0.932504   -1.269238
  C      0.432689    0.380068   -0.009867
  O      0.773942    1.532023   -0.060500
  O      1.295309   -0.644208    0.039611
  C      2.679629   -0.328250    0.020599
  H     -0.561176   -1.843714    1.224382
  H     -1.040176   -0.416474    2.149579
  H     -2.256005   -1.341985    1.265177
  H     -1.772844    1.688410    0.929078
  H     -2.983111    0.766417    0.026256
  H     -1.771989    1.732731   -0.828657
  H     -1.076436   -0.320705   -2.153243
  H     -0.568635   -1.783934   -1.300823
  H     -2.268252   -1.296896   -1.290484
  H      2.844007    0.663447    0.446321
  H      3.046217   -0.343220   -1.007874
  H      3.188135   -1.089629    0.608788

----------------------------
CARTESIAN COORDINATES (A.U.)
----------------------------
  NO LB      ZA    FRAG     MASS         X           Y           Z
   0 C     6.0000    0    12.011   -2.321395   -1.863635    2.347211
   1 C     6.0000    0    12.011   -1.910997   -0.209658    0.007476
   2 C     6.0000    0    12.011   -3.679823    2.071294    0.065265
   3 C     6.0000    0    12.011   -2.350191   -1.762177   -2.398512
   4 C     6.0000    0    12.011    0.817663    0.718224   -0.018646
   5 O     8.0000    0    15.999    1.462539    2.895103   -0.114329
   6 O     8.0000    0    15.999    2.447778   -1.217376    0.074855
   7 C     6.0000    0    12.011    5.063765   -0.620302    0.038926
   8 H     1.0000    0     1.008   -1.060469   -3.484114    2.313747
   9 H     1.0000    0     1.008   -1.965649   -0.787022    4.062115
  10 H     1.0000    0     1.008   -4.263231   -2.535984    2.390838
  11 H     1.0000    0     1.008   -3.350189    3.190633    1.755703
  12 H     1.0000    0     1.008   -5.637263    1.448318    0.049617
  13 H     1.0000    0     1.008   -3.348574    3.274388   -1.565934
  14 H     1.0000    0     1.008   -2.034170   -0.606044   -4.069040
  15 H     1.0000    0     1.008   -1.074565   -3.371147   -2.458198
  16 H     1.0000    0     1.008   -4.286375   -2.450779   -2.438661
  17 H     1.0000    0     1.008    5.374395    1.253733    0.843424
  18 H     1.0000    0     1.008    5.756515   -0.648591   -1.904606
  19 H     1.0000    0     1.008    6.024701   -2.059101    1.150442

--------------------------------
INTERNAL COORDINATES (ANGSTROEM)
--------------------------------
 C      0   0   0     0.000000000000     0.00000000     0.00000000
 C      1   0   0     1.531730362153     0.00000000     0.00000000
 C      2   1   0     1.527740115910   110.38998757     0.00000000
 C      2   1   3     1.532968897862   110.09741199   237.96885214
 C      2   1   3     1.525208983744   108.99647787   119.71187242
 O      5   2   1     1.202504710258   125.27111805   235.81896663
 O      5   2   1     1.340037756577   111.28589431    55.93406822
 C      7   5   2     1.420047317532   117.19168224   179.43160379
 H      1   2   3     1.086684090318   110.52884488   180.19997102
 H      1   2   3     1.087912464695   110.51771503   300.57443193
 H      1   2   3     1.087672508011   109.75639438    60.18744436
 H      3   2   1     1.086961590603   110.40739794    58.99143334
 H      3   2   1     1.087058345680   110.12440800   298.65940267
 H      3   2   1     1.086808358138   110.37153773   178.28684008
 H      4   2   1     1.087993744871   110.49703576   180.85021347
 H      4   2   1     1.087014072698   110.47269645   301.23531215
 H      4   2   1     1.087661383216   109.79087387    61.21077655
 H      8   7   5     1.091659682237   110.10189897    27.62176617
 H      8   7   5     1.091955760060   109.68386458   267.40685071
 H      8   7   5     1.088229331377   107.01453162   148.06617893

---------------------------
INTERNAL COORDINATES (A.U.)
---------------------------
 C      0   0   0     0.000000000000     0.00000000     0.00000000
 C      1   0   0     2.894550895481     0.00000000     0.00000000
 C      2   1   0     2.887010422875   110.38998757     0.00000000
 C      2   1   3     2.896891388778   110.09741199   237.96885214
 C      2   1   3     2.882227276273   108.99647787   119.71187242
 O      5   2   1     2.272404577137   125.27111805   235.81896663
 O      5   2   1     2.532304369045   111.28589431    55.93406822
 C      7   5   2     2.683500527345   117.19168224   179.43160379
 H      1   2   3     2.053535324791   110.52884488   180.19997102
 H      1   2   3     2.055856615952   110.51771503   300.57443193
 H      1   2   3     2.055403163535   109.75639438    60.18744436
 H      3   2   1     2.054059724331   110.40739794    58.99143334
 H      3   2   1     2.054242564928   110.12440800   298.65940267
 H      3   2   1     2.053770156937   110.37153773   178.28684008
 H      4   2   1     2.056010213226   110.49703576   180.85021347
 H      4   2   1     2.054158901118   110.47269645   301.23531215
 H      4   2   1     2.055382140721   109.79087387    61.21077655
 H      8   7   5     2.062937830872   110.10189897    27.62176617
 H      8   7   5     2.063497336871   109.68386458   267.40685071
 H      8   7   5     2.056455407202   107.01453162   148.06617893

---------------------
BASIS SET INFORMATION
---------------------
There are 3 groups of distinct atoms

 Group   1 Type C   : 11s6p1d contracted to 5s3p1d pattern {62111/411/1}
 Group   2 Type O   : 11s6p2d contracted to 5s3p2d pattern {62111/411/11}
 Group   3 Type H   : 4s1p contracted to 2s1p pattern {31/1}

Atom   0C    basis set group =>   1
Atom   1C    basis set group =>   1
Atom   2C    basis set group =>   1
Atom   3C    basis set group =>   1
Atom   4C    basis set group =>   1
Atom   5O    basis set group =>   2
Atom   6O    basis set group =>   2
Atom   7C    basis set group =>   1
Atom   8H    basis set group =>   3
Atom   9H    basis set group =>   3
Atom  10H    basis set group =>   3
Atom  11H    basis set group =>   3
Atom  12H    basis set group =>   3
Atom  13H    basis set group =>   3
Atom  14H    basis set group =>   3
Atom  15H    basis set group =>   3
Atom  16H    basis set group =>   3
Atom  17H    basis set group =>   3
Atom  18H    basis set group =>   3
Atom  19H    basis set group =>   3
---------------------------------
AUXILIARY/J BASIS SET INFORMATION
---------------------------------
There are 3 groups of distinct atoms

 Group   1 Type C   : 12s5p4d2f1g contracted to 6s4p3d1f1g pattern {711111/2111/211/2/1}
 Group   2 Type O   : 12s5p4d2f1g contracted to 6s4p3d1f1g pattern {711111/2111/211/2/1}
 Group   3 Type H   : 5s2p1d contracted to 3s1p1d pattern {311/2/1}

Atom   0C    basis set group =>   1
Atom   1C    basis set group =>   1
Atom   2C    basis set group =>   1
Atom   3C    basis set group =>   1
Atom   4C    basis set group =>   1
Atom   5O    basis set group =>   2
Atom   6O    basis set group =>   2
Atom   7C    basis set group =>   1
Atom   8H    basis set group =>   3
Atom   9H    basis set group =>   3
Atom  10H    basis set group =>   3
Atom  11H    basis set group =>   3
Atom  12H    basis set group =>   3
Atom  13H    basis set group =>   3
Atom  14H    basis set group =>   3
Atom  15H    basis set group =>   3
Atom  16H    basis set group =>   3
Atom  17H    basis set group =>   3
Atom  18H    basis set group =>   3
Atom  19H    basis set group =>   3

Checking for AutoStart:
The File: sp.gbw exists
Trying to determine its content:
     ... Fine, the file contains calculation information
     ... Fine, the calculation information was read
     ... Fine, the file contains a basis set
     ... Fine, the basis set was read
     ... Fine, the file contains a geometry
     ... Fine, the geometry was read
     ... Fine, the file contains a set of orbitals
     ... Fine, the orbitals can be read
     => possible old guess file was deleted
     => GBW file was renamed to GES file
     => GES file is set as startup file
     => Guess is set to MORead
     ... now leaving AutoStart

------------------------------------------------------------------------------
                             ORCA STARTUP CALCULATIONS
                           -- RI-GTO INTEGRALS CHOSEN --
------------------------------------------------------------------------------
------------------------------------------------------------------------------
                   ___                                                        
                  /   \      - P O W E R E D   B Y -                         
                 /     \                                                     
                 |  |  |   _    _      __       _____    __    __             
                 |  |  |  | |  | |    /  \     |  _  \  |  |  /  |          
                  \  \/   | |  | |   /    \    | | | |  |  | /  /          
                 / \  \   | |__| |  /  /\  \   | |_| |  |  |/  /          
                |  |  |   |  __  | /  /__\  \  |    /   |      \           
                |  |  |   | |  | | |   __   |  |    \   |  |\   \          
                \     /   | |  | | |  |  |  |  | |\  \  |  | \   \       
                 \___/    |_|  |_| |__|  |__|  |_| \__\ |__|  \__/        
                                                                              
                      - O R C A' S   B I G   F R I E N D -                    
                                      &                                       
                       - I N T E G R A L  F E E D E R -                       
                                                                              
 v1 FN, 2020, v2 2021, v3 2022-2024                                           
------------------------------------------------------------------------------


----------------------
SHARK INTEGRAL PACKAGE
----------------------

Number of atoms                             ...     20
Number of basis functions                   ...    222
Number of shells                            ...    110
Maximum angular momentum                    ...      2
Integral batch strategy                     ... SHARK/LIBINT Hybrid
RI-J (if used) integral strategy            ... SPLIT-RIJ (Revised 2003 algorithm where possible)
Printlevel                                  ...      1
Contraction scheme used                     ... SEGMENTED contraction
Prescreening option                         ... SCHWARTZ
   Thresh                                   ... 1.000e-10
   Tcut                                     ... 1.000e-11
   Tpresel                                  ... 1.000e-11 
Coulomb Range Separation                    ... NOT USED
Exchange Range Separation                   ... NOT USED
Multipole approximations                    ... NOT USED
Finite Nucleus Model                        ... NOT USED
CABS basis                                  ... NOT available
Auxiliary Coulomb fitting basis             ... AVAILABLE
   # of basis functions in Aux-J            ...    524
   # of shells in Aux-J                     ...    180
   Maximum angular momentum in Aux-J        ...      4
Auxiliary J/K fitting basis                 ... NOT available
Auxiliary Correlation fitting basis         ... NOT available
Auxiliary 'external' fitting basis          ... NOT available

Checking pre-screening integrals            ... done (  0.0 sec) Dimension = 110
Check shell pair data                       ... done (  0.0 sec)
Shell pair information
Shell pair cut-off parameter TPreSel        ...   1.0e-11
Total number of shell pairs                 ...      6105
Shell pairs after pre-screening             ...      5549
Total number of primitive shell pairs       ...     21533
Primitive shell pairs kept                  ...     13953
          la=0 lb=0:   1854 shell pairs
          la=1 lb=0:   2095 shell pairs
          la=1 lb=1:    610 shell pairs
          la=2 lb=0:    596 shell pairs
          la=2 lb=1:    340 shell pairs
          la=2 lb=2:     54 shell pairs

Calculating one electron integrals          ... done (  0.0 sec)
Calculating RI/J V-Matrix + Cholesky decomp.... done (  0.0 sec)
Calculating Nuclear repulsion               ... done (  0.0 sec) ENN=    413.150445055857 Eh

Diagonalization of the overlap matrix:
Smallest eigenvalue                        ... 1.337e-04
Time for diagonalization                   ...    0.004 sec
Threshold for overlap eigenvalues          ... 1.000e-07
Number of eigenvalues below threshold      ... 0
Time for construction of square roots      ...    0.001 sec
Total time needed                          ...    0.007 sec

-------------------
DFT GRID GENERATION
-------------------

General Integration Accuracy     IntAcc      ... 4.388
Radial Grid Type                 RadialGrid  ... OptM3 with GC (2021)
Angular Grid (max. ang.)         AngularGrid ... 4 (Lebedev-302)
Angular grid pruning method      GridPruning ... 4 (adaptive)
Weight generation scheme         WeightScheme... mBecke (2022)
Basis function cutoff            BFCut       ... 1.0000e-10
Integration weight cutoff        WCut        ... 1.0000e-14
Partially contracted basis set               ... off
Rotationally invariant grid construction     ... off
Angular grids for H and He will be reduced by one unit
Diffuse basis detected: some atoms will have their outermost
                        angular grid increased by 1.

Total number of grid points                  ...    87138
Total number of batches                      ...     1372
Average number of points per batch           ...       63
Average number of grid points per atom       ...     4357
Initializing property integral containers    ... done (  0.0 sec)

SHARK setup successfully completed in   0.8 seconds

Maximum memory used throughout the entire STARTUP-calculation: 40.7 MB
-------------------------------------------------------------------------------
                                 ORCA GUESS
                   Start orbitals & Density for SCF / CASSCF
-------------------------------------------------------------------------------

------------
SCF SETTINGS
------------
Hamiltonian:
 Density Functional     Method          .... DFT(GTOs)
  Functional kind                       .... Exchange
  Functional name                       .... Re-regularized SCAN exchange by Furness et al
  Functional family                     .... MGGA
  Functional refs                              
    [ 0] J. W. Furness, A. D. Kaplan, J. Ning, J. P. Perdew, and J. Sun.,  J. Phys. Chem. Lett. 11, 8208-8215 (2020), doi: 10.1021/acs.jpclett.0c02405
    [ 1] J. W. Furness, A. D. Kaplan, J. Ning, J. P. Perdew, and J. Sun.,  J. Phys. Chem. Lett. 11, 9248-9248 (2020), doi: 10.1021/acs.jpclett.0c03077
  Functional external parameters        .... 6
    Parameter  0 _c1        =  6.670000e-01 : c1 parameter        
    Parameter  1 _c2        =  8.000000e-01 : c2 parameter        
    Parameter  2 _d         =  1.240000e+00 : d parameter         
    Parameter  3 _k1        =  6.500000e-02 : k1 parameter        
    Parameter  4 _eta       =  1.000000e-03 : eta parameter       
    Parameter  5 _dp2       =  3.610000e-01 : dp2 parameter       
  Functional kind                       .... Correlation
  Functional name                       .... Re-regularized SCAN correlation by Furness et al
  Functional family                     .... MGGA
  Functional refs                              
    [ 0] J. W. Furness, A. D. Kaplan, J. Ning, J. P. Perdew, and J. Sun.,  J. Phys. Chem. Lett. 11, 8208-8215 (2020), doi: 10.1021/acs.jpclett.0c02405
    [ 1] J. W. Furness, A. D. Kaplan, J. Ning, J. P. Perdew, and J. Sun.,  J. Phys. Chem. Lett. 11, 9248-9248 (2020), doi: 10.1021/acs.jpclett.0c03077
  Functional external parameters        .... 1
    Parameter  0 _eta       =  1.000000e-03 : Regularization parameter
 Gradients option       PostSCFGGA      .... off
 RI-approximation to the Coulomb term is turned on
   Number of AuxJ basis functions       .... 524


General Settings:
 Integral files         IntName         .... sp
 Hartree-Fock type      HFTyp           .... RHF
 Total Charge           Charge          ....    0
 Multiplicity           Mult            ....    1
 Number of Electrons    NEL             ....   64
 Basis Dimension        Dim             ....  222
 Nuclear Repulsion      ENuc            ....    413.1504450559 Eh

Convergence Acceleration:
 AO-DIIS                CNVDIIS         .... on
   Start iteration      DIISMaxIt       ....    12
   Startup error        DIISStart       ....  0.200000
   # of expansion vecs  DIISMaxEq       ....     5
   Bias factor          DIISBfac        ....   1.050
   Max. coefficient     DIISMaxC        ....  10.000
 MO-DIIS                CNVKDIIS        .... off
 Trust-Rad. Augm. Hess. CNVTRAH         .... auto
   Auto Start mean grad. ratio tolernc. ....  1.125000
   Auto Start start iteration           ....     1
   Auto Start num. interpolation iter.  ....    10
   Max. Number of Micro iterations      ....    24
   Max. Number of Macro iterations      .... Maxiter - #DIIS iter
   Number of Davidson start vectors     ....     2
   Converg. threshold    (grad. norm)   ....   3.330e-04
   Grad. Scal. Fac. for Micro threshold ....   0.100
   Minimum threshold for Micro iter.    ....   1.000e-02
   NR start threshold (gradient norm)   ....   1.000e-04
   Initial trust radius                 ....   0.400
   Minimum AH scaling param. (alpha)    ....   1.000
   Maximum AH scaling param. (alpha)    .... 1000.000
   Quad. conv. algorithm                .... NR
   White noise on init. David. guess    .... on
   Maximum white noise                  ....   0.010
   Pseudo random numbers                .... off
   Inactive MOs                         .... canonical
   Orbital update algorithm             .... Taylor
   Preconditioner                       .... Diag
   Full preconditioner red. dimension   ....   250
   COSX micro iterations for RIJONX calc.... off
 SOSCF                  CNVSOSCF        .... on
   Start iteration      SOSCFMaxIt      ....   150
   Startup grad/error   SOSCFStart      ....  0.003300
   Hessian update       SOSCFHessUp     .... L-BFGS
 Level Shifting         CNVShift        .... on
   Level shift para.    LevelShift      ....    0.2500
   Turn off err/grad.   ShiftErr        ....    0.0010
 Zerner damping         CNVZerner       .... off
 Static damping         CNVDamp         .... on
   Fraction old density DampFac         ....    0.7000
   Max. Damping (<1)    DampMax         ....    0.9800
   Min. Damping (>=0)   DampMin         ....    0.0000
   Turn off err/grad.   DampErr         ....    0.1000

SCF Procedure:
 Maximum # iterations   MaxIter         ....   125
 SCF integral mode      SCFMode         .... Direct
   Integral package                     .... SHARK and LIBINT hybrid scheme
 Reset frequency        DirectResetFreq ....    20
 Integral Threshold     Thresh          ....  1.000e-10 Eh
 Primitive CutOff       TCut            ....  1.000e-11 Eh

Convergence Tolerance:
 Convergence Check Mode ConvCheckMode   .... Total+1el-Energy
 Convergence forced     ConvForced      .... 0
 Energy Change          TolE            ....  1.000e-06 Eh
 1-El. energy change                    ....  1.000e-03 Eh
 Orbital Gradient       TolG            ....  3.330e-04
 Orbital Rotation angle TolX            ....  3.330e-04
 DIIS Error             TolErr          ....  1.000e-06

---------------------
INITIAL GUESS: MOREAD
---------------------
Guess MOs are being read from file: sp.ges
Input Geometry matches current geometry (good)
Atom 0: N(Shells)= 9 and 6 - projection required
Input basis set needs projection
NBasis(read)= 136
NBasis(calc)= 222
Basis set overlap was calculated
Using GuessMode=FMatrix for the initial guess
C*T matrix was formed
Effective Fockian was calculated
Effective Fockian was diagonalized
Initial density was built
                      ------------------
                      INITIAL GUESS DONE (   0.0 sec)
                      ------------------
             **** ENERGY FILE WAS UPDATED (sp.en.tmp) ****
Finished Guess after   0.1 sec
Maximum memory used throughout the entire GUESS-calculation: 16.4 MB

-------------------------------------------------------------------------------------------
                                      ORCA LEAN-SCF
                              memory conserving SCF solver
-------------------------------------------------------------------------------------------

----------------------------------------D-I-I-S--------------------------------------------
Iteration    Energy (Eh)           Delta-E    RMSDP     MaxDP     DIISErr   Damp  Time(sec)
-------------------------------------------------------------------------------------------
               ***  Starting incremental Fock matrix formation  ***
    1    -386.0440186441836090     0.00e+00  3.50e-03  1.12e-01  6.27e-01  0.700   2.1
    2    -386.1025304343616540    -5.85e-02  2.84e-03  7.92e-02  4.41e-01  0.700   1.9
    3    -386.1438793766346294    -4.13e-02  2.08e-03  5.56e-02  3.09e-01  0.700   1.8
    4    -386.1729062019782646    -2.90e-02  1.49e-03  3.91e-02  2.16e-01  0.700   1.9
                               ***Turning on AO-DIIS***
    5    -386.1932652456267192    -2.04e-02  1.08e-03  2.80e-02  1.52e-01  0.700   1.7
    6    -386.2075355012449904    -1.43e-02  7.70e-04  1.97e-02  1.06e-01  0.700   1.7
    7    -386.2175386810366149    -1.00e-02  5.43e-04  1.39e-02  7.42e-02  0.700   1.7
    8    -386.2245468618590962    -7.01e-03  1.28e-03  3.23e-02  5.20e-02  0.000   1.7
                              *** Initializing SOSCF ***
---------------------------------------S-O-S-C-F--------------------------------------
Iteration    Energy (Eh)           Delta-E    RMSDP     MaxDP     MaxGrad    Time(sec)
--------------------------------------------------------------------------------------
    9    -386.2409199923833398    -1.64e-02  9.57e-06  4.44e-04  8.38e-05     1.7
               *** Restarting incremental Fock matrix formation ***
   10    -386.2409201268627044    -1.34e-07  5.92e-06  2.08e-04  4.72e-05     2.2
                  *** Gradient check signals convergence ***

               *****************************************************
               *                     SUCCESS                       *
               *           SCF CONVERGED AFTER  10 CYCLES          *
               *****************************************************

             **** ENERGY FILE WAS UPDATED (sp.en.tmp) ****

----------------
TOTAL SCF ENERGY
----------------

Total Energy       :       -386.24092012686270 Eh          -10510.14976 eV

Components:
Nuclear Repulsion  :        413.15044505585701 Eh           11242.39516 eV
Electronic Energy  :       -799.39136518271971 Eh          -21752.54492 eV
One Electron Energy:      -1343.42375388645269 Eh          -36556.41884 eV
Two Electron Energy:        544.03238870373298 Eh           14803.87391 eV

Virial components:
Potential Energy   :       -770.92500100247094 Eh          -20977.93577 eV
Kinetic Energy     :        384.68408087560829 Eh           10467.78601 eV
Virial Ratio       :          2.00404705920690

DFT components:
N(Alpha)           :       31.999979612917 electrons
N(Beta)            :       31.999979612917 electrons
N(Total)           :       63.999959225833 electrons
E(X)               :      -52.086512373434 Eh       
E(C)               :       -2.041571155209 Eh       
E(XC)              :      -54.128083528643 Eh       

---------------
SCF CONVERGENCE
---------------

  Last Energy change         ...    1.3448e-07  Tolerance :   1.0000e-06
  Last MAX-Density change    ...    2.0825e-04  Tolerance :   1.0000e-05
  Last RMS-Density change    ...    5.9250e-06  Tolerance :   1.0000e-06
  Last DIIS Error            ...    8.3836e-05  Tolerance :   1.0000e-06
  Last Orbital Gradient      ...    4.7172e-05  Tolerance :   3.3300e-04
  Last Orbital Rotation      ...    1.8231e-04  Tolerance :   3.3300e-04


----------------
ORBITAL ENERGIES
----------------

  NO   OCC          E(Eh)            E(eV) 
   0   2.0000     -18.997988      -516.9615 
   1   2.0000     -18.932631      -515.1831 
   2   2.0000     -10.149852      -276.1915 
   3   2.0000     -10.084259      -274.4066 
   4   2.0000     -10.057989      -273.6918 
   5   2.0000     -10.025561      -272.8094 
   6   2.0000     -10.024371      -272.7770 
   7   2.0000     -10.016270      -272.5566 
   8   2.0000      -1.073662       -29.2158 
   9   2.0000      -0.983069       -26.7507 
  10   2.0000      -0.795408       -21.6442 
  11   2.0000      -0.698872       -19.0173 
  12   2.0000      -0.661444       -17.9988 
  13   2.0000      -0.653981       -17.7957 
  14   2.0000      -0.579135       -15.7591 
  15   2.0000      -0.517921       -14.0934 
  16   2.0000      -0.463231       -12.6052 
  17   2.0000      -0.454019       -12.3545 
  18   2.0000      -0.443337       -12.0638 
  19   2.0000      -0.413254       -11.2452 
  20   2.0000      -0.407442       -11.0870 
  21   2.0000      -0.400982       -10.9113 
  22   2.0000      -0.374386       -10.1876 
  23   2.0000      -0.361923        -9.8484 
  24   2.0000      -0.348470        -9.4824 
  25   2.0000      -0.337760        -9.1909 
  26   2.0000      -0.336318        -9.1517 
  27   2.0000      -0.317394        -8.6367 
  28   2.0000      -0.305483        -8.3126 
  29   2.0000      -0.301363        -8.2005 
  30   2.0000      -0.273382        -7.4391 
  31   2.0000      -0.236262        -6.4290 
  32   0.0000      -0.014541        -0.3957 
  33   0.0000       0.057943         1.5767 
  34   0.0000       0.091324         2.4850 
  35   0.0000       0.104967         2.8563 
  36   0.0000       0.130890         3.5617 
  37   0.0000       0.136072         3.7027 
  38   0.0000       0.137463         3.7406 
  39   0.0000       0.137482         3.7411 
  40   0.0000       0.141371         3.8469 
  41   0.0000       0.151624         4.1259 
  42   0.0000       0.163911         4.4602 
*Only the first 10 virtual orbitals were printed.

                    ********************************
                    * MULLIKEN POPULATION ANALYSIS *
                    ********************************

-----------------------
MULLIKEN ATOMIC CHARGES
-----------------------
   0 C :   -0.514190
   1 C :    0.179990
   2 C :   -0.487424
   3 C :   -0.512024
   4 C :    0.304217
   5 O :   -0.402891
   6 O :   -0.189197
   7 C :   -0.301726
   8 H :    0.168388
   9 H :    0.157285
  10 H :    0.157878
  11 H :    0.159852
  12 H :    0.153407
  13 H :    0.163835
  14 H :    0.159084
  15 H :    0.168579
  16 H :    0.158522
  17 H :    0.179543
  18 H :    0.149501
  19 H :    0.147372
Sum of atomic charges:    0.0000000

--------------------------------
MULLIKEN REDUCED ORBITAL CHARGES
--------------------------------
  0 C s       :     3.352455  s :     3.352455
      pz      :     0.984711  p :     3.134900
      px      :     1.100419
      py      :     1.049770
      dz2     :     0.007620  d :     0.026836
      dxz     :     0.001908
      dyz     :     0.007239
      dx2y2   :     0.003807
      dxy     :     0.006262

  1 C s       :     2.867313  s :     2.867313
      pz      :     0.938885  p :     2.898444
      px      :     1.004008
      py      :     0.955550
      dz2     :     0.012714  d :     0.054253
      dxz     :     0.006367
      dyz     :     0.012716
      dx2y2   :     0.011253
      dxy     :     0.011204

  2 C s       :     3.331199  s :     3.331199
      pz      :     1.121643  p :     3.129643
      px      :     1.019824
      py      :     0.988176
      dz2     :     0.005199  d :     0.026582
      dxz     :     0.001145
      dyz     :     0.008356
      dx2y2   :     0.005804
      dxy     :     0.006078

  3 C s       :     3.350769  s :     3.350769
      pz      :     0.978689  p :     3.134388
      px      :     1.101855
      py      :     1.053844
      dz2     :     0.007520  d :     0.026866
      dxz     :     0.001992
      dyz     :     0.007444
      dx2y2   :     0.003631
      dxy     :     0.006278

  4 C s       :     3.176406  s :     3.176406
      pz      :     0.747435  p :     2.395566
      px      :     0.892431
      py      :     0.755700
      dz2     :     0.005991  d :     0.123811
      dxz     :     0.008274
      dyz     :     0.026929
      dx2y2   :     0.033879
      dxy     :     0.048737

  5 O s       :     3.844952  s :     3.844952
      pz      :     1.439934  p :     4.539041
      px      :     1.766845
      py      :     1.332261
      dz2     :     0.003830  d :     0.018899
      dxz     :     0.001519
      dyz     :     0.009958
      dx2y2   :     0.002854
      dxy     :     0.000739

  6 O s       :     3.705968  s :     3.705968
      pz      :     1.753171  p :     4.457211
      px      :     1.142723
      py      :     1.561317
      dz2     :     0.003740  d :     0.026018
      dxz     :     0.006396
      dyz     :     0.005876
      dx2y2   :     0.007664
      dxy     :     0.002341

  7 C s       :     3.316805  s :     3.316805
      pz      :     1.110527  p :     2.940725
      px      :     0.716136
      py      :     1.114062
      dz2     :     0.007146  d :     0.044196
      dxz     :     0.011364
      dyz     :     0.004088
      dx2y2   :     0.012306
      dxy     :     0.009291

  8 H s       :     0.813308  s :     0.813308
      pz      :     0.003508  p :     0.018303
      px      :     0.006619
      py      :     0.008177

  9 H s       :     0.824527  s :     0.824527
      pz      :     0.008834  p :     0.018188
      px      :     0.003888
      py      :     0.005465

 10 H s       :     0.823902  s :     0.823902
      pz      :     0.003543  p :     0.018220
      px      :     0.010158
      py      :     0.004520

 11 H s       :     0.821859  s :     0.821859
      pz      :     0.008566  p :     0.018289
      px      :     0.003744
      py      :     0.005979

 12 H s       :     0.828397  s :     0.828397
      pz      :     0.003747  p :     0.018197
      px      :     0.010369
      py      :     0.004081

 13 H s       :     0.817847  s :     0.817847
      pz      :     0.008210  p :     0.018318
      px      :     0.003768
      py      :     0.006340

 14 H s       :     0.822751  s :     0.822751
      pz      :     0.008552  p :     0.018166
      px      :     0.003831
      py      :     0.005783

 15 H s       :     0.813174  s :     0.813174
      pz      :     0.003511  p :     0.018247
      px      :     0.006617
      py      :     0.008119

 16 H s       :     0.823242  s :     0.823242
      pz      :     0.003538  p :     0.018236
      px      :     0.010140
      py      :     0.004558

 17 H s       :     0.802042  s :     0.802042
      pz      :     0.004646  p :     0.018415
      px      :     0.002580
      py      :     0.011189

 18 H s       :     0.832900  s :     0.832900
      pz      :     0.010592  p :     0.017599
      px      :     0.003345
      py      :     0.003662

 19 H s       :     0.834948  s :     0.834948
      pz      :     0.006045  p :     0.017680
      px      :     0.004332
      py      :     0.007304


------------------------
MULLIKEN OVERLAP CHARGES
------------------------
B(  0-C ,  1-C ) :   0.5653 B(  0-C ,  2-C ) :  -0.2098 B(  0-C ,  3-C ) :  -0.2314 
B(  0-C ,  4-C ) :  -0.1867 B(  0-C ,  8-H ) :   0.8014 B(  0-C ,  9-H ) :   0.7996 
B(  0-C , 10-H ) :   0.8452 B(  1-C ,  2-C ) :   0.5062 B(  1-C ,  3-C ) :   0.6034 
B(  1-C ,  4-C ) :   0.2906 B(  1-C ,  5-O ) :  -0.2854 B(  1-C ,  6-O ) :  -0.2144 
B(  1-C ,  8-H ) :  -0.0554 B(  1-C ,  9-H ) :  -0.0586 B(  1-C , 10-H ) :  -0.1106 
B(  1-C , 12-H ) :  -0.1179 B(  1-C , 14-H ) :  -0.0619 B(  1-C , 15-H ) :  -0.0587 
B(  1-C , 16-H ) :  -0.1076 B(  2-C ,  3-C ) :  -0.1989 B(  2-C ,  4-C ) :  -0.2253 
B(  2-C ,  5-O ) :   0.1234 B(  2-C , 11-H ) :   0.7931 B(  2-C , 12-H ) :   0.8581 
B(  2-C , 13-H ) :   0.7968 B(  3-C ,  4-C ) :  -0.2100 B(  3-C , 14-H ) :   0.8017 
B(  3-C , 15-H ) :   0.8064 B(  3-C , 16-H ) :   0.8395 B(  4-C ,  5-O ) :   1.0374 
B(  4-C ,  6-O ) :   0.3570 B(  4-C ,  7-C ) :  -0.1992 B(  4-C , 17-H ) :  -0.0540 
B(  5-O ,  6-O ) :  -0.2138 B(  6-O ,  7-C ) :   0.3472 B(  6-O , 17-H ) :  -0.0556 
B(  6-O , 18-H ) :  -0.0717 B(  6-O , 19-H ) :  -0.0888 B(  7-C , 17-H ) :   0.8531 
B(  7-C , 18-H ) :   0.7968 B(  7-C , 19-H ) :   0.7973 B( 17-H , 18-H ) :  -0.0516 



                     *******************************
                     * LOEWDIN POPULATION ANALYSIS *
                     *******************************

----------------------
LOEWDIN ATOMIC CHARGES
----------------------
   0 C :   -0.378171
   1 C :   -0.146809
   2 C :   -0.383752
   3 C :   -0.377502
   4 C :    0.366727
   5 O :   -0.420329
   6 O :   -0.616253
   7 C :   -0.047016
   8 H :    0.169100
   9 H :    0.162354
  10 H :    0.157970
  11 H :    0.166459
  12 H :    0.155228
  13 H :    0.168258
  14 H :    0.162971
  15 H :    0.167917
  16 H :    0.158656
  17 H :    0.189325
  18 H :    0.171027
  19 H :    0.173841

-------------------------------
LOEWDIN REDUCED ORBITAL CHARGES
-------------------------------
  0 C s       :     2.962053  s :     2.962053
      pz      :     1.085186  p :     3.352499
      px      :     1.146297
      py      :     1.121016
      dz2     :     0.017876  d :     0.063620
      dxz     :     0.003810
      dyz     :     0.017396
      dx2y2   :     0.009283
      dxy     :     0.015254

  1 C s       :     2.872193  s :     2.872193
      pz      :     1.077993  p :     3.169937
      px      :     1.015931
      py      :     1.076012
      dz2     :     0.024642  d :     0.104680
      dxz     :     0.010355
      dyz     :     0.025914
      dx2y2   :     0.020542
      dxy     :     0.023226

  2 C s       :     2.960686  s :     2.960686
      pz      :     1.162414  p :     3.359869
      px      :     1.104699
      py      :     1.092757
      dz2     :     0.012866  d :     0.063196
      dxz     :     0.002332
      dyz     :     0.019840
      dx2y2   :     0.013407
      dxy     :     0.014752

  3 C s       :     2.962238  s :     2.962238
      pz      :     1.081143  p :     3.351708
      px      :     1.146611
      py      :     1.123955
      dz2     :     0.017619  d :     0.063556
      dxz     :     0.003951
      dyz     :     0.017829
      dx2y2   :     0.008843
      dxy     :     0.015314

  4 C s       :     2.733222  s :     2.733222
      pz      :     0.708370  p :     2.629458
      px      :     0.955488
      py      :     0.965600
      dz2     :     0.017586  d :     0.270593
      dxz     :     0.013816
      dyz     :     0.050074
      dx2y2   :     0.078685
      dxy     :     0.110432

  5 O s       :     3.539333  s :     3.539333
      pz      :     1.423021  p :     4.650840
      px      :     1.728139
      py      :     1.499681
      dz2     :     0.030012  d :     0.230156
      dxz     :     0.009763
      dyz     :     0.041093
      dx2y2   :     0.071895
      dxy     :     0.077392

  6 O s       :     3.463904  s :     3.463904
      pz      :     1.724120  p :     4.670036
      px      :     1.336771
      py      :     1.609145
      dz2     :     0.051738  d :     0.482313
      dxz     :     0.108418
      dyz     :     0.038978
      dx2y2   :     0.140071
      dxy     :     0.143108

  7 C s       :     2.903147  s :     2.903147
      pz      :     1.110443  p :     3.037502
      px      :     0.821533
      py      :     1.105526
      dz2     :     0.017500  d :     0.106367
      dxz     :     0.026507
      dyz     :     0.010008
      dx2y2   :     0.029566
      dxy     :     0.022787

  8 H s       :     0.786512  s :     0.786512
      pz      :     0.007848  p :     0.044388
      px      :     0.016106
      py      :     0.020435

  9 H s       :     0.793957  s :     0.793957
      pz      :     0.021811  p :     0.043689
      px      :     0.008680
      py      :     0.013199

 10 H s       :     0.798229  s :     0.798229
      pz      :     0.007952  p :     0.043802
      px      :     0.025471
      py      :     0.010378

 11 H s       :     0.789817  s :     0.789817
      pz      :     0.021175  p :     0.043725
      px      :     0.008346
      py      :     0.014204

 12 H s       :     0.801140  s :     0.801140
      pz      :     0.008377  p :     0.043632
      px      :     0.025577
      py      :     0.009678

 13 H s       :     0.787831  s :     0.787831
      pz      :     0.020326  p :     0.043910
      px      :     0.008394
      py      :     0.015191

 14 H s       :     0.793257  s :     0.793257
      pz      :     0.021166  p :     0.043772
      px      :     0.008552
      py      :     0.014054

 15 H s       :     0.787771  s :     0.787771
      pz      :     0.007858  p :     0.044313
      px      :     0.016116
      py      :     0.020338

 16 H s       :     0.797530  s :     0.797530
      pz      :     0.007942  p :     0.043814
      px      :     0.025411
      py      :     0.010461

 17 H s       :     0.766588  s :     0.766588
      pz      :     0.010735  p :     0.044087
      px      :     0.005873
      py      :     0.027478

 18 H s       :     0.788552  s :     0.788552
      pz      :     0.025552  p :     0.040421
      px      :     0.006842
      py      :     0.008027

 19 H s       :     0.786126  s :     0.786126
      pz      :     0.013865  p :     0.040033
      px      :     0.008267
      py      :     0.017901


---------------------------------
LOEWDIN BOND ORDERS (THRESH 0.050000)
---------------------------------
B(  0-C ,  1-C ) :   1.0625 B(  0-C ,  2-C ) :   0.0705 B(  0-C ,  3-C ) :   0.0691 
B(  0-C ,  4-C ) :   0.0731 B(  0-C ,  6-O ) :   0.0503 B(  0-C ,  8-H ) :   0.9063 
B(  0-C ,  9-H ) :   0.9142 B(  0-C , 10-H ) :   0.9129 B(  1-C ,  2-C ) :   1.0724 
B(  1-C ,  3-C ) :   1.0611 B(  1-C ,  4-C ) :   0.8406 B(  1-C ,  5-O ) :   0.1725 
B(  1-C ,  6-O ) :   0.1643 B(  2-C ,  3-C ) :   0.0701 B(  2-C ,  4-C ) :   0.0690 
B(  2-C ,  5-O ) :   0.0563 B(  2-C , 11-H ) :   0.9106 B(  2-C , 12-H ) :   0.9145 
B(  2-C , 13-H ) :   0.9089 B(  3-C ,  4-C ) :   0.0761 B(  3-C , 14-H ) :   0.9138 
B(  3-C , 15-H ) :   0.9080 B(  3-C , 16-H ) :   0.9129 B(  4-C ,  5-O ) :   2.1957 
B(  4-C ,  6-O ) :   1.4149 B(  4-C ,  7-C ) :   0.0879 B(  5-O ,  6-O ) :   0.4572 
B(  5-O ,  7-C ) :   0.0759 B(  6-O ,  7-C ) :   1.3646 B(  6-O , 17-H ) :   0.0968 
B(  6-O , 18-H ) :   0.1017 B(  6-O , 19-H ) :   0.1008 B(  7-C , 17-H ) :   0.8410 
B(  7-C , 18-H ) :   0.8636 B(  7-C , 19-H ) :   0.8658 

------------------------------------------
LOEWDIN REDUCED ORBITAL POPULATIONS PER MO
-------------------------------------------
THRESHOLD FOR PRINTING IS 0.1%%
                      0         1         2         3         4         5   
                 -18.99799 -18.93263 -10.14985 -10.08426 -10.05799 -10.02556
                   2.00000   2.00000   2.00000   2.00000   2.00000   2.00000
                  --------  --------  --------  --------  --------  --------
 1 C  s               0.0       0.0       0.0       0.0      99.6       0.0
 3 C  s               0.0       0.0       0.0       0.0       0.0      99.7
 4 C  s               0.0       0.0      98.9       0.0       0.0       0.0
 5 O  s               0.0      99.9       0.0       0.0       0.0       0.0
 5 O  py              0.0       0.0       0.2       0.0       0.0       0.0
 5 O  dx2y2           0.0       0.0       0.2       0.0       0.0       0.0
 6 O  s              99.9       0.0       0.0       0.0       0.0       0.0
 6 O  px              0.0       0.0       0.1       0.1       0.0       0.0
 6 O  dx2y2           0.0       0.0       0.0       0.2       0.0       0.0
 6 O  dxy             0.0       0.0       0.2       0.0       0.0       0.0
 7 C  s               0.0       0.0       0.0      99.4       0.0       0.0

                      6         7         8         9        10        11   
                 -10.02437 -10.01627  -1.07366  -0.98307  -0.79541  -0.69887
                   2.00000   2.00000   2.00000   2.00000   2.00000   2.00000
                  --------  --------  --------  --------  --------  --------
 0 C  s              99.7       0.0       0.1       0.0      10.4       0.7
 0 C  pz              0.0       0.0       0.1       0.0       2.3       0.0
 0 C  px              0.0       0.0       0.2       0.0       0.1       0.3
 0 C  py              0.0       0.0       0.1       0.0       1.1       0.0
 1 C  s               0.0       0.0       0.9       0.2      27.4       0.7
 1 C  px              0.0       0.0       1.9       0.1       0.2       3.8
 1 C  py              0.0       0.1       0.1       0.4       0.2       0.2
 2 C  s               0.0      99.7       0.1       0.1       9.0       4.2
 2 C  px              0.0       0.0       0.2       0.2       1.0       0.0
 2 C  py              0.0       0.0       0.0       0.0       2.4       0.1
 3 C  s               0.0       0.0       0.1       0.0      10.5       0.8
 3 C  pz              0.0       0.0       0.1       0.0       2.4       0.0
 3 C  px              0.0       0.0       0.2       0.0       0.1       0.2
 3 C  py              0.0       0.0       0.0       0.0       0.9       0.0
 4 C  s               0.0       0.0      16.3       3.6       2.1       3.2
 4 C  px              0.0       0.0       4.7       0.2       7.7       0.4
 4 C  py              0.0       0.0       0.2      23.1       2.4       4.7
 4 C  dz2             0.0       0.0       0.6       0.1       0.0       0.0
 4 C  dx2y2           0.0       0.0       0.3       0.6       0.1       0.0
 4 C  dxy             0.0       0.0       0.2       1.2       0.0       0.2
 5 O  s               0.0       0.0      13.7      40.2       1.2       0.6
 5 O  px              0.0       0.0       0.1       0.5       0.2       0.0
 5 O  py              0.0       0.0       3.3       3.1       0.2       0.4
 5 O  dz2             0.0       0.0       0.5       0.0       0.1       0.0
 5 O  dx2y2           0.0       0.0       0.9       0.1       0.0       0.6
 5 O  dxy             0.0       0.0       0.0       0.2       0.4       0.1
 6 O  s               0.0       0.0      40.0      18.3       0.2       0.6
 6 O  px              0.0       0.0       0.0       0.6       2.8      25.0
 6 O  py              0.0       0.0       2.8       0.5       0.0       1.3
 6 O  dz2             0.0       0.0       0.5       0.1       0.0       0.3
 6 O  dx2y2           0.0       0.0       0.0       0.9       0.2       1.2
 6 O  dxy             0.0       0.0       0.3       0.4       0.2       0.9
 7 C  s               0.0       0.0       4.6       2.1       1.3      26.3
 7 C  px              0.0       0.0       5.4       1.7       0.1       0.4
 7 C  py              0.0       0.0       0.1       0.4       0.0       0.2
 7 C  dz2             0.0       0.0       0.1       0.1       0.0       0.0
 7 C  dx2y2           0.0       0.0       0.3       0.2       0.0       0.0
 8 H  s               0.0       0.0       0.0       0.0       1.3       0.0
 9 H  s               0.0       0.0       0.0       0.0       1.2       0.1
10 H  s               0.0       0.0       0.0       0.0       1.3       0.2
11 H  s               0.0       0.0       0.0       0.0       1.0       0.8
12 H  s               0.0       0.0       0.0       0.0       1.1       0.9
13 H  s               0.0       0.0       0.0       0.0       1.0       0.8
14 H  s               0.0       0.0       0.0       0.0       1.3       0.2
15 H  s               0.0       0.0       0.0       0.0       1.3       0.1
16 H  s               0.0       0.0       0.0       0.0       1.3       0.2
16 H  px              0.0       0.0       0.0       0.0       0.1       0.0
17 H  s               0.0       0.0       0.4       0.1       0.2       5.0
17 H  py              0.0       0.0       0.0       0.0       0.0       0.4
18 H  s               0.0       0.0       0.3       0.2       0.2       5.7
18 H  pz              0.0       0.0       0.0       0.0       0.0       0.4
19 H  s               0.0       0.0       0.3       0.2       0.2       6.5
19 H  pz              0.0       0.0       0.0       0.0       0.0       0.2
19 H  px              0.0       0.0       0.0       0.0       0.0       0.1
19 H  py              0.0       0.0       0.0       0.0       0.0       0.3

                     12        13        14        15        16        17   
                  -0.66144  -0.65398  -0.57913  -0.51792  -0.46323  -0.45402
                   2.00000   2.00000   2.00000   2.00000   2.00000   2.00000
                  --------  --------  --------  --------  --------  --------
 0 C  s              21.1       9.8       3.0       0.5       0.6       0.3
 0 C  pz              0.9       0.0       0.8       1.0       6.9       0.1
 0 C  px              0.0       0.0       1.3       0.2       2.9       1.2
 0 C  py              0.0       0.9       1.0       0.6       2.0       1.1
 0 C  dyz             0.0       0.0       0.0       0.0       0.2       0.0
 1 C  s               0.0       0.0       4.4       3.5       5.3       0.0
 1 C  pz             16.9       0.0       0.0       0.0       0.0       2.0
 1 C  px              0.0       1.0       9.9       0.4       9.8       0.0
 1 C  py              0.0      14.8       1.0       0.2       1.2       0.0
 1 C  dz2             0.0       0.2       0.0       0.0       0.0       0.0
 1 C  dyz             0.3       0.0       0.0       0.0       0.0       0.0
 1 C  dx2y2           0.0       0.0       0.1       0.0       0.0       0.0
 1 C  dxy             0.0       0.2       0.1       0.0       0.0       0.0
 2 C  s               0.1      27.2       3.4       1.7       0.8       0.0
 2 C  pz              0.9       0.0       0.0       0.0       0.0       0.7
 2 C  px              0.0       0.1       2.5       2.8       0.1       0.0
 2 C  py              0.0       0.7       0.3       1.1      11.2       0.0
 2 C  dz2             0.0       0.0       0.0       0.0       0.1       0.0
 3 C  s              23.5       6.9       3.1       0.6       0.5       0.4
 3 C  pz              0.9       0.0       0.9       1.1       7.1       0.4
 3 C  px              0.0       0.0       1.3       0.2       3.0       0.9
 3 C  py              0.0       0.9       0.9       0.6       1.3       1.1
 3 C  dyz             0.0       0.0       0.0       0.0       0.1       0.0
 4 C  s               0.0       0.1       5.1       0.9       0.4       0.0
 4 C  pz              1.0       0.0       0.0       0.0       0.0      15.2
 4 C  px              0.0       0.2       7.8       8.8       3.4       0.0
 4 C  py              0.0       0.4       1.3       2.0       0.1       0.0
 4 C  dx2y2           0.0       0.0       0.2       0.0       0.2       0.0
 5 O  s               0.0       0.3       2.2       0.7       0.0       0.0
 5 O  pz              0.0       0.0       0.0       0.0       0.0       7.0
 5 O  px              0.0       0.2       1.0       2.9       3.5       0.0
 5 O  py              0.0       0.0       1.5       1.6       0.3       0.1
 5 O  dz2             0.0       0.1       0.2       0.0       0.0       0.0
 5 O  dyz             0.0       0.0       0.0       0.0       0.0       1.1
 5 O  dx2y2           0.0       0.0       0.0       0.2       0.0       0.0
 5 O  dxy             0.0       0.0       0.6       0.6       0.3       0.0
 6 O  s               0.0       0.2       3.2       3.6       0.5       0.0
 6 O  pz              0.2       0.0       0.0       0.0       0.0      30.1
 6 O  px              0.0       0.3       1.4      11.6       1.8       0.0
 6 O  py              0.0       0.0       0.8      16.9       8.2       0.0
 6 O  dz2             0.0       0.0       0.7       0.1       0.0       0.0
 6 O  dxz             0.2       0.0       0.0       0.0       0.0       0.3
 6 O  dyz             0.0       0.0       0.0       0.0       0.0       0.7
 6 O  dx2y2           0.0       0.1       1.8       0.1       0.5       0.0
 6 O  dxy             0.0       0.1       0.3       0.4       0.3       0.0
 7 C  s               0.0       0.8       7.1       2.3       0.2       0.0
 7 C  pz              0.0       0.0       0.0       0.0       0.0      23.0
 7 C  px              0.0       0.1       5.9       7.9       2.3       0.0
 7 C  py              0.0       0.0       0.4       8.9       4.8       0.0
 7 C  dx2y2           0.0       0.0       0.2       0.2       0.0       0.0
 7 C  dxy             0.0       0.0       0.1       0.2       0.0       0.0
 8 H  s               4.5       2.8       1.0       0.3       3.0       0.1
 8 H  px              0.1       0.1       0.0       0.0       0.0       0.0
 8 H  py              0.2       0.1       0.0       0.0       0.1       0.0
 9 H  s               5.4       1.9       0.9       0.3       2.1       0.0
 9 H  pz              0.3       0.1       0.0       0.0       0.0       0.0
 9 H  py              0.1       0.1       0.0       0.0       0.1       0.0
10 H  s               4.7       2.3       2.1       0.6       0.0       1.0
10 H  px              0.4       0.2       0.1       0.0       0.0       0.0
11 H  s               0.1       6.3       1.0       0.8       2.4       0.2
11 H  pz              0.0       0.4       0.0       0.0       0.1       0.0
11 H  py              0.0       0.2       0.0       0.0       0.0       0.0
12 H  s               0.0       6.1       2.2       1.7       0.0       0.0
12 H  px              0.0       0.5       0.1       0.1       0.0       0.0
13 H  s               0.0       6.3       1.0       0.7       2.6       0.1
13 H  pz              0.0       0.4       0.0       0.0       0.1       0.0
13 H  py              0.0       0.2       0.0       0.0       0.0       0.0
14 H  s               6.0       1.3       1.0       0.4       2.1       0.0
14 H  pz              0.3       0.1       0.0       0.0       0.0       0.0
14 H  py              0.2       0.0       0.0       0.0       0.1       0.0
15 H  s               5.2       2.1       1.0       0.4       2.7       0.2
15 H  px              0.2       0.1       0.0       0.0       0.0       0.0
15 H  py              0.3       0.1       0.0       0.0       0.1       0.0
16 H  s               5.2       1.7       2.2       0.6       0.0       0.9
16 H  px              0.4       0.1       0.1       0.0       0.0       0.0
17 H  s               0.0       0.2       3.1       6.1       0.7       1.4
17 H  py              0.0       0.0       0.2       0.2       0.0       0.1
18 H  s               0.0       0.2       3.5       2.2       0.4       6.6
18 H  pz              0.0       0.0       0.2       0.1       0.0       0.1
19 H  s               0.0       0.2       3.1       0.3       2.3       2.4
19 H  py              0.0       0.0       0.1       0.1       0.0       0.1

                     18        19        20        21        22        23   
                  -0.44334  -0.41325  -0.40744  -0.40098  -0.37439  -0.36192
                   2.00000   2.00000   2.00000   2.00000   2.00000   2.00000
                  --------  --------  --------  --------  --------  --------
 0 C  s               0.3       0.4       0.1       0.0       0.0       0.0
 0 C  pz              5.3       0.3       3.4       6.1       0.1       0.8
 0 C  px              0.2       0.2       1.9       5.3      10.2      16.2
 0 C  py              0.3      12.3       1.3       6.0       2.0       4.2
 0 C  dz2             0.0       0.0       0.0       0.0       0.0       0.1
 0 C  dx2y2           0.0       0.1       0.0       0.0       0.0       0.1
 1 C  s               0.3       0.0       0.3       0.0       0.0       0.1
 1 C  pz              0.0      12.3       0.1       0.0       0.0       0.0
 1 C  px              0.3       0.0       1.0       2.9       0.0       0.0
 1 C  py              5.1       0.0       1.9       4.9       0.0       1.7
 1 C  dz2             0.0       0.0       0.1       0.0       0.0       0.2
 1 C  dxz             0.0       0.0       0.0       0.0       0.4       0.0
 1 C  dx2y2           0.0       0.0       0.0       0.1       0.0       0.0
 1 C  dxy             0.0       0.0       0.0       0.0       0.0       0.1
 2 C  s               0.1       0.0       0.0       0.4       0.0       0.0
 2 C  pz              0.0      17.4       0.2       0.0       8.2       0.1
 2 C  px              1.6       0.1       4.9       0.5       0.1      16.9
 2 C  py              0.0       0.0       0.4       6.8       0.1       4.9
 3 C  s               0.3       0.4       0.0       0.0       0.0       0.0
 3 C  pz              5.0       0.9       2.8       5.8       0.0       0.6
 3 C  px              0.2       0.0       2.1       6.7      16.5       5.2
 3 C  py              0.4      11.0       3.7       6.5       0.3       4.1
 4 C  s               2.1       0.0       1.6       0.0       0.0       0.0
 4 C  pz              0.0       1.7       0.0       0.0       6.9       0.0
 4 C  px              0.3       0.0       0.6       0.1       0.1       0.8
 4 C  py              4.0       0.0       3.0       0.6       0.0       0.6
 4 C  dxz             0.0       0.1       0.0       0.0       0.0       0.0
 4 C  dx2y2           0.3       0.0       0.2       0.1       0.0       0.0
 4 C  dxy             0.0       0.0       0.0       0.2       0.0       0.3
 5 O  s              12.2       0.0       4.0       0.6       0.0       0.1
 5 O  pz              0.1       1.5       0.0       0.0       7.1       0.0
 5 O  px              3.6       0.0       2.7       0.0       0.3       2.5
 5 O  py             25.5       0.2      19.5       1.5       0.0       1.7
 5 O  dz2             0.1       0.0       0.1       0.0       0.0       0.1
 5 O  dxz             0.0       0.3       0.0       0.0       0.0       0.0
 5 O  dyz             0.0       0.0       0.0       0.0       0.3       0.0
 5 O  dx2y2           0.1       0.0       0.3       0.1       0.0       0.2
 5 O  dxy             0.1       0.0       0.1       0.1       0.0       0.0
 6 O  s               0.9       0.0       0.1       0.6       0.0       0.2
 6 O  pz              0.0       2.7       0.0       0.0       0.7       0.0
 6 O  px              9.4       0.0       1.0       5.4       0.0       0.4
 6 O  py              5.8       0.0       1.8       1.1       0.1       0.0
 6 O  dxz             0.0       0.8       0.0       0.0       3.1       0.0
 6 O  dx2y2           0.3       0.0       0.0       0.0       0.0       0.0
 6 O  dxy             0.2       0.0       1.3       0.7       0.0       0.0
 7 C  s               0.4       0.0       0.0       0.1       0.0       0.0
 7 C  pz              0.0       9.9       0.0       0.0      11.4       0.1
 7 C  px              5.4       0.0       3.1       4.6       0.0       0.0
 7 C  py              0.5       0.0      13.7       4.1       0.1       1.3
 7 C  dxz             0.0       0.0       0.0       0.0       0.1       0.0
 7 C  dyz             0.0       0.0       0.1       0.0       0.0       0.0
 7 C  dx2y2           0.1       0.0       0.0       0.0       0.0       0.0
 8 H  s               0.0       3.4       0.0       4.3       4.1       0.4
 8 H  px              0.0       0.1       0.0       0.0       0.0       0.1
 8 H  py              0.0       0.0       0.0       0.1       0.1       0.1
 9 H  s               2.4       0.4       2.7       3.6       0.1       3.0
10 H  s               0.2       1.8       0.9       1.2       2.9      10.2
10 H  px              0.0       0.1       0.0       0.0       0.0       0.2
11 H  s               0.0       4.5       0.0       1.4       1.8       1.9
11 H  py              0.0       0.1       0.0       0.0       0.1       0.0
12 H  s               0.9       0.0       2.5       0.1       0.1      10.1
12 H  px              0.0       0.0       0.1       0.0       0.0       0.2
13 H  s               0.0       4.0       0.4       1.3       2.4       1.3
13 H  py              0.0       0.1       0.0       0.0       0.1       0.0
14 H  s               2.4       0.2       3.1       3.8       0.1       2.1
14 H  px              0.0       0.0       0.0       0.1       0.1       0.0
15 H  s               0.0       3.6       0.1       4.7       3.9       0.0
15 H  px              0.0       0.1       0.0       0.0       0.0       0.0
15 H  py              0.0       0.0       0.0       0.1       0.1       0.0
16 H  s               0.2       1.4       1.5       1.4       6.0       4.2
17 H  s               0.1       0.5       4.0       0.8       0.6       0.7
18 H  s               0.5       3.5       0.3       0.5       5.8       0.0
19 H  s               1.5       1.8       5.7       3.0       2.4       0.2
19 H  pz              0.0       0.0       0.1       0.1       0.0       0.0

                     24        25        26        27        28        29   
                  -0.34847  -0.33776  -0.33632  -0.31739  -0.30548  -0.30136
                   2.00000   2.00000   2.00000   2.00000   2.00000   2.00000
                  --------  --------  --------  --------  --------  --------
 0 C  s               0.0       0.1       0.0       0.0       0.7       0.2
 0 C  pz              1.5       2.8       3.4       0.0      16.8       1.1
 0 C  px             10.1       1.8       1.3       2.2       0.0       0.8
 0 C  py              2.6       0.3       8.6       0.1       1.2      10.1
 0 C  dz2             0.1       0.0       0.2       0.0       0.0       0.2
 0 C  dyz             0.0       0.0       0.1       0.0       0.3       0.0
 0 C  dxy             0.0       0.0       0.1       0.1       0.0       0.1
 1 C  s               0.0       0.4       0.0       0.0       0.0       0.0
 1 C  pz              0.2       0.0       0.2       0.0      21.7       0.0
 1 C  px              0.0       2.0       0.3      10.4       0.0       0.5
 1 C  py              0.0       0.7       0.1       2.4       0.0      16.3
 1 C  dz2             0.0       0.1       0.0       0.0       0.0       0.5
 1 C  dyz             0.0       0.0       0.0       0.0       0.9       0.0
 1 C  dx2y2           0.0       0.3       0.0       0.2       0.0       0.0
 1 C  dxy             0.0       0.1       0.0       0.3       0.0       0.2
 2 C  s               0.0       0.1       0.0       0.5       0.0       0.6
 2 C  pz              0.0       1.9      18.9       0.0       9.4       0.0
 2 C  px              0.8      11.6       1.2       9.4       0.0       0.9
 2 C  py              0.4       3.7       0.5       3.9       0.0      17.9
 2 C  dz2             0.0       0.1       0.0       0.0       0.0       0.2
 2 C  dyz             0.0       0.0       0.3       0.0       0.6       0.0
 2 C  dx2y2           0.0       0.3       0.0       0.1       0.0       0.1
 2 C  dxy             0.0       0.0       0.0       0.1       0.0       0.1
 3 C  s               0.0       0.1       0.0       0.0       0.8       0.1
 3 C  pz              2.1       0.2       4.4       0.0      18.0       0.8
 3 C  px             12.0       0.6       4.1       2.4       0.0       0.6
 3 C  py              3.1       4.1       6.2       0.3       1.7       8.3
 3 C  dz2             0.1       0.1       0.0       0.0       0.0       0.2
 3 C  dyz             0.0       0.0       0.1       0.0       0.3       0.0
 3 C  dx2y2           0.1       0.0       0.0       0.1       0.0       0.0
 3 C  dxy             0.1       0.0       0.2       0.2       0.0       0.1
 4 C  s               0.0       0.4       0.0       1.3       0.0       0.1
 4 C  pz              8.4       0.1       1.2       0.0       0.4       0.0
 4 C  px              0.1       7.1       1.0       2.8       0.0       0.1
 4 C  py              0.1       0.1       0.0       3.7       0.0       1.2
 4 C  dxz             0.1       0.0       0.0       0.0       0.2       0.0
 4 C  dyz             0.3       0.0       0.0       0.0       0.2       0.0
 4 C  dx2y2           0.0       0.1       0.0       0.4       0.0       0.3
 4 C  dxy             0.0       0.0       0.0       0.0       0.0       0.2
 5 O  s               0.0       0.0       0.0       0.9       0.0       0.4
 5 O  pz             19.5       0.1       2.2       0.0       5.4       0.0
 5 O  px              0.1       6.1       0.7       0.2       0.0       0.1
 5 O  py              0.0       0.3       0.0       7.8       0.0       3.8
 5 O  dyz             0.4       0.0       0.1       0.0       0.0       0.0
 5 O  dx2y2           0.0       0.1       0.0       0.5       0.0       0.1
 5 O  dxy             0.0       0.2       0.0       0.1       0.0       0.1
 6 O  s               0.0       0.9       0.1       2.6       0.0       0.6
 6 O  pz              2.1       0.0       0.1       0.0       0.2       0.0
 6 O  px              0.0       0.2       0.0       5.5       0.0       0.4
 6 O  py              0.2       6.8       1.2      17.0       0.0       8.6
 6 O  dz2             0.0       0.0       0.0       0.1       0.0       0.0
 6 O  dxz             0.5       0.0       0.0       0.0       0.0       0.0
 6 O  dyz             0.5       0.0       0.2       0.0       0.0       0.0
 6 O  dx2y2           0.0       0.0       0.0       1.3       0.0       0.0
 6 O  dxy             0.0       0.4       0.1       1.2       0.0       0.1
 7 C  s               0.0       0.0       0.0       0.3       0.0       0.0
 7 C  pz              4.8       0.1       0.3       0.0       0.2       0.0
 7 C  px              0.0       0.3       0.0       2.6       0.0       0.1
 7 C  py              0.1      12.1       2.1       4.2       0.0       2.1
 7 C  dxz             0.1       0.0       0.0       0.0       0.0       0.0
 7 C  dyz             0.0       0.1       0.0       0.1       0.0       0.0
 7 C  dx2y2           0.0       0.1       0.0       0.2       0.0       0.1
 7 C  dxy             0.0       0.3       0.0       0.1       0.0       0.1
 8 H  s               0.2       1.1       5.5       1.4       0.1       5.7
 8 H  pz              0.0       0.0       0.0       0.0       0.2       0.0
 9 H  s               3.5       0.8       5.2       0.0       4.8       0.8
 9 H  py              0.0       0.0       0.0       0.0       0.1       0.0
10 H  s               6.8       0.9       0.0       1.4       0.0       0.0
10 H  pz              0.0       0.0       0.0       0.0       0.2       0.0
10 H  py              0.0       0.0       0.1       0.0       0.0       0.1
11 H  s               0.1       4.7       4.9       0.0       5.3       2.1
11 H  py              0.0       0.0       0.1       0.0       0.0       0.1
12 H  s               0.6       9.1       0.9       3.1       0.0       0.7
12 H  pz              0.0       0.0       0.2       0.0       0.1       0.0
12 H  py              0.0       0.0       0.0       0.1       0.0       0.1
13 H  s               0.2       0.3       9.3       0.0       4.4       3.0
13 H  py              0.0       0.0       0.1       0.0       0.0       0.1
14 H  s               4.1       2.0       4.3       0.0       4.2       1.0
14 H  py              0.0       0.0       0.0       0.0       0.1       0.0
15 H  s               0.3       0.7       6.1       1.8       0.3       4.8
15 H  pz              0.0       0.0       0.0       0.0       0.2       0.0
16 H  s               8.1       1.3       0.8       1.5       0.0       0.0
16 H  pz              0.0       0.0       0.0       0.0       0.2       0.0
16 H  px              0.1       0.0       0.0       0.0       0.0       0.0
17 H  s               0.2       6.4       1.4       3.5       0.0       1.5
18 H  s               2.9       0.1       0.2       0.1       0.2       0.0
18 H  py              0.0       0.1       0.0       0.0       0.0       0.0
19 H  s               1.3       4.2       0.4       0.7       0.0       0.8

                     30        31        32        33        34        35   
                  -0.27338  -0.23626  -0.01454   0.05794   0.09132   0.10497
                   2.00000   2.00000   0.00000   0.00000   0.00000   0.00000
                  --------  --------  --------  --------  --------  --------
 0 C  s               0.0       0.1       1.1       6.3       2.1       2.7
 0 C  pz              0.1       0.3       0.7       0.9       1.8       0.6
 0 C  px              0.2       0.8       0.1       0.8       0.8       7.0
 0 C  py              0.1       0.5       1.0       0.4       0.1       0.4
 0 C  dxz             0.0       0.0       0.0       0.1       0.0       0.1
 0 C  dyz             0.0       0.0       0.0       0.2       0.2       0.3
 0 C  dxy             0.0       0.1       0.1       0.0       0.0       0.0
 1 C  s               0.0       0.4       0.0       3.9       0.7       1.9
 1 C  pz              0.2       0.0       0.7       0.0       0.0       0.0
 1 C  px              0.1       6.2       0.0       0.9       0.9       2.2
 1 C  py              0.0       2.4       0.0       0.1       1.3       0.0
 1 C  dz2             0.0       0.0       0.0       0.0       0.2       0.0
 1 C  dxz             0.0       0.0       1.1       0.0       0.0       0.0
 1 C  dyz             0.0       0.0       0.7       0.0       0.0       0.0
 1 C  dx2y2           0.0       0.1       0.0       0.1       0.2       0.1
 1 C  dxy             0.0       0.0       0.0       0.0       0.2       0.3
[...]
 0 C  s               0.1       0.1       0.0       0.0       2.8      68.0
 0 C  px              0.2       0.0       0.0       0.0       0.0       0.0
 0 C  py              0.3       0.0       0.0       0.0       0.0       0.0
 0 C  dz2             0.6       0.0       0.1       0.0       0.0       0.0
 0 C  dx2y2           0.3       0.0       0.0       0.0       0.0       0.0
 1 C  s               0.1       0.1       0.1       0.0       7.7       0.8
 1 C  px              2.5       0.0       0.2       0.0       0.0       0.0
 1 C  dz2             0.8       0.0       0.0       0.1       0.0       0.0
 1 C  dx2y2           3.2       0.0       0.2       0.0       0.0       0.0
 1 C  dxy             1.6       0.1       0.2       0.1       0.0       0.0
 2 C  s               0.1       0.0       0.0       0.0       5.1       0.0
 2 C  px              0.2       0.0       0.0       0.0       0.0       0.0
 2 C  py              0.3       0.0       0.0       0.0       0.0       0.0
 2 C  dx2y2           0.2       0.0       0.0       0.0       0.0       0.0
 2 C  dxy             0.8       0.0       0.0       0.0       0.0       0.0
 3 C  s               0.2       0.1       0.0       0.0       4.0      30.3
 3 C  pz              0.1       0.0       0.0       0.0       0.0       0.0
 3 C  px              0.3       0.0       0.0       0.0       0.0       0.0
 3 C  py              0.4       0.0       0.0       0.0       0.0       0.0
 3 C  dz2             0.7       0.0       0.1       0.0       0.0       0.0
 3 C  dx2y2           0.4       0.0       0.0       0.0       0.0       0.0
 4 C  s               1.2       0.2       2.2       5.9       0.5       0.1
 4 C  px              0.2       0.4       3.2       0.6       0.0       0.0
 4 C  py              0.8       1.0       4.0       7.3       0.0       0.0
 4 C  dz2             0.7       0.2       1.5       1.5       0.0       0.0
 4 C  dx2y2          13.0       0.0       0.6       3.2       0.0       0.0
 4 C  dxy             3.5       1.7      10.7       1.3       0.0       0.0
 5 O  s               1.5       0.8       0.4      19.2       0.0       0.0
 5 O  px              7.7       0.1       0.5       2.2       0.0       0.0
 5 O  py              2.4       0.6       0.2      20.2       0.0       0.0
 5 O  dz2             0.6       0.2       0.4       8.1       0.0       0.0
 5 O  dyz             0.1       0.0       0.0       0.2       0.0       0.0
 5 O  dx2y2           3.5       1.4       0.9      17.9       0.0       0.0
 5 O  dxy            20.8       0.1       1.1       7.6       0.0       0.0
 6 O  s               4.2      25.5       6.0       1.1       0.1       0.0
 6 O  px              0.0       9.5      23.5       0.5       0.0       0.0
 6 O  py              6.7       5.0       7.2       0.1       0.0       0.0
 6 O  dz2             0.9      14.1       2.3       0.6       0.0       0.0
 6 O  dx2y2           8.5      12.5       3.6       0.8       0.0       0.0
 6 O  dxy             0.8       0.0      23.9       0.1       0.0       0.0
 7 C  s               0.2       1.8       0.6       0.1      79.6       0.4
 7 C  px              0.1       7.7       1.9       0.2       0.0       0.0
 7 C  py              0.2       0.1       0.2       0.0       0.0       0.0
 7 C  dz2             0.2       4.1       0.4       0.0       0.0       0.0
 7 C  dyz             0.1       0.0       0.0       0.0       0.0       0.0
 7 C  dx2y2           0.2       7.4       2.3       0.2       0.0       0.0
 7 C  dxy             1.9       1.9       0.3       0.1       0.0       0.0
 9 H  pz              0.1       0.0       0.0       0.0       0.0       0.0
10 H  s               0.3       0.0       0.0       0.0       0.0       0.0
10 H  px              0.6       0.0       0.0       0.0       0.0       0.0
12 H  s               0.1       0.0       0.0       0.0       0.0       0.0
12 H  px              0.4       0.0       0.0       0.0       0.0       0.0
13 H  pz              0.2       0.0       0.0       0.0       0.0       0.0
16 H  s               0.4       0.0       0.0       0.0       0.0       0.0
16 H  px              1.0       0.0       0.0       0.0       0.0       0.0
17 H  s               0.2       0.1       0.1       0.0       0.0       0.0
17 H  pz              0.1       0.1       0.1       0.0       0.0       0.0
17 H  px              0.6       0.1       0.0       0.0       0.0       0.0
17 H  py              0.5       0.2       0.2       0.0       0.0       0.0
18 H  s               0.0       0.4       0.0       0.0       0.0       0.0
18 H  pz              0.1       0.9       0.0       0.0       0.0       0.0
18 H  py              0.1       0.0       0.0       0.0       0.0       0.0
19 H  s               0.2       0.3       0.1       0.0       0.0       0.0
19 H  pz              0.2       0.3       0.0       0.0       0.0       0.0
19 H  py              0.2       0.5       0.1       0.0       0.0       0.0

                    216       217       218       219       220       221   
                  22.04782  22.08217  22.18586  22.30436  43.69120  43.77831
                   0.00000   0.00000   0.00000   0.00000   0.00000   0.00000
                  --------  --------  --------  --------  --------  --------
 0 C  s              15.6       4.3       7.3       1.5       0.0       0.0
 1 C  s              14.0       0.2      72.7       4.7       0.0       0.0
 2 C  s               4.2      83.5       5.6       1.0       0.0       0.0
 3 C  s              49.7       6.0       6.6       2.9       0.0       0.0
 4 C  s               0.1       3.7       6.7      88.0       0.0       0.0
 5 O  s               0.0       0.0       0.0       0.2      99.7       0.3
 5 O  py              0.0       0.0       0.0       0.1       0.0       0.0
 6 O  s               0.0       0.0       0.0       0.1       0.2      99.7
 7 C  s              16.1       1.8       0.6       1.1       0.0       0.0



                      *****************************
                      * MAYER POPULATION ANALYSIS *
                      *****************************

  NA   - Mulliken gross atomic population
  ZA   - Total nuclear charge
  QA   - Mulliken gross atomic charge
  VA   - Mayer's total valence
  BVA  - Mayer's bonded valence
  FA   - Mayer's free valence

  ATOM       NA         ZA         QA         VA         BVA        FA
  0 C      6.5142     6.0000    -0.5142     3.7485     3.7485     0.0000
  1 C      5.8200     6.0000     0.1800     3.5683     3.5683     0.0000
  2 C      6.4874     6.0000    -0.4874     3.8013     3.8013    -0.0000
  3 C      6.5120     6.0000    -0.5120     3.7372     3.7372    -0.0000
  4 C      5.6958     6.0000     0.3042     3.7586     3.7586     0.0000
  5 O      8.4029     8.0000    -0.4029     1.9814     1.9814     0.0000
  6 O      8.1892     8.0000    -0.1892     1.9253     1.9253     0.0000
  7 C      6.3017     6.0000    -0.3017     3.7653     3.7653     0.0000
  8 H      0.8316     1.0000     0.1684     0.9595     0.9595     0.0000
  9 H      0.8427     1.0000     0.1573     0.9626     0.9626     0.0000
 10 H      0.8421     1.0000     0.1579     0.9620     0.9620     0.0000
 11 H      0.8401     1.0000     0.1599     0.9625     0.9625     0.0000
 12 H      0.8466     1.0000     0.1534     0.9625     0.9625     0.0000
 13 H      0.8362     1.0000     0.1638     0.9616     0.9616     0.0000
 14 H      0.8409     1.0000     0.1591     0.9625     0.9625    -0.0000
 15 H      0.8314     1.0000     0.1686     0.9595     0.9595    -0.0000
 16 H      0.8415     1.0000     0.1585     0.9621     0.9621    -0.0000
 17 H      0.8205     1.0000     0.1795     0.9584     0.9584     0.0000
 18 H      0.8505     1.0000     0.1495     0.9567     0.9567     0.0000
 19 H      0.8526     1.0000     0.1474     0.9575     0.9575     0.0000

  Mayer bond orders larger than 0.100000
B(  0-C ,  1-C ) :   0.9077 B(  0-C ,  8-H ) :   0.9664 B(  0-C ,  9-H ) :   0.9705 
B(  0-C , 10-H ) :   0.9768 B(  1-C ,  2-C ) :   0.9447 B(  1-C ,  3-C ) :   0.9053 
B(  1-C ,  4-C ) :   0.9492 B(  2-C , 11-H ) :   0.9666 B(  2-C , 12-H ) :   0.9790 
B(  2-C , 13-H ) :   0.9663 B(  3-C , 14-H ) :   0.9698 B(  3-C , 15-H ) :   0.9673 
B(  3-C , 16-H ) :   0.9755 B(  4-C ,  5-O ) :   1.8936 B(  4-C ,  6-O ) :   1.0397 
B(  6-O ,  7-C ) :   0.8484 B(  7-C , 17-H ) :   0.9688 B(  7-C , 18-H ) :   0.9600 
B(  7-C , 19-H ) :   0.9702 

-------
TIMINGS
-------

Total SCF time: 0 days 0 hours 0 min 18 sec 

Total time                  ....      18.458 sec
Sum of individual times     ....      18.432 sec  ( 99.9%)

SCF preparation             ....       0.051 sec  (  0.3%)
Fock matrix formation       ....      18.033 sec  ( 97.7%)
  Startup                   ....       0.006 sec  (  0.0% of F)
  Split-RI-J                ....       3.867 sec  ( 21.4% of F)
  XC integration            ....      14.121 sec  ( 78.3% of F)
    XC Preparation          ....       0.000 sec  (  0.0% of XC)
    Basis function eval.    ....       2.484 sec  ( 17.6% of XC)
    Density eval.           ....       4.929 sec  ( 34.9% of XC)
    XC-Functional eval.     ....       1.567 sec  ( 11.1% of XC)
    XC-Potential eval.      ....       4.817 sec  ( 34.1% of XC)
Diagonalization             ....       0.000 sec  (  0.0%)
Density matrix formation    ....       0.020 sec  (  0.1%)
Total Energy calculation    ....       0.003 sec  (  0.0%)
Population analysis         ....       0.142 sec  (  0.8%)
Orbital Transformation      ....       0.037 sec  (  0.2%)
Orbital Orthonormalization  ....       0.000 sec  (  0.0%)
DIIS solution               ....       0.129 sec  (  0.7%)
  MO trafo                  ....       0.000 sec  (  0.0 % of DIIS)
  Orb grad                  ....       0.000 sec  (  0.0 % of DIIS)
  Energy W gradient         ....       0.000 sec  (  0.0 % of DIIS)
  DIIS error                ....       0.019 sec  ( 14.9 % of DIIS)
  DIIS work                 ....       0.080 sec  ( 62.0 % of DIIS)
  Form Q                    ....       0.000 sec  (  0.0 % of DIIS)
  Form QpQm                 ....       0.000 sec  (  0.0 % of DIIS)
  Exp/Cayley                ....       0.000 sec  (  0.0 % of DIIS)
  Orb update                ....       0.000 sec  (  0.0 % of DIIS)
  Wake-sleep                ....       0.002 sec  (  1.3 % of DIIS)
SOSCF solution              ....       0.016 sec  (  0.1%)
  MO trafo                  ....       0.012 sec  ( 72.7 % of SOSCF)
  Orb grad                  ....       0.000 sec  (  0.4 % of SOSCF)
  Rot update                ....       0.000 sec  (  0.2 % of SOSCF)
  Step                      ....       0.004 sec  ( 26.3 % of SOSCF)
Finished LeanSCF after  18.5 sec

Maximum memory used throughout the entire LEANSCF-calculation: 25.7 MB


-------------------------------------------------------------------------------
                          DFT DISPERSION CORRECTION                            
                                                                               
                                DFTD4 V3.4.0                                   
-------------------------------------------------------------------------------
The R2SCAN3C composite method is recognized
Using three-body term ABC
Active option DFTDOPT                   ...         5   

-------------------------   ----------------
Dispersion correction           -0.005676589
-------------------------   ----------------

------------------   -----------------
gCP correction             0.012701992
------------------   -----------------

-------------------------   --------------------
FINAL SINGLE POINT ENERGY      -386.233894723974
-------------------------   --------------------


------------------------------------------------------------------------------
                              ORCA PROPERTY CALCULATIONS
------------------------------------------------------------------------------

GBWName                                 ... sp.gbw
Number of atoms                         ...     20
Number of basis functions               ...    222
Max core memory                         ...   1024 MB

Electric properties:
Dipole moment                           ... YES
Quadrupole moment                       ...  NO
Static polarizability (Dipole/Dipole)   ...  NO
Static polarizability (Dipole/Quad.)    ...  NO
Static polarizability (Quad./Quad.)     ...  NO
Static polarizability (Velocity)        ...  NO

Atomic electric properties:
Dipole moment                           ...  NO
Quadrupole moment                       ...  NO
Static polarizability                   ...  NO

Choice of electric origin               ... Center of mass
Position of electric origin             ...    -0.000022    -0.000012     0.000000

General magnetic properties:
Magnetizability                         ...  NO

EPR properties:
g-Tensor (aka g-matrix)                 ...  NO
Zero-Field splitting spin-orbit         ...  NO
Zero-field splitting spin-spin          ...  NO
Hyperfine couplings                     ...  NO (   0 nuclei)
Quadrupole couplings                    ...  NO (   0 nuclei)
Contact density                         ...  NO (   0 nuclei)

NMR properties:
Chemical shifts                         ...  NO (   0 nuclei)
Spin-rotation constants                 ...  NO (   0 nuclei)
Spin-spin couplings                     ...  NO (   0 nuclei,    0 pairs)

Choice of magnetic origin               ... GIAO
Position of magnetic origin             ...     0.000000     0.000000     0.000000

Properties with geometric perturbations:
SCF Hessian                             ...  NO
IR spectrum                             ...  NO
VCD spectrum                            ...  NO
X-ray spectroscopy properties:
SCF XES/XAS/RIXS spectra                ...  NO


-------------
DIPOLE MOMENT
-------------

Method             : SCF
Type of density    : Electron Density
Multiplicity       :   1
Irrep              :   0
Energy             :  -386.2409201268627044 Eh
Relativity type    : 
Basis              : AO
                                X                 Y                 Z
Electronic contribution:      4.927518169       2.615004811      -0.036998534
Nuclear contribution   :     -4.866796396      -3.350681155       0.063954420
                        -----------------------------------------
Total Dipole Moment    :      0.060721772      -0.735676344       0.026955886
                        -----------------------------------------
Magnitude (a.u.)       :      0.738670046
Magnitude (Debye)      :      1.877550045



--------------------
Rotational spectrum 
--------------------
 
Rotational constants in cm-1:             0.105640             0.050682             0.044548 
Rotational constants in MHz :          3166.993084          1519.398016          1335.501245 

Dipole components along the rotational axes: 
x,y,z [a.u.] :     0.064982    -0.735774    -0.006928 
x,y,z [Debye]:     0.165172    -1.870188    -0.017610 

 

Dipole moment calculation done in   0.0 sec 

Maximum memory used throughout the entire PROP-calculation: 15.1 MB

--------------------------------
SUGGESTED CITATIONS FOR THIS RUN
--------------------------------

Below you find a list of papers that are relevant to this ORCA run
We neither can nor want to force you to cite these papers, but we appreciate if you do
You receive ORCA, which is the product of decades of hard work by many enthusiastic individuals, for free
The only thing we kindly ask in return is that you cite our papers,
We deeply appreciate it, if you show your appreciation for ORCA by not just citing the generic ORCA reference.

Please note that relegating all ORCA citations to the supporting information does *not* help us.
SI sections are not indexed - citations you put there will not count into any citation statistics
But we need these citations in order to attract the funding resources that allow us to do what we are doing

Therefore, if you are a happy ORCA user, please consider citing a few of the papers listed below in the main body of your paper

In addition to the list printed below, the program has created the file sp.bibtex that contains the list in bibtex format
You can import this file easily into all common literature databanks and citation aid programs


List of essential papers. We consider these as the minimum necessary citations

  1. Neese,F.
     Software update: the ORCA program system, version 5.0
     WIRES Comput. Molec. Sci., 2022 12(1)e1606
     doi.org/10.1002/wcms.1606
  2. Grimme,S.; Hansen,A.; Ehlert,S.; Mewes,J.
     r2SCAN-3c: A 'Swiss army knife' composite electronic-structure method
     J. Chem. Phys., 2021 154 064103
     doi.org/10.1063/5.0040021

List of papers to cite with high priority. The work reported in these papers was absolutely
necessary for this run to complete.
Our perspective: the developers of density functionals and basis sets usually get cited in chemistry papers
Good! But without the algorithms to do something with them, the functionals or basis sets would not do anything.
Hence, in our opinion, the algorithm design and method developments papers are equally worthy of getting cited

  1. Neese,F.
     An improvement of the resolution of the identity approximation for the formation of the Coulomb matrix
     J. Comp. Chem., 2003 24(14)1740-1747
     doi.org/10.1002/jcc.10318
  2. Neese,F.
     The SHARK Integral Generation and Digestion System
     J. Comp. Chem., 2022  1-16
     doi.org/10.1002/jcc.26942
  3. Lehtola,S.; Steigemann,C.; Oliveira,M.; Marques,M.
     Recent developments in Libxc - A comprehensive library of functionals for density functional theory
     Software X, 2018 7 
     doi.org/10.1016/j.softx.2017.11.002
  4. Caldeweyher,E.; Bannwarth,C.; Grimme,S.
     Extension of the D3 dispersion coefficient model
     J. Chem. Phys., 2017 147 034112
     doi.org/10.1063/1.4993215
  5. Caldeweyher,E.; Ehlert,S.; Hansen,A.; Neugebauer,H.; Spicher,S.; Bannwarth,C.; Grimme,S.
     A generally applicable atomic-charge dependent London dispersion correction
     J. Chem. Phys., 2019 150 154122
     doi.org/10.1063/1.5090222
  6. Caldeweyher,E.; Mewes,J.; Ehlert,S.; Grimme,S.
     Extension and evaluation of the D4 London-dispersion model for periodic systems
     Phys. Chem. Chem. Phys., 2020 22(16)8499-8512
     doi.org/10.1039/D0CP00502A
  7. Wittmann,L.; Gordiy,I.; Friede,M.; Helmich-Paris,B.; Grimme,S.; Hansen,A.; Bursch,M.
     Extension of the D3 and D4 London Dispersion Corrections to the full Actinides Series
     Phys. Chem. Chem. Phys., 2024 26(32)21379-21394
     doi.org/https://doi.org/10.1039/D4CP01514B 

List of suggested additional citations. These are papers that are important in the 'surrounding' of 
of this run, or papers that preceded the highly important papers. If you like your results we are grateful for a citation.

  1. Neese,F.
     The ORCA program system
     WIRES Comput. Molec. Sci., 2012 2(1)73-78
     doi.org/10.1002/wcms.81
  2. Neese,F.
     Software update: the ORCA program system, version 4.0
     WIRES Comput. Molec. Sci., 2018 8(1)1-6
     doi.org/10.1002/wcms.1327
  3. Neese,F.; Wennmohs,F.; Becker,U.; Riplinger,C.
     The ORCA quantum chemistry program package
     J. Chem. Phys., 2020 152 Art. No. L224108
     doi.org/10.1063/5.0004608

List of optional additional citations

  1. Neese,F.
     Approximate second-order SCF convergence for spin unrestricted wavefunctions
     Chem. Phys. Lett., 2000 325(1-3)93-98
     doi.org/10.1016/s0009-2614(00)00662-x

Timings for individual modules:

Sum of individual times          ...       19.503 sec (=   0.325 min)
Startup calculation              ...        0.836 sec (=   0.014 min)   4.3 %
SCF iterations                   ...       18.588 sec (=   0.310 min)  95.3 %
Property calculations            ...        0.079 sec (=   0.001 min)   0.4 %
                             ****ORCA TERMINATED NORMALLY****
TOTAL RUN TIME: 0 days 0 hours 0 minutes 19 seconds 625 msec
