11
 energy: -248.213355585569 gnorm: 0.022236984656 xtb: 6.7.1 (41059b4)
C            1.40079723362073       -0.00061870010027       -0.00004409830002
C            0.69353412330732       -1.19236956232837       -0.00004872440002
C           -0.69219221260673       -1.13301030940207        0.00011607670005
N           -1.37167246420782        0.00061583670027       -0.00000246660000
C           -0.69114183740626        1.13359769850233       -0.00011018180005
C            0.69461952690780        1.19177154442811        0.00014824490007
H            2.48163916579968       -0.00109530950049       -0.00024558050011
H            1.20363890753336       -2.14342620704981       -0.00023676080010
H           -1.29054581577187       -2.03503460390178       -0.00004006360002
H           -1.28877611047109        2.03612425750226       -0.00038776390017
H            1.20552407193420        2.14237325614934        0.00021374010009
11
 energy: -248.214017662717 gnorm: 0.006814671684 xtb: 6.7.1 (41059b4)
C            1.40241077723529       -0.00062195980483       -0.00004380201986
C            0.69406937735204       -1.19584615233998       -0.00009948631517
C           -0.69609802142812       -1.14014249286936       -0.00007857827595
N           -1.38427731535696        0.00061270744010       -0.00007580950087
C           -0.69507487311764        1.14074427812161       -0.00005477998369
C            0.69513652549172        1.19523622018721        0.00001046177952
H            2.48704848093792       -0.00110330849467       -0.00009419967142
H            1.20676281725803       -2.15067096525266       -0.00018117747324
H           -1.28749977535308       -2.05308148377803        0.00006995041815
H           -1.28570673322165        2.05418862266292       -0.00019895099856
H            1.20865332743119        2.14961234607339        0.00010879422444
11
 energy: -248.214079301222 gnorm: 0.001483812985 xtb: 6.7.1 (41059b4)
C            1.40353861871609       -0.00062187054373       -0.00006659881584
C            0.69404559598911       -1.19588424287126       -0.00008494977816
C           -0.69729699581202       -1.14130111014466       -0.00001982211045
N           -1.39119569225094        0.00061020911942       -0.00006914425089
C           -0.69628920219128        1.14190680366648       -0.00009694626317
C            0.69510107438610        1.19526845231288       -0.00003480531786
H            2.48921139960913       -0.00110261589455       -0.00004661099706
H            1.20646937766695       -2.15241676496716       -0.00012632393143
H           -1.28416357429877       -2.05897392999349       -0.00004241084864
H           -1.28235733675689        2.06009038805661       -0.00007642733765
H            1.20836133392013        2.15135245785559        0.00002645910188
11
 energy: -248.214083550488 gnorm: 0.000579390346 xtb: 6.7.1 (41059b4)
C            1.40434546786525       -0.00062128650936       -0.00004446552792
C            0.69391414362502       -1.19524691818186       -0.00007872774887
C           -0.69723976254495       -1.14065511494723       -0.00012576680238
N           -1.39374233699885        0.00060910942639       -0.00006262367465
C           -0.69623780175502        1.14126011661670       -0.00000520196540
C            0.69496460929539        1.19462927252661       -0.00003438942501
H            2.48997891823496       -0.00109968775445       -0.00005352068193
H            1.20481729325227       -2.15255997344656       -0.00008363331929
H           -1.28194892175125       -2.05956771021570       -0.00004149414684
H           -1.28013693111657        2.06068694079406       -0.00007597591706
H            1.20670993351624        2.15149302083795       -0.00003178512385
11
 energy: -248.214083550488 gnorm: 0.000579390346 xtb: 6.7.1 (41059b4)
C            1.40434546786525       -0.00062128650936       -0.00004446552792
C            0.69391414362502       -1.19524691818186       -0.00007872774887
C           -0.69723976254495       -1.14065511494723       -0.00012576680238
N           -1.39374233699885        0.00060910942639       -0.00006262367465
C           -0.69623780175502        1.14126011661670       -0.00000520196540
C            0.69496460929539        1.19462927252661       -0.00003438942501
H            2.48997891823496       -0.00109968775445       -0.00005352068193
H            1.20481729325227       -2.15255997344656       -0.00008363331929
H           -1.28194892175125       -2.05956771021570       -0.00004149414684
H           -1.28013693111657        2.06068694079406       -0.00007597591706
H            1.20670993351624        2.15149302083795       -0.00003178512385
