
                                 *****************
                                 * O   R   C   A *
                                 *****************

                                            #,                                       
                                            ###                                      
                                            ####                                     
                                            #####                                    
                                            ######                                   
                                           ########,                                 
                                     ,,################,,,,,                         
                               ,,#################################,,                 
                          ,,##########################################,,             
                       ,#########################################, ''#####,          
                    ,#############################################,,   '####,        
                  ,##################################################,,,,####,       
                ,###########''''           ''''###############################       
              ,#####''   ,,,,##########,,,,          '''####'''          '####       
            ,##' ,,,,###########################,,,                        '##       
           ' ,,###''''                  '''############,,,                           
         ,,##''                                '''############,,,,        ,,,,,,###''
      ,#''                                            '''#######################'''  
     '                                                          ''''####''''         
             ,#######,   #######,   ,#######,      ##                                
            ,#'     '#,  ##    ##  ,#'     '#,    #''#        ,####,   ,####,        
            ##       ##  ##   ,#'  ##            #'  '#       #'       #'  '#        
            ##       ##  #######   ##           ,######,      #####,   #    #        
            '#,     ,#'  ##    ##  '#,     ,#' ,#      #,     #,   #   #,  ,#        
             '#######'   ##     ##  '#######'  #'      '#     '####' # '####'        



                #########################################################
                #                        -***-                          #
                #          Department of theory and spectroscopy        #
                #                                                       #
                #                      Frank Neese                      #
                #                                                       #
                #     Directorship, Architecture, Infrastructure        #
                #                    SHARK, DRIVERS                     #
                #        Core code/Algorithms in most modules           #
                #                                                       #
                #        Max Planck Institute fuer Kohlenforschung      #
                #                Kaiser Wilhelm Platz 1                 #
                #                 D-45470 Muelheim/Ruhr                 #
                #                      Germany                          #
                #                                                       #
                #                  All rights reserved                  #
                #                        -***-                          #
                #########################################################


                         Program Version 6.0.1  -  RELEASE   -


 With contributions from (in alphabetic order):
[Max-Planck-Institut fuer Kohlenforschung]                               
  Daniel Aravena         : Magnetic Suceptibility                        
  Michael Atanasov       : Ab Initio Ligand Field Theory (pilot matlab implementation)
  Alexander A. Auer      : GIAO ZORA, VPT2 properties, NMR spectrum      
  Ute Becker             : All parallelization in ORCA, NUMFREQ, NUMCALC 
  Giovanni Bistoni       : ED, misc. LED, open-shell LED, HFLD           
  Martin Brehm           : Molecular dynamics                            
  Dmytro Bykov           : pre 5.0 version of the SCF Hessian            
  Marcos Casanova-Páez   : Triplet and SCS-CIS(D). UHF-(DLPNO)-IP/EA/STEOM-CCSD. UHF-CVS-IP/STEOM-CCSD   
  Vijay G. Chilkuri      : MRCI spin determinant printing, contributions to CSF-ICE 
  Pauline Colinet        : FMM embedding                                 
  Dipayan Datta          : RHF DLPNO-CCSD density                        
  Achintya Kumar Dutta   : EOM-CC, STEOM-CC                              
  Nicolas Foglia         : Exact transition moments, OPA infrastructure, MCD improvements    
  Dmitry Ganyushin       : Spin-Orbit,Spin-Spin,Magnetic field MRCI      
  Miquel Garcia-Rates    : C-PCM and meta-GGA Hessian, CCSD/C-PCM, Gaussian charge scheme 
  Tiago L. C. Gouveia    : GS-ROHF, GS-ROCIS                             
  Yang Guo               : DLPNO-NEVPT2, F12-NEVPT2, CIM, IAO-localization        
  Andreas Hansen         : Spin unrestricted coupled pair/coupled cluster methods 
  Ingolf Harden          : AUTO-CI MPn and infrastructure                
  Benjamin Helmich-Paris : MC-RPA, TRAH-(SCF,CASSCF), AVAS, COSX integrals, SCF dyn. polar. 
  Lee Huntington         : MR-EOM, pCC                                   
  Robert Izsak           : Overlap fitted RIJCOSX, COSX-SCS-MP3, EOM     
  Riya Kayal             : Wick's Theorem for AUTO-CI, AUTO-CI UHF-CCSDT 
  Emily Kempfer          : AUTO-CI, RHF CISDT and CCSDT                  
  Christian Kollmar      : KDIIS, OOCD, Brueckner-CCSD(T), CCSD density, CASPT2, CASPT2-K, improved NEVPT2 
  Axel Koslowski         : Symmetry handling                             
  Simone Kossmann        : meta-GGA functionals, TD-DFT gradient, OOMP2, (MP2 Hessian; deprecated post 5.0) 
  Lucas Lang             : DCDCAS                                        
  Marvin Lechner         : AUTO-CI (C++ implementation), FIC-MRCC        
  Spencer Leger          : CASSCF response                               
  Dagmar Lenk            : GEPOL surface, SMD, ORCA-2-JSON               
  Dimitrios Liakos       : Extrapolation schemes; Compound Job, initial MDCI parallelization 
  Dimitrios Manganas     : Further ROCIS development; embedding schemes. LFT, Crystal Embedding 
  Dimitrios Pantazis     : SARC Basis sets                               
  Anastasios Papadopoulos: AUTO-CI, single reference methods and gradients 
  Taras Petrenko         : pre 6.0 DFT Hessian and TD-DFT gradient, (ASA, deprecated), ECA, 1-Electron XAS/XES, NRVS 
  Peter Pinski           : DLPNO-MP2, DLPNO-MP2 Gradient                 
  Christoph Reimann      : Effective Core Potentials                     
  Marius Retegan         : Local ZFS, SOC                                
  Christoph Riplinger    : Optimizer, TS searches, QM/MM, DLPNO-CCSD(T), (RO)-DLPNO pert. Triples 
  Michael Roemelt        : Original ROCIS implementation                 
  Masaaki Saitow         : Open-shell DLPNO-CCSD energy and density      
  Barbara Sandhoefer     : DKH picture change effects                    
  Kantharuban Sivalingam : CASSCF convergence/infrastructure, NEVPT2 and variants, FIC-MRCI 
  Bernardo de Souza      : ESD, SOC TD-DFT                               
  Georgi L. Stoychev     : AutoAux, RI-MP2 NMR, DLPNO-MP2 response, X2C  
  Van Anh Tran           : RI-MP2 g-tensors                              
  Willem Van den Heuvel  : Paramagnetic NMR                              
  Zikuan Wang            : NOTCH, Electric field optimization            
  Frank Wennmohs         : Technical directorship and infrastructure     
  Hang Xu                : AUTO-CI-Response properties                   
                                                                         
[FACCTs GmbH]                                                            
  Markus Bursch, Miquel Garcia-Rates, Christoph Riplinger, Bernardo de Souza, Georgi L. Stoychev 
                                                                 
  APM, Basis sets (HGBS, AHGBS, def-TZVP (Ac-Lr), def2-XVPD (La-Lu)), CI-OPT, improved COSX, DLPNO-Multilevel,           
  DOCKER, DRACO, updates on ESD, GOAT, IRC, LR-CPCM, MBIS, meta-GGA TD-DFT gradient, ML-optimized integration grids, 
  MM, NACMEs, nearIR, NEB, NEB-TS, NL-DFT gradient (VV10), 2- and 3-layer-ONIOM, interface openCOSMO-RS, QMMM,   
  Crystal-QMMM, SF, symmetry and pop. for TD-DFT, r2SCAN hybrids, SOLVATOR                                   
                                                                         
[Other institutions]                                                     
  V. Asgeirsson          : NEB                                           
  Christoph Bannwarth    : sTDA-DFT, sTD-DFT, PBEh-3c, B97-3c, D3        
  Sebastian Ehlert       : rSCAN, r2SCAN, r2SCAN-3c, D4, dhf basis sets  
  Marvin Friede          : D4 for Fr, Ra, Ac-Lr                          
  Lars Goerigk           : TD-DFT with DH, B97 family of functionals     
  Stefan Grimme          : VdW corrections, initial TS optimization, DFT functionals, gCP, sTDA/sTD-DF 
  Waldemar Hujo          : DFT-NL                                        
  H. Jonsson             : NEB                                           
  Holger Kruse           : gCP                                           
  Marcel Mueller         : wB97X-3c, vDZP basis set                      
  Hagen Neugebauer       : wr2SCAN                                       
  Tobias Risthaus        : range-separated hybrid DFT                    
  Lukas Wittmann         : regularized MP2, r2SCAN double-hybrids, wr2SCAN        
                                                                         
We gratefully acknowledge several colleagues who have allowed us to      
interface, adapt or use parts of their codes:                            
  Ed Valeev, F. Pavosevic, A. Kumar             : LibInt (2-el integral package), F12 methods 
  Garnet Chan, S. Sharma, J. Yang, R. Olivares  : DMRG                   
  Ulf Ekstrom                                   : XCFun DFT Library      
  Mihaly Kallay                                 : mrcc  (arbitrary order and MRCC methods)
  Frank Weinhold                                : gennbo (NPA and NBO analysis)           
  Simon Mueller                                 : openCOSMO-RS                            
  Christopher J. Cramer and Donald G. Truhlar   : smd solvation model                     
  S Lehtola, MJT Oliveira, MAL Marques          : LibXC Library                           
  Liviu Ungur et al                             : ANISO software                          


 Your calculation uses the libint2 library for the computation of 2-el integrals
 For citations please refer to: http://libint.valeyev.net

 Your ORCA version has been built with support for libXC version: 6.2.2
 For citations please refer to: https://libxc.gitlab.io

 This ORCA versions uses:
   CBLAS   interface :  Fast vector & matrix operations
   LAPACKE interface :  Fast linear algebra routines
   SCALAPACK package :  Parallel linear algebra routines
   Shared memory     :  Shared parallel matrices
   BLAS/LAPACK       :  OpenBLAS 0.3.27  USE64BITINT DYNAMIC_ARCH NO_AFFINITY Zen SINGLE_THREADED
        Core in use  :  Zen
   Copyright (c) 2011-2014, The OpenBLAS Project


Your calculation utilizes the geometrical counterpoise correction gCP
Please cite in your paper:
H.Kruse, S. Grimme J.Chem.Phys., 136, (2012), 154101 
   

Your calculation utilizes the atom-pairwise dispersion correction
based on EEQ partial charges (D4)


================================================================================

----- Orbital basis set information -----
Your calculation utilizes the basis: def2-SV(P)
   F. Weigend and R. Ahlrichs, Phys. Chem. Chem. Phys. 7, 3297 (2005).

----- AuxJ basis set information -----
Your calculation utilizes the auxiliary basis: def2/J
   F. Weigend, Phys. Chem. Chem. Phys. 8, 1057 (2006).

================================================================================
                                        WARNINGS
                       Please study these warnings very carefully!
================================================================================

WARNING: Old DensityContainer found on disk!
         Will remove this file - 
         If you want to keep old densities, please start your calculation with a different basename. 


================================================================================
                                       INPUT FILE
================================================================================
NAME = sp.inp
|  1> ! pbe def2-sv(p) def2/J RI DEFGRID1 loosescf d4 GCP(DFT/SV(P)) printgap
|  2> %output
|  3>     printlevel normal
|  4> end
|  5> * xyz 0 1
|  6> C -2.1926386527 0.3859283674 0.6766368246
|  7> C -1.3174052079 0.4488065731 -0.5765695086
|  8> C 0.0015729629 -0.2324823291 -0.2956887782
|  9> O 0.1928763606 -1.4182151792 -0.3453696335
| 10> O 0.9318329215 0.663442981 0.0569785656
| 11> C 2.222747123 0.1761177387 0.3991357996
| 12> H -3.1602517426 0.8401229842 0.4790429229
| 13> H -2.3462323771 -0.648415956 0.9745686528
| 14> H -1.7191102404 0.9193624491 1.4975330014
| 15> H -1.1331042413 1.4852999522 -0.8569123852
| 16> H -1.8095439064 -0.0762547801 -1.3955334563
| 17> H 2.8998606581 0.3278530724 -0.4431050735
| 18> H 2.1685635797 -0.8878586594 0.6366718961
| 19> H 2.5679744079 0.7454133424 1.2604017152
| 20> *
| 21> 
| 22>                          ****END OF INPUT****
================================================================================

                       ****************************
                       * Single Point Calculation *
                       ****************************

---------------------------------
CARTESIAN COORDINATES (ANGSTROEM)
---------------------------------
  C     -2.192639    0.385928    0.676637
  C     -1.317405    0.448807   -0.576570
  C      0.001573   -0.232482   -0.295689
  O      0.192876   -1.418215   -0.345370
  O      0.931833    0.663443    0.056979
  C      2.222747    0.176118    0.399136
  H     -3.160252    0.840123    0.479043
  H     -2.346232   -0.648416    0.974569
  H     -1.719110    0.919362    1.497533
  H     -1.133104    1.485300   -0.856912
  H     -1.809544   -0.076255   -1.395533
  H      2.899861    0.327853   -0.443105
  H      2.168564   -0.887859    0.636672
  H      2.567974    0.745413    1.260402

----------------------------
CARTESIAN COORDINATES (A.U.)
----------------------------
  NO LB      ZA    FRAG     MASS         X           Y           Z
   0 C     6.0000    0    12.011   -4.143487    0.729299    1.278658
   1 C     6.0000    0    12.011   -2.489535    0.848122   -1.089558
   2 C     6.0000    0    12.011    0.002972   -0.439328   -0.558771
   3 O     8.0000    0    15.999    0.364483   -2.680038   -0.652654
   4 O     8.0000    0    15.999    1.760909    1.253726    0.107674
   5 C     6.0000    0    12.011    4.200383    0.332814    0.754257
   6 H     1.0000    0     1.008   -5.972010    1.587602    0.905260
   7 H     1.0000    0     1.008   -4.433737   -1.225329    1.841668
   8 H     1.0000    0     1.008   -3.248648    1.737343    2.829927
   9 H     1.0000    0     1.008   -2.141257    2.806810   -1.619330
  10 H     1.0000    0     1.008   -3.419542   -0.144101   -2.637176
  11 H     1.0000    0     1.008    5.479942    0.619553   -0.837347
  12 H     1.0000    0     1.008    4.097991   -1.677810    1.203136
  13 H     1.0000    0     1.008    4.852768    1.408627    2.381814

--------------------------------
INTERNAL COORDINATES (ANGSTROEM)
--------------------------------
 C      0   0   0     0.000000000000     0.00000000     0.00000000
 C      1   0   0     1.529873643547     0.00000000     0.00000000
 C      2   1   0     1.510877879915   109.18463328     0.00000000
 O      3   2   1     1.202092995222   125.17189229    82.18825022
 O      3   2   1     1.338820379004   110.71996303   263.95859353
 C      5   3   2     1.421624753652   117.70722528   177.94211985
 H      1   2   3     1.087019407216   110.07049081   182.07861344
 H      1   2   3     1.087300595870   110.14341178   301.99004453
 H      1   2   3     1.087497866600   110.43056274    62.11190756
 H      2   1   3     1.089439075703   110.28415192   239.98963991
 H      2   1   3     1.090225605468   109.71225878   118.73105874
 H      6   5   3     1.091272669514   109.26943017   101.55712071
 H      6   5   3     1.091515015572   109.96502539   341.30665678
 H      6   5   3     1.088603848976   107.40479757   220.78644447

---------------------------
INTERNAL COORDINATES (A.U.)
---------------------------
 C      0   0   0     0.000000000000     0.00000000     0.00000000
 C      1   0   0     2.891042205809     0.00000000     0.00000000
 C      2   1   0     2.855145414840   109.18463328     0.00000000
 O      3   2   1     2.271626548474   125.17189229    82.18825022
 O      3   2   1     2.530003858829   110.71996303   263.95859353
 C      5   3   2     2.686481449605   117.70722528   177.94211985
 H      1   2   3     2.054168981896   110.07049081   182.07861344
 H      1   2   3     2.054700351444   110.14341178   301.99004453
 H      1   2   3     2.055073139097   110.43056274    62.11190756
 H      2   1   3     2.058741492671   110.28415192   239.98963991
 H      2   1   3     2.060227818523   109.71225878   118.73105874
 H      6   5   3     2.062206482815   109.26943017   101.55712071
 H      6   5   3     2.062664450494   109.96502539   341.30665678
 H      6   5   3     2.057163142898   107.40479757   220.78644447

---------------------
BASIS SET INFORMATION
---------------------
There are 3 groups of distinct atoms

 Group   1 Type C   : 7s4p1d contracted to 3s2p1d pattern {511/31/1}
 Group   2 Type O   : 7s4p1d contracted to 3s2p1d pattern {511/31/1}
 Group   3 Type H   : 4s contracted to 2s pattern {31}

Atom   0C    basis set group =>   1
Atom   1C    basis set group =>   1
Atom   2C    basis set group =>   1
Atom   3O    basis set group =>   2
Atom   4O    basis set group =>   2
Atom   5C    basis set group =>   1
Atom   6H    basis set group =>   3
Atom   7H    basis set group =>   3
Atom   8H    basis set group =>   3
Atom   9H    basis set group =>   3
Atom  10H    basis set group =>   3
Atom  11H    basis set group =>   3
Atom  12H    basis set group =>   3
Atom  13H    basis set group =>   3
---------------------------------
AUXILIARY/J BASIS SET INFORMATION
---------------------------------
There are 3 groups of distinct atoms

 Group   1 Type C   : 12s5p4d2f1g contracted to 6s4p3d1f1g pattern {711111/2111/211/2/1}
 Group   2 Type O   : 12s5p4d2f1g contracted to 6s4p3d1f1g pattern {711111/2111/211/2/1}
 Group   3 Type H   : 5s2p1d contracted to 3s1p1d pattern {311/2/1}

Atom   0C    basis set group =>   1
Atom   1C    basis set group =>   1
Atom   2C    basis set group =>   1
Atom   3O    basis set group =>   2
Atom   4O    basis set group =>   2
Atom   5C    basis set group =>   1
Atom   6H    basis set group =>   3
Atom   7H    basis set group =>   3
Atom   8H    basis set group =>   3
Atom   9H    basis set group =>   3
Atom  10H    basis set group =>   3
Atom  11H    basis set group =>   3
Atom  12H    basis set group =>   3
Atom  13H    basis set group =>   3

Checking for AutoStart:
The File: sp.gbw exists
Trying to determine its content:
     ... Fine, the file contains calculation information
     ... Fine, the calculation information was read
     ... Fine, the file contains a basis set
     ... Fine, the basis set was read
     ... Fine, the file contains a geometry
     ... Fine, the geometry was read
     ... Fine, the file contains a set of orbitals
     ... Fine, the orbitals can be read
     => possible old guess file was deleted
     => GBW file was renamed to GES file
     => GES file is set as startup file
     => Guess is set to MORead
     ... now leaving AutoStart

------------------------------------------------------------------------------
                             ORCA STARTUP CALCULATIONS
                           -- RI-GTO INTEGRALS CHOSEN --
------------------------------------------------------------------------------
------------------------------------------------------------------------------
                   ___                                                        
                  /   \      - P O W E R E D   B Y -                         
                 /     \                                                     
                 |  |  |   _    _      __       _____    __    __             
                 |  |  |  | |  | |    /  \     |  _  \  |  |  /  |          
                  \  \/   | |  | |   /    \    | | | |  |  | /  /          
                 / \  \   | |__| |  /  /\  \   | |_| |  |  |/  /          
                |  |  |   |  __  | /  /__\  \  |    /   |      \           
                |  |  |   | |  | | |   __   |  |    \   |  |\   \          
                \     /   | |  | | |  |  |  |  | |\  \  |  | \   \       
                 \___/    |_|  |_| |__|  |__|  |_| \__\ |__|  \__/        
                                                                              
                      - O R C A' S   B I G   F R I E N D -                    
                                      &                                       
                       - I N T E G R A L  F E E D E R -                       
                                                                              
 v1 FN, 2020, v2 2021, v3 2022-2024                                           
------------------------------------------------------------------------------


----------------------
SHARK INTEGRAL PACKAGE
----------------------

Number of atoms                             ...     14
Number of basis functions                   ...    100
Number of shells                            ...     52
Maximum angular momentum                    ...      2
Integral batch strategy                     ... SHARK/LIBINT Hybrid
RI-J (if used) integral strategy            ... SPLIT-RIJ (Revised 2003 algorithm where possible)
Printlevel                                  ...      1
Contraction scheme used                     ... SEGMENTED contraction
Prescreening option                         ... SCHWARTZ
   Thresh                                   ... 1.000e-09
   Tcut                                     ... 1.000e-10
   Tpresel                                  ... 1.000e-10 
Coulomb Range Separation                    ... NOT USED
Exchange Range Separation                   ... NOT USED
Multipole approximations                    ... NOT USED
Finite Nucleus Model                        ... NOT USED
CABS basis                                  ... NOT available
Auxiliary Coulomb fitting basis             ... AVAILABLE
   # of basis functions in Aux-J            ...    382
   # of shells in Aux-J                     ...    130
   Maximum angular momentum in Aux-J        ...      4
Auxiliary J/K fitting basis                 ... NOT available
Auxiliary Correlation fitting basis         ... NOT available
Auxiliary 'external' fitting basis          ... NOT available

Checking pre-screening integrals            ... done (  0.0 sec) Dimension = 52
Check shell pair data                       ... done (  0.0 sec)
Shell pair information
Shell pair cut-off parameter TPreSel        ...   1.0e-10
Total number of shell pairs                 ...      1378
Shell pairs after pre-screening             ...      1334
Total number of primitive shell pairs       ...      5562
Primitive shell pairs kept                  ...      3895
          la=0 lb=0:    565 shell pairs
          la=1 lb=0:    403 shell pairs
          la=1 lb=1:     78 shell pairs
          la=2 lb=0:    195 shell pairs
          la=2 lb=1:     72 shell pairs
          la=2 lb=2:     21 shell pairs

Calculating one electron integrals          ... done (  0.0 sec)
Calculating RI/J V-Matrix + Cholesky decomp.... done (  0.0 sec)
Calculating Nuclear repulsion               ... done (  0.0 sec) ENN=    246.963178590400 Eh

Diagonalization of the overlap matrix:
Smallest eigenvalue                        ... 2.392e-03
Time for diagonalization                   ...    0.001 sec
Threshold for overlap eigenvalues          ... 1.000e-07
Number of eigenvalues below threshold      ... 0
Time for construction of square roots      ...    0.000 sec
Total time needed                          ...    0.003 sec

-------------------
DFT GRID GENERATION
-------------------

General Integration Accuracy     IntAcc      ... 4.159
Radial Grid Type                 RadialGrid  ... OptM3 with GC (2021)
Angular Grid (max. ang.)         AngularGrid ... 3 (Lebedev-194)
Angular grid pruning method      GridPruning ... 4 (adaptive)
Weight generation scheme         WeightScheme... mBecke (2022)
Basis function cutoff            BFCut       ... 1.0000e-10
Integration weight cutoff        WCut        ... 1.0000e-14
Partially contracted basis set               ... off
Rotationally invariant grid construction     ... off
Angular grids for H and He will be reduced by one unit

Total number of grid points                  ...    31140
Total number of batches                      ...      494
Average number of points per batch           ...       63
Average number of grid points per atom       ...     2224
Initializing property integral containers    ... done (  0.0 sec)

SHARK setup successfully completed in   0.2 seconds

Maximum memory used throughout the entire STARTUP-calculation: 15.8 MB
-------------------------------------------------------------------------------
                                 ORCA GUESS
                   Start orbitals & Density for SCF / CASSCF
-------------------------------------------------------------------------------

------------
SCF SETTINGS
------------
Hamiltonian:
 Density Functional     Method          .... DFT(GTOs)
 Exchange Functional    Exchange        .... PBE
   PBE kappa parameter   XKappa         ....  0.804000
   PBE mue parameter    XMuePBE         ....  0.219520
 Correlation Functional Correlation     .... PBE
   PBE beta parameter  CBetaPBE         ....  0.066725
 LDA part of GGA corr.  LDAOpt          .... PW91-LDA
 Gradients option       PostSCFGGA      .... off
   NL short-range parameter             ....  6.400000
 RI-approximation to the Coulomb term is turned on
   Number of AuxJ basis functions       .... 382


General Settings:
 Integral files         IntName         .... sp
 Hartree-Fock type      HFTyp           .... RHF
 Total Charge           Charge          ....    0
 Multiplicity           Mult            ....    1
 Number of Electrons    NEL             ....   48
 Basis Dimension        Dim             ....  100
 Nuclear Repulsion      ENuc            ....    246.9631785904 Eh

Convergence Acceleration:
 AO-DIIS                CNVDIIS         .... on
   Start iteration      DIISMaxIt       ....    12
   Startup error        DIISStart       ....  0.200000
   # of expansion vecs  DIISMaxEq       ....     5
   Bias factor          DIISBfac        ....   1.050
   Max. coefficient     DIISMaxC        ....  10.000
 MO-DIIS                CNVKDIIS        .... off
 Trust-Rad. Augm. Hess. CNVTRAH         .... auto
   Auto Start mean grad. ratio tolernc. ....  1.125000
   Auto Start start iteration           ....     1
   Auto Start num. interpolation iter.  ....    10
   Max. Number of Micro iterations      ....    24
   Max. Number of Macro iterations      .... Maxiter - #DIIS iter
   Number of Davidson start vectors     ....     2
   Converg. threshold    (grad. norm)   ....   1.000e-04
   Grad. Scal. Fac. for Micro threshold ....   0.100
   Minimum threshold for Micro iter.    ....   1.000e-02
   NR start threshold (gradient norm)   ....   1.000e-04
   Initial trust radius                 ....   0.400
   Minimum AH scaling param. (alpha)    ....   1.000
   Maximum AH scaling param. (alpha)    .... 1000.000
   Quad. conv. algorithm                .... NR
   White noise on init. David. guess    .... on
   Maximum white noise                  ....   0.010
   Pseudo random numbers                .... off
   Inactive MOs                         .... canonical
   Orbital update algorithm             .... Taylor
   Preconditioner                       .... Diag
   Full preconditioner red. dimension   ....   250
 SOSCF                  CNVSOSCF        .... on
   Start iteration      SOSCFMaxIt      ....   150
   Startup grad/error   SOSCFStart      ....  0.003300
   Hessian update       SOSCFHessUp     .... L-BFGS
 Level Shifting         CNVShift        .... on
   Level shift para.    LevelShift      ....    0.2500
   Turn off err/grad.   ShiftErr        ....    0.0010
 Zerner damping         CNVZerner       .... off
 Static damping         CNVDamp         .... on
   Fraction old density DampFac         ....    0.7000
   Max. Damping (<1)    DampMax         ....    0.9800
   Min. Damping (>=0)   DampMin         ....    0.0000
   Turn off err/grad.   DampErr         ....    0.1000

SCF Procedure:
 Maximum # iterations   MaxIter         ....   125
 SCF integral mode      SCFMode         .... Direct
   Integral package                     .... SHARK and LIBINT hybrid scheme
 Reset frequency        DirectResetFreq ....    20
 Integral Threshold     Thresh          ....  1.000e-09 Eh
 Primitive CutOff       TCut            ....  1.000e-10 Eh

Convergence Tolerance:
 Convergence Check Mode ConvCheckMode   .... Total+1el-Energy
 Convergence forced     ConvForced      .... 0
 Energy Change          TolE            ....  1.000e-05 Eh
 1-El. energy change                    ....  1.000e-02 Eh
 Orbital Gradient       TolG            ....  1.000e-04
 Orbital Rotation angle TolX            ....  1.000e-04
 DIIS Error             TolErr          ....  5.000e-04

---------------------
INITIAL GUESS: MOREAD
---------------------
Guess MOs are being read from file: sp.ges
Input Geometry matches current geometry (good)
Input basis set matches current basis set (good)
Occupation numbers will be reassigned to an Aufbau configuration
MOs were renormalized
MOs were reorthogonalized (Cholesky)
                      ------------------
                      INITIAL GUESS DONE (   0.0 sec)
                      ------------------
             **** ENERGY FILE WAS UPDATED (sp.en.tmp) ****
Finished Guess after   0.0 sec
Maximum memory used throughout the entire GUESS-calculation: 8.1 MB

-------------------------------------------------------------------------------------------
                                      ORCA LEAN-SCF
                              memory conserving SCF solver
-------------------------------------------------------------------------------------------

----------------------------------------D-I-I-S--------------------------------------------
Iteration    Energy (Eh)           Delta-E    RMSDP     MaxDP     DIISErr   Damp  Time(sec)
-------------------------------------------------------------------------------------------
               ***  Starting incremental Fock matrix formation  ***
                              *** Initializing SOSCF ***
---------------------------------------S-O-S-C-F--------------------------------------
Iteration    Energy (Eh)           Delta-E    RMSDP     MaxDP     MaxGrad    Time(sec)
--------------------------------------------------------------------------------------
    1    -307.0800693708041536     0.00e+00  8.69e-07  1.52e-05  1.93e-06     0.2
               *** Restarting incremental Fock matrix formation ***
    2    -307.0800693709645657    -1.60e-10  9.00e-07  1.78e-05  2.56e-06     0.2
                  *** Gradient check signals convergence ***

               *****************************************************
               *                     SUCCESS                       *
               *           SCF CONVERGED AFTER   2 CYCLES          *
               *****************************************************

             **** ENERGY FILE WAS UPDATED (sp.en.tmp) ****

----------------
TOTAL SCF ENERGY
----------------

Total Energy       :       -307.08006937096457 Eh           -8356.07350 eV

Components:
Nuclear Repulsion  :        246.96317859040025 Eh            6720.20974 eV
Electronic Energy  :       -554.04324796136484 Eh          -15076.28324 eV
One Electron Energy:       -906.83152537516003 Eh          -24676.14032 eV
Two Electron Energy:        352.78827741379519 Eh            9599.85708 eV

Virial components:
Potential Energy   :       -611.83041077513917 Eh          -16648.75188 eV
Kinetic Energy     :        304.75034140417455 Eh            8292.67838 eV
Virial Ratio       :          2.00764470994866

DFT components:
N(Alpha)           :       23.999951017984 electrons
N(Beta)            :       23.999951017984 electrons
N(Total)           :       47.999902035968 electrons
E(X)               :      -39.888292819346 Eh       
E(C)               :       -1.596511768310 Eh       
E(XC)              :      -41.484804587657 Eh       

---------------
SCF CONVERGENCE
---------------

  Last Energy change         ...    1.6041e-10  Tolerance :   1.0000e-05
  Last MAX-Density change    ...    1.7840e-05  Tolerance :   1.0000e-03
  Last RMS-Density change    ...    8.9971e-07  Tolerance :   1.0000e-04
  Last DIIS Error            ...    9.9892e-06  Tolerance :   5.0000e-04
  Last Orbital Gradient      ...    2.5628e-06  Tolerance :   1.0000e-04
  Last Orbital Rotation      ...    6.6575e-06  Tolerance :   1.0000e-04


----------------
ORBITAL ENERGIES
----------------

  NO   OCC          E(Eh)            E(eV) 
   0   2.0000     -18.799118      -511.5500 
   1   2.0000     -18.735338      -509.8145 
   2   2.0000     -10.003823      -272.2179 
   3   2.0000      -9.936979      -270.3990 
   4   2.0000      -9.897679      -269.3295 
   5   2.0000      -9.887274      -269.0464 
   6   2.0000      -1.004574       -27.3358 
   7   2.0000      -0.915000       -24.8984 
   8   2.0000      -0.714974       -19.4554 
   9   2.0000      -0.654905       -17.8209 
  10   2.0000      -0.573219       -15.5981 
  11   2.0000      -0.505396       -13.7525 
  12   2.0000      -0.449462       -12.2305 
  13   2.0000      -0.431444       -11.7402 
  14   2.0000      -0.423017       -11.5109 
  15   2.0000      -0.391885       -10.6637 
  16   2.0000      -0.382030       -10.3956 
  17   2.0000      -0.362893        -9.8748 
  18   2.0000      -0.333381        -9.0718 
  19   2.0000      -0.319786        -8.7018 
  20   2.0000      -0.313563        -8.5325 
  21   2.0000      -0.296505        -8.0683 
  22   2.0000      -0.256329        -6.9751 
  23   2.0000      -0.221079        -6.0159 
  24   0.0000      -0.018740        -0.5099 
  25   0.0000       0.046697         1.2707 
  26   0.0000       0.064854         1.7648 
  27   0.0000       0.089389         2.4324 
  28   0.0000       0.093821         2.5530 
  29   0.0000       0.095557         2.6002 
  30   0.0000       0.106994         2.9114 
  31   0.0000       0.118431         3.2227 
  32   0.0000       0.122590         3.3358 
  33   0.0000       0.134486         3.6596 
  34   0.0000       0.167836         4.5671 
*Only the first 10 virtual orbitals were printed.

                    ********************************
                    * MULLIKEN POPULATION ANALYSIS *
                    ********************************

-----------------------
MULLIKEN ATOMIC CHARGES
-----------------------
   0 C :   -0.302939
   1 C :   -0.141594
   2 C :    0.094792
   3 O :   -0.194259
   4 O :   -0.248672
   5 C :   -0.132051
   6 H :    0.116377
   7 H :    0.119712
   8 H :    0.110800
   9 H :    0.100678
  10 H :    0.107892
  11 H :    0.119471
  12 H :    0.129856
  13 H :    0.119935
Sum of atomic charges:    0.0000000

--------------------------------
MULLIKEN REDUCED ORBITAL CHARGES
--------------------------------
  0 C s       :     3.113617  s :     3.113617
      pz      :     1.024139  p :     3.159775
      px      :     1.045836
      py      :     1.089800
      dz2     :     0.006383  d :     0.029547
      dxz     :     0.005785
      dyz     :     0.006264
      dx2y2   :     0.006443
      dxy     :     0.004671

  1 C s       :     3.028797  s :     3.028797
      pz      :     1.055608  p :     3.079277
      px      :     1.003695
      py      :     1.019974
      dz2     :     0.006890  d :     0.033519
      dxz     :     0.006723
      dyz     :     0.006734
      dx2y2   :     0.007160
      dxy     :     0.006013

  2 C s       :     3.056442  s :     3.056442
      pz      :     0.854900  p :     2.717767
      px      :     0.947511
      py      :     0.915357
      dz2     :     0.008529  d :     0.130999
      dxz     :     0.009866
      dyz     :     0.029597
      dx2y2   :     0.030077
      dxy     :     0.052930

  3 O s       :     3.737052  s :     3.737052
      pz      :     1.418946  p :     4.439035
      px      :     1.694071
      py      :     1.326019
      dz2     :     0.002007  d :     0.018171
      dxz     :     0.000186
      dyz     :     0.005495
      dx2y2   :     0.006052
      dxy     :     0.004432

  4 O s       :     3.731985  s :     3.731985
      pz      :     1.672107  p :     4.500384
      px      :     1.235457
      py      :     1.592821
      dz2     :     0.002083  d :     0.016302
      dxz     :     0.002419
      dyz     :     0.002623
      dx2y2   :     0.003311
      dxy     :     0.005867

  5 C s       :     3.128220  s :     3.128220
      pz      :     1.077432  p :     2.952160
      px      :     0.794413
      py      :     1.080314
      dz2     :     0.007080  d :     0.051671
      dxz     :     0.014771
      dyz     :     0.005511
      dx2y2   :     0.014641
      dxy     :     0.009668

  6 H s       :     0.883623  s :     0.883623

  7 H s       :     0.880288  s :     0.880288

  8 H s       :     0.889200  s :     0.889200

  9 H s       :     0.899322  s :     0.899322

 10 H s       :     0.892108  s :     0.892108

 11 H s       :     0.880529  s :     0.880529

 12 H s       :     0.870144  s :     0.870144

 13 H s       :     0.880065  s :     0.880065


------------------------
MULLIKEN OVERLAP CHARGES
------------------------
B(  0-C ,  1-C ) :   0.9166 B(  0-C ,  2-C ) :  -0.0665 B(  0-C ,  6-H ) :   0.7543 
B(  0-C ,  7-H ) :   0.7553 B(  0-C ,  8-H ) :   0.7532 B(  1-C ,  2-C ) :   0.6940 
B(  1-C ,  3-O ) :  -0.1741 B(  1-C ,  4-O ) :  -0.2484 B(  1-C ,  7-H ) :  -0.0718 
B(  1-C ,  8-H ) :  -0.0661 B(  1-C ,  9-H ) :   0.6114 B(  1-C , 10-H ) :   0.6576 
B(  2-C ,  3-O ) :   1.3807 B(  2-C ,  4-O ) :   0.7029 B(  2-C ,  5-C ) :  -0.0767 
B(  3-O ,  4-O ) :  -0.1682 B(  3-O , 12-H ) :   0.0799 B(  4-O ,  5-C ) :   0.5586 
B(  4-O , 11-H ) :  -0.0560 B(  4-O , 12-H ) :  -0.0705 B(  4-O , 13-H ) :  -0.0563 
B(  5-C , 11-H ) :   0.7815 B(  5-C , 12-H ) :   0.7250 B(  5-C , 13-H ) :   0.7647 
B( 11-H , 12-H ) :  -0.0550 B( 11-H , 13-H ) :  -0.0579 


                     *******************************
                     * LOEWDIN POPULATION ANALYSIS *
                     *******************************

----------------------
LOEWDIN ATOMIC CHARGES
----------------------
   0 C :   -0.330116
   1 C :   -0.250218
   2 C :    0.036760
   3 O :   -0.158456
   4 O :   -0.081115
   5 C :   -0.213197
   6 H :    0.123776
   7 H :    0.126147
   8 H :    0.122027
   9 H :    0.129278
  10 H :    0.135593
  11 H :    0.118323
  12 H :    0.122121
  13 H :    0.119078

-------------------------------
LOEWDIN REDUCED ORBITAL CHARGES
-------------------------------
  0 C s       :     2.945900  s :     2.945900
      pz      :     1.082451  p :     3.313335
      px      :     1.095261
      py      :     1.135623
      dz2     :     0.015072  d :     0.070881
      dxz     :     0.015665
      dyz     :     0.013862
      dx2y2   :     0.015645
      dxy     :     0.010637

  1 C s       :     2.916763  s :     2.916763
      pz      :     1.090511  p :     3.249790
      px      :     1.061577
      py      :     1.097702
      dz2     :     0.016642  d :     0.083666
      dxz     :     0.018598
      dyz     :     0.014730
      dx2y2   :     0.018145
      dxy     :     0.015552

  2 C s       :     2.848757  s :     2.848757
      pz      :     0.839413  p :     2.816299
      px      :     0.962390
      py      :     1.014496
      dz2     :     0.019934  d :     0.298184
      dxz     :     0.018292
      dyz     :     0.060558
      dx2y2   :     0.071955
      dxy     :     0.127445

  3 O s       :     3.543001  s :     3.543001
      pz      :     1.418464  p :     4.583436
      px      :     1.696814
      py      :     1.468158
      dz2     :     0.004446  d :     0.032019
      dxz     :     0.000215
      dyz     :     0.007145
      dx2y2   :     0.012910
      dxy     :     0.007303

  4 O s       :     3.453584  s :     3.453584
      pz      :     1.659545  p :     4.594425
      px      :     1.298707
      py      :     1.636173
      dz2     :     0.003971  d :     0.033105
      dxz     :     0.005179
      dyz     :     0.003757
      dx2y2   :     0.007139
      dxy     :     0.013060

  5 C s       :     2.963745  s :     2.963745
      pz      :     1.128545  p :     3.134910
      px      :     0.871953
      py      :     1.134411
      dz2     :     0.015519  d :     0.114542
      dxz     :     0.033531
      dyz     :     0.012557
      dx2y2   :     0.032925
      dxy     :     0.020010

  6 H s       :     0.876224  s :     0.876224

  7 H s       :     0.873853  s :     0.873853

  8 H s       :     0.877973  s :     0.877973

  9 H s       :     0.870722  s :     0.870722

 10 H s       :     0.864407  s :     0.864407

 11 H s       :     0.881677  s :     0.881677

 12 H s       :     0.877879  s :     0.877879

 13 H s       :     0.880922  s :     0.880922


---------------------------------
LOEWDIN BOND ORDERS (THRESH 0.050000)
---------------------------------
B(  0-C ,  1-C ) :   1.1127 B(  0-C ,  2-C ) :   0.0694 B(  0-C ,  6-H ) :   0.9368 
B(  0-C ,  7-H ) :   0.9388 B(  0-C ,  8-H ) :   0.9409 B(  1-C ,  2-C ) :   1.0546 
B(  1-C ,  3-O ) :   0.0942 B(  1-C ,  4-O ) :   0.0721 B(  1-C ,  9-H ) :   0.8990 
B(  1-C , 10-H ) :   0.8956 B(  2-C ,  3-O ) :   2.2310 B(  2-C ,  4-O ) :   1.3801 
B(  2-C ,  5-C ) :   0.0768 B(  3-O ,  4-O ) :   0.2108 B(  4-O ,  5-C ) :   1.1182 
B(  5-C , 11-H ) :   0.9500 B(  5-C , 12-H ) :   0.9329 B(  5-C , 13-H ) :   0.9520 


------------------------------------------
LOEWDIN REDUCED ORBITAL POPULATIONS PER MO
-------------------------------------------
THRESHOLD FOR PRINTING IS 0.1%%
                      0         1         2         3         4         5   
                 -18.79912 -18.73534 -10.00382  -9.93698  -9.89768  -9.88727
                   2.00000   2.00000   2.00000   2.00000   2.00000   2.00000
                  --------  --------  --------  --------  --------  --------
 0 C  s               0.0       0.0       0.0       0.0       0.0      99.7
 1 C  s               0.0       0.0       0.0       0.0      99.6       0.0
 2 C  s               0.0       0.0      99.3       0.0       0.0       0.0
 3 O  s               0.0      99.9       0.0       0.0       0.0       0.0
 3 O  py              0.0       0.0       0.3       0.0       0.0       0.0
 4 O  s              99.9       0.0       0.0       0.0       0.0       0.0
 5 C  s               0.0       0.0       0.0      99.7       0.0       0.0

                      6         7         8         9        10        11   
                  -1.00457  -0.91500  -0.71497  -0.65491  -0.57322  -0.50540
                   2.00000   2.00000   2.00000   2.00000   2.00000   2.00000
                  --------  --------  --------  --------  --------  --------
 0 C  s               0.1       0.0      16.2      11.0      18.7       0.6
 0 C  pz              0.0       0.0       1.8       0.2       3.5       1.8
 0 C  px              0.1       0.0       1.3       0.0       2.0       0.0
 0 C  dxz             0.0       0.0       0.1       0.0       0.1       0.0
 1 C  s               1.0       0.2      26.4       2.7       9.8       2.2
 1 C  pz              0.1       0.0       1.3       0.6       5.7       2.1
 1 C  px              1.5       0.1       0.0       3.6       4.5       1.7
 1 C  py              0.2       0.4       0.0       0.0       0.1       0.0
 1 C  dz2             0.0       0.0       0.0       0.1       0.1       0.0
 1 C  dxz             0.0       0.0       0.0       0.1       0.2       0.0
 2 C  s              18.8       4.7       4.5       2.4       1.9       2.9
 2 C  pz              0.4       0.5       0.1       0.1       1.8       1.0
 2 C  px              4.4       0.8       6.5       1.7       6.2       1.7
 2 C  py              0.1      23.0       5.9       3.0       1.1       2.4
 2 C  dz2             0.5       0.1       0.0       0.0       0.0       0.0
 2 C  dx2y2           0.2       1.1       0.1       0.0       0.0       0.0
 2 C  dxy             0.2       0.7       0.0       0.3       0.1       0.0
 3 O  s              12.6      40.1       1.7       0.3       0.5       1.2
 3 O  pz              0.0       0.0       0.0       0.0       0.1       0.3
 3 O  px              0.0       0.2       0.1       0.0       0.5       0.8
 3 O  py              2.9       4.1       0.2       0.2       0.2       1.1
 3 O  dx2y2           0.1       0.1       0.0       0.0       0.0       0.0
 4 O  s              40.1      17.2       0.1       0.8       1.2       4.9
 4 O  pz              0.0       0.0       0.5       2.0       0.0       1.4
 4 O  px              0.1       0.4       6.7      19.1       0.0      16.0
 4 O  py              3.0       0.2       0.0       0.4       0.1       7.9
 4 O  dxy             0.0       0.0       0.1       0.2       0.0       0.1
 5 C  s               4.8       2.5       4.6      24.3       5.4       6.1
 5 C  pz              0.4       0.1       0.0       0.0       0.1       0.6
 5 C  px              4.9       1.4       0.2       0.3       1.9      11.4
 5 C  py              0.3       0.5       0.1       0.1       0.0       9.3
 5 C  dxz             0.1       0.0       0.0       0.0       0.0       0.1
 5 C  dx2y2           0.2       0.1       0.0       0.0       0.0       0.2
 5 C  dxy             0.1       0.1       0.0       0.0       0.0       0.5
 6 H  s               0.0       0.0       2.9       2.6       7.0       0.1
 7 H  s               0.0       0.0       3.0       2.5       6.4       0.4
 8 H  s               0.0       0.0       3.1       2.3       6.8       0.8
 9 H  s               0.2       0.0       5.2       0.3       3.5       1.0
10 H  s               0.1       0.1       4.6       0.9       3.9       2.9
11 H  s               0.5       0.3       0.9       6.0       2.3       4.3
12 H  s               0.9       0.1       0.9       5.1       1.6       9.1
13 H  s               0.5       0.3       0.9       6.6       2.3       2.6

                     12        13        14        15        16        17   
                  -0.44946  -0.43144  -0.42302  -0.39189  -0.38203  -0.36289
                   2.00000   2.00000   2.00000   2.00000   2.00000   2.00000
                  --------  --------  --------  --------  --------  --------
 0 C  s               0.0       0.3       0.0       0.0       0.0       0.1
 0 C  pz              3.4       2.0       0.6       2.0       0.7      15.1
 0 C  px              2.6       1.2       0.3      15.3       4.7       0.0
 0 C  py              2.7       0.4       8.7       6.5       9.3       0.1
 0 C  dxz             0.0       0.0       0.0       0.0       0.1       0.1
 1 C  s               1.6       0.7       0.0       0.2       0.2       0.0
 1 C  pz              6.3       0.3       0.6       6.6       2.3       4.4
 1 C  px              8.3       1.8       1.2       3.3       0.2       8.5
 1 C  py              7.7       1.4      17.6       5.2       2.7       0.1
 1 C  dxy             0.2       0.0       0.0       0.1       0.0       0.0
 2 C  s               1.7       0.5       1.4       0.1       1.9       0.2
 2 C  pz              1.8      13.0       0.0       0.7       2.9      12.2
 2 C  px             13.6       0.1       0.2       0.8       0.9       0.9
 2 C  py              0.1       0.3       1.5       1.0       3.7       1.4
 2 C  dxz             0.0       0.1       0.0       0.0       0.0       0.0
 2 C  dx2y2           0.0       0.0       0.7       0.1       0.0       0.1
 2 C  dxy             0.0       0.0       0.0       0.3       0.0       0.0
 3 O  s               0.4       0.1       9.2       1.4       7.4       0.8
 3 O  pz              0.3       5.6       0.1       0.7       1.6       9.8
 3 O  px              7.3       0.4       0.5       0.1       0.1       0.2
 3 O  py              0.3       0.4      13.5       3.6      28.8       4.1
 3 O  dyz             0.0       0.1       0.0       0.0       0.0       0.1
 3 O  dx2y2           0.0       0.0       0.1       0.0       0.2       0.0
 3 O  dxy             0.1       0.0       0.0       0.0       0.0       0.0
 4 O  s               0.5       0.2       0.9       0.9       0.2       0.0
 4 O  pz              5.2      22.8       0.0       0.1       0.2       0.0
 4 O  px              0.2       0.9       3.7       7.3       0.1       1.3
 4 O  py              6.8       3.1      11.8       2.4       0.1       0.1
 5 C  s               0.0       0.0       0.1       0.1       0.0       0.0
 5 C  pz              4.0      18.8       0.9       8.9       7.6       5.0
 5 C  px              0.2       5.3       4.5       3.0       0.0       6.9
 5 C  py              6.8       3.1       3.4       1.3       4.8       7.8
 5 C  dz2             0.0       0.1       0.1       0.0       0.0       0.1
 5 C  dxz             0.0       0.0       0.0       0.0       0.1       0.1
 5 C  dyz             0.0       0.0       0.0       0.1       0.1       0.0
 5 C  dx2y2           0.0       0.0       0.0       0.0       0.0       0.1
 6 H  s               1.6       0.4       0.1       3.5       5.0       0.1
 7 H  s               1.2       1.0       2.3       3.2       2.3       1.2
 8 H  s               0.6       0.2       2.0       5.9       0.8       4.4
 9 H  s               5.4       0.8       6.6       1.9       1.1       0.1
10 H  s               3.3       0.1       3.2       5.9       0.1       0.1
11 H  s               0.2      10.2       0.5       0.4       1.6       7.8
12 H  s               1.5       2.8       0.5       0.1       1.8       6.0
13 H  s               3.5       0.9       3.0       6.7       5.8       0.1

                     18        19        20        21        22        23   
                  -0.33338  -0.31979  -0.31356  -0.29650  -0.25633  -0.22108
                   2.00000   2.00000   2.00000   2.00000   2.00000   2.00000
                  --------  --------  --------  --------  --------  --------
 0 C  s               0.0       0.4       0.0       0.0       0.0       0.0
 0 C  pz              2.3      14.2       6.5       0.0       0.0       0.0
 0 C  px             16.0       5.1       2.7       2.8       0.0       0.5
 0 C  py             10.8       4.3      13.5       0.0       0.3       0.0
 0 C  dz2             0.1       0.1       0.3       0.1       0.0       0.0
 0 C  dxz             0.0       0.1       0.2       0.0       0.0       0.0
 0 C  dyz             0.0       0.0       0.5       0.0       0.0       0.0
 0 C  dx2y2           0.4       0.1       0.0       0.0       0.0       0.1
 0 C  dxy             0.3       0.0       0.0       0.0       0.0       0.0
 1 C  s               0.2       0.1       0.0       0.2       0.0       0.7
 1 C  pz              0.2      17.1       6.7       0.0       0.1       0.0
 1 C  px              2.6       2.7       3.1       5.3       0.0       4.3
 1 C  py              1.2       4.2      10.6       0.0       0.2       3.1
 1 C  dz2             0.2       0.0       0.3       0.1       0.0       0.0
 1 C  dxz             0.0       0.3       0.3       0.0       0.0       0.0
 1 C  dyz             0.0       0.1       0.5       0.0       0.0       0.0
 1 C  dx2y2           0.1       0.3       0.0       0.0       0.0       0.1
 1 C  dxy             0.3       0.1       0.0       0.0       0.0       0.0
 2 C  s               0.4       0.0       0.0       1.0       0.0       0.5
 2 C  pz              0.4       5.8       0.9       0.2       0.3       0.0
 2 C  px              8.3       0.2       0.2       0.4       0.0       0.8
 2 C  py              0.1       0.6       0.4       5.3       0.0       0.7
 2 C  dz2             0.0       0.0       0.0       0.0       0.2       0.0
 2 C  dxz             0.0       0.2       0.1       0.1       0.1       0.0
 2 C  dyz             0.0       0.3       0.0       0.1       2.0       0.4
 2 C  dx2y2           0.0       0.2       0.1       0.8       0.0       0.3
 2 C  dxy             0.1       0.0       0.2       0.0       0.2       4.1
 3 O  s               0.0       0.1       0.1       1.3       0.0       0.0
 3 O  pz              0.7      14.7       0.6       0.2      31.0       5.4
 3 O  px              7.1       1.1       0.0       0.1       1.8      64.5
 3 O  py              0.9       0.5       1.3       9.7       0.2       1.1
 4 O  s               0.3       0.0       0.0       5.0       0.0       0.4
 4 O  pz              1.3       3.3       0.9       0.1      44.3       0.7
 4 O  px              0.1       0.2       1.1       3.1       3.8       0.7
 4 O  py              1.7       0.2       0.9      36.0       0.4       6.5
 5 C  s               0.0       0.0       0.0       0.3       0.0       0.2
 5 C  pz              1.9       2.9       0.5       0.1       4.2       0.3
 5 C  px              0.5       0.2       0.9       1.1       0.3       0.5
 5 C  py              6.5       0.0       0.6      11.6       0.0       0.6
 5 C  dxz             0.1       0.2       0.0       0.0       0.9       0.0
 5 C  dyz             0.1       0.0       0.0       0.1       0.0       0.0
 5 C  dx2y2           0.0       0.0       0.1       0.5       0.2       0.1
 5 C  dxy             0.1       0.0       0.0       0.1       0.0       0.0
 6 H  s              17.3       0.0       0.2       2.0       0.0       0.7
 7 H  s               5.7       6.8       7.4       0.0       0.2       0.3
 8 H  s               1.2       0.3      14.7       0.6       0.1       0.0
 9 H  s               1.2       8.1       6.4       0.2       0.1       1.4
10 H  s               0.7       1.1      15.2       0.9       0.1       0.1
11 H  s               0.1       2.1       1.1       0.1       5.5       0.0
12 H  s               3.2       0.1       0.7       8.5       0.7       0.5
13 H  s               4.9       1.4       0.0       1.8       2.5       0.0

                     24        25        26        27        28        29   
                  -0.01874   0.04670   0.06485   0.08939   0.09382   0.09556
                   0.00000   0.00000   0.00000   0.00000   0.00000   0.00000
                  --------  --------  --------  --------  --------  --------
 0 C  s               2.9       8.0       3.2      11.6       2.3       0.5
 0 C  pz              1.7       3.0       0.8       1.8       0.3       1.4
 0 C  px              0.4       1.3       1.1       0.8       0.4       5.6
 0 C  py              0.1       0.0       0.0       0.3       3.8       2.6
 0 C  dz2             0.0       0.1       0.1       0.3       0.0       0.3
 0 C  dxz             0.0       0.3       0.1       0.1       0.1       0.0
 0 C  dyz             0.0       0.0       0.0       0.1       0.4       0.3
 0 C  dx2y2           0.1       0.0       0.0       0.0       0.0       0.0
 0 C  dxy             0.1       0.0       0.0       0.0       0.4       0.0
 1 C  s               0.1       7.1       2.7       6.2       3.6       0.1
 1 C  pz              0.5       1.2       1.0       1.2       0.2       1.0
 1 C  px              0.3       0.0       0.2       1.3       0.2       1.8
 1 C  py              0.0       0.3       0.0       1.8      13.2       1.1
 1 C  dz2             0.0       0.0       0.0       0.5       0.0       0.3
 1 C  dxz             1.7       0.0       0.0       0.0       0.3       0.0
 1 C  dyz             0.1       0.0       0.1       0.1       0.5       0.1
 1 C  dx2y2           0.2       0.0       0.0       0.1       0.6       0.1
 1 C  dxy             0.0       0.0       0.0       0.0       0.1       0.1
 2 C  s               0.0       1.8       0.0       0.8       0.6       0.1
 2 C  pz             41.8       1.2       0.8       0.9       0.1       0.2
 2 C  px              3.2       1.0       0.5       0.5       0.0       0.4
 2 C  py              0.4       0.4       0.3       0.3       1.0       0.6
 2 C  dz2             0.0       0.4       0.0       0.3       0.0       0.0
 2 C  dxz             0.3       0.2       0.0       0.2       0.1       0.0
 2 C  dyz             0.7       0.0       0.0       0.0       0.0       0.0
 2 C  dx2y2           0.1       0.0       0.1       0.4       0.7       0.2
 2 C  dxy             0.0       0.0       0.0       0.0       0.2       0.0
 3 O  s               0.0       0.8       0.0       0.1       0.1       0.1
 3 O  pz             23.0       0.3       0.7       0.1       0.2       0.1
 3 O  px              2.0       0.2       0.3       0.4       0.5       0.3
 3 O  py              0.2       0.1       0.0       0.0       0.1       0.1
 3 O  dyz             0.5       0.0       0.0       0.0       0.0       0.0
 4 O  s               0.0       2.1       0.6       3.1       1.5       5.5
 4 O  pz              9.3       0.1       0.1       0.1       0.2       0.5
 4 O  px              0.7       0.4       0.5       0.7       0.4       4.5
 4 O  py              0.1       0.2       0.2       0.9       1.1       1.0
 4 O  dz2             0.1       0.0       0.0       0.0       0.1       0.1
 4 O  dxz             0.2       0.0       0.1       0.1       0.0       0.0
 4 O  dx2y2           0.0       0.0       0.1       0.1       0.2       0.2
 4 O  dxy             0.0       0.0       0.0       0.0       0.0       0.2
 5 C  s               0.0       4.5      20.6       0.3       0.1       4.2
 5 C  pz              0.1       0.2       0.1       0.4       1.1       3.3
 5 C  px              0.0       6.8       2.1       7.6       4.1      18.2
 5 C  py              0.0       0.3       0.3       1.5       1.4       1.5
 5 C  dz2             0.0       0.2       0.0       0.2       0.1       0.9
 5 C  dxz             0.3       0.2       0.0       0.4       0.1       0.3
 5 C  dyz             0.0       0.0       0.0       0.0       0.0       0.2
 5 C  dx2y2           0.1       0.1       0.0       0.6       0.7       1.2
 5 C  dxy             0.0       0.1       0.0       0.3       0.1       0.9
 6 H  s               2.5       8.0       4.5       3.6       1.0       7.6
 7 H  s               0.2       5.8       3.2       5.1      14.9       6.6
 8 H  s               0.4       9.5       1.5      18.7       0.7      11.2
 9 H  s               1.0       8.9       1.4       0.4      39.3       1.5
10 H  s               2.3       6.8       6.4      22.9       0.9       5.7
11 H  s               1.2       8.6      19.0       1.9       0.2       1.7
12 H  s               0.1       2.3       7.1       0.2       1.5       3.7
13 H  s               0.4       6.9      20.0       0.8       0.3       2.0

                     30        31        32        33        34        35   
                   0.10699   0.11843   0.12259   0.13449   0.16784   0.21083
                   0.00000   0.00000   0.00000   0.00000   0.00000   0.00000
                  --------  --------  --------  --------  --------  --------
 0 C  s               0.3       0.6       0.0       0.0       2.3       0.7
 0 C  pz              0.1       1.6       0.9       2.6       8.3      10.0
 0 C  px              0.1       3.4       7.5       3.5       9.7       3.7
 0 C  py              0.2       1.6       8.6       9.8       0.6       0.2
 0 C  dz2             0.1       0.0       0.0       0.0       0.4       2.2
 0 C  dxz             0.0       0.0       0.3       0.1       3.1       1.0
 0 C  dyz             0.0       0.1       0.1       0.2       0.1       0.3
 0 C  dx2y2           0.0       0.3       0.4       0.4       0.2       0.0
 0 C  dxy             0.0       0.1       0.4       0.5       0.1       0.0
 1 C  s               0.3       2.0       0.2       0.1       3.5       0.1
 1 C  pz              1.2       0.0       2.6       1.6      16.0       4.9
 1 C  px              1.9       0.1       0.9       2.8       0.1      26.2
 1 C  py              0.1       0.5       1.0       3.9       1.7       2.6
 1 C  dz2             0.1       0.2       0.2       0.0       0.4       2.5
 1 C  dxz             0.0       0.1       0.0       0.0       0.7       2.6
 1 C  dyz             0.1       0.0       0.4       0.0       0.5       0.1
 1 C  dx2y2           0.0       0.0       0.2       0.2       1.1       0.5
 1 C  dxy             0.1       0.1       0.1       0.5       0.9       2.7
 2 C  s               1.2       1.0       1.7       0.4      14.5      14.0
 2 C  pz              0.7       0.0       0.7       0.0       1.9       1.7
 2 C  px              0.0       0.0       0.3       0.2       0.7       4.0
 2 C  py              0.1       1.1       0.3       1.6       0.1       1.7
 2 C  dz2             0.2       0.3       0.4       0.1       4.2       1.4
 2 C  dxz             0.0       0.0       0.1       0.0       0.2       1.1
 2 C  dyz             0.0       0.0       0.0       0.0       0.4       0.0
 2 C  dx2y2           0.0       0.1       0.1       0.2       0.1       0.1
 2 C  dxy             0.1       0.2       0.0       0.3       0.0       0.1
 3 O  s               0.1       0.9       0.1       0.3       0.6       0.4
 3 O  pz              0.6       0.3       0.0       0.2       0.6       0.8
 3 O  px              0.0       0.0       1.4       0.2       0.5       0.5
 3 O  py              0.0       0.1       0.0       0.1       1.0       1.1
 3 O  dxy             0.0       0.0       0.0       0.0       0.0       0.1
 4 O  s               0.5       0.0       0.6       0.4       0.0       0.1
 4 O  pz              0.9       0.3       0.2       0.0       0.0       0.8
 4 O  px              0.1       0.3       0.2       3.0       4.3       1.8
 4 O  py              0.0       0.5       0.1       0.3       1.1       0.4
 4 O  dxz             0.2       0.0       0.0       0.0       0.0       0.0
 4 O  dxy             0.1       0.2       0.1       0.0       0.2       0.2
 5 C  s               0.1       0.6       0.0       0.6       0.0       0.0
 5 C  pz             16.7       3.1       3.5       1.2       0.4       0.0
 5 C  px              1.2       4.1       0.4       4.4       2.7       0.7
 5 C  py              6.2      10.7       4.2       0.5       3.8       0.9
 5 C  dz2             0.0       0.7       0.1       0.2       0.0       0.0
 5 C  dxz             0.6       0.1       0.0       0.1       0.1       0.0
 5 C  dyz             0.8       0.1       0.0       0.1       0.0       0.0
 5 C  dx2y2           0.0       0.2       0.6       0.4       0.4       0.1
 5 C  dxy             0.0       0.0       0.0       0.3       0.4       0.4
 6 H  s               0.1      14.4      25.7       0.8       1.5       2.2
 7 H  s               0.0       1.3      13.5      14.6       0.5       1.0
 8 H  s               1.3       0.8       0.5      21.9       0.4       0.4
 9 H  s               0.0       4.9       2.4       6.0       1.5       0.7
10 H  s               5.7       0.3       2.2      13.8       1.9       1.3
11 H  s              17.9      11.6       6.2       0.5       0.0       0.1
12 H  s               3.0      30.2      10.3       0.2       5.6       1.0
13 H  s              36.5       0.7       0.2       0.6       0.3       0.2

                     36        37        38        39        40        41   
                   0.25879   0.30048   0.37122   0.39556   0.40308   0.42076
                   0.00000   0.00000   0.00000   0.00000   0.00000   0.00000
                  --------  --------  --------  --------  --------  --------
 0 C  s               0.1       0.0       0.1       0.0       0.2       1.9
 0 C  pz              4.7       0.0       7.9       6.1       1.4      16.2
 0 C  px              0.7       0.7       1.4       2.8       4.1       3.1
 0 C  py              0.3       0.2       1.9       5.3      21.4       0.3
 0 C  dz2             0.0       0.0       0.0       0.5       2.5       0.6
 0 C  dxz             1.7       0.0       0.6       1.0       0.2       1.4
 0 C  dyz             0.0       0.0       0.4       2.4       2.1       0.3
 0 C  dx2y2           0.9       0.0       1.7       0.1       2.6       0.0
 0 C  dxy             0.2       0.1       1.1       0.2       0.0       0.0
 1 C  s               4.6       0.1       0.7       0.1       0.0       1.9
 1 C  pz              3.5       0.0       5.2       0.1       4.1      17.0
 1 C  px              7.5       0.2       0.0       2.9       1.7       0.3
 1 C  py              3.5       1.9       0.7       2.3       0.5       1.0
 1 C  dz2             0.1       0.3       0.4       1.3       0.0       1.2
 1 C  dxz             0.0       0.3       0.0       0.1       0.7       1.8
 1 C  dyz             0.1       0.3       0.0       1.2       1.8       0.2
 1 C  dx2y2           1.6       2.2       0.0       0.3       0.3       0.9
 1 C  dxy             1.4       1.2       0.0       0.0       0.4       0.9
 2 C  s              12.4       4.2       3.4       6.5       1.8       0.2
 2 C  pz              1.2       1.8      17.0       2.4       2.7       6.0
 2 C  px             16.7      10.0       1.3       3.0       1.2       1.2
 2 C  py              3.9      23.6       1.8       1.5       3.4       0.2
 2 C  dz2             1.5       0.0       0.0       0.0       0.0       0.0
 2 C  dxz             0.3       0.4       0.0       0.1       0.1       0.8
 2 C  dyz             0.1       0.2       0.0       0.1       0.0       0.0
 2 C  dx2y2           2.6       1.1       0.1       0.8       0.5       0.0
 2 C  dxy             0.3       3.1       0.0       0.0       0.0       0.0
 3 O  s               4.7       4.4       0.6       0.1       0.2       0.3
 3 O  pz              0.1       0.6       0.6       0.3       0.0       0.0
 3 O  px              2.2       3.8       0.3       0.5       0.0       0.2
 3 O  py              1.8       0.2       0.3       0.6       0.2       0.0
 3 O  dx2y2           0.1       0.1       0.0       0.1       0.1       0.0
 3 O  dxy             0.5       0.5       0.0       0.0       0.0       0.1
 4 O  s               1.4       4.8       0.1       0.0       0.0       0.6
 4 O  pz              0.7       1.1       2.0       0.1       0.7       0.1
 4 O  px              1.7       7.3       0.0       1.4       1.1       0.7
 4 O  py              2.1       1.0       0.6       0.2       0.1       2.0
 4 O  dz2             0.0       0.2       0.4       0.0       0.0       0.1
 4 O  dxz             0.1       0.2       0.0       0.0       0.0       0.1
 4 O  dyz             0.1       0.1       0.1       0.1       0.1       0.0
 4 O  dx2y2           0.8       0.1       0.0       0.3       0.2       0.1
 4 O  dxy             0.3       0.9       0.2       1.1       0.3       0.2
 5 C  s               1.2       0.0       0.0       1.6       1.5       1.4
 5 C  pz              0.9       0.7      18.1       2.6       0.7       1.7
 5 C  px              4.1       3.3       3.5       5.1       5.1       4.8
 5 C  py              0.2       0.1       0.3      10.4       6.0      12.7
 5 C  dz2             0.1       0.4       0.7       0.2       0.1       0.5
 5 C  dxz             0.1       0.0       1.9       1.0       0.3       0.0
 5 C  dyz             0.0       0.3       0.9       1.5       0.6       0.2
 5 C  dx2y2           0.0       0.0       1.2       0.3       0.1       1.1
 5 C  dxy             0.0       0.7       0.0       0.0       0.0       0.1
 6 H  s               0.8       0.2       3.0       0.2       0.0       2.2
 7 H  s               1.8       0.8       2.0       3.2      14.7       0.0
 8 H  s               1.5       0.4       3.4       9.5       6.1       1.4
 9 H  s               1.4       7.1       0.5       5.5       0.7       3.0
10 H  s               0.4       5.6       0.2       3.4       3.6       2.8
11 H  s               0.5       0.4       8.8       2.0       0.9       0.2
12 H  s               0.2       0.3       1.8       3.8       1.9       5.6
13 H  s               0.2       2.4       2.5       3.4       0.9       0.0

                     42        43        44        45        46        47   
                   0.43719   0.44282   0.49675   0.53975   0.56843   0.60272
                   0.00000   0.00000   0.00000   0.00000   0.00000   0.00000
                  --------  --------  --------  --------  --------  --------
 0 C  s               0.2       0.9       0.5       2.7       3.0       6.8
 0 C  pz              5.6       0.8       5.0       9.3       1.0       2.0
 0 C  px              0.3       9.5       2.0       8.6       3.6       1.0
 0 C  py              0.3       5.3       0.2       0.3       0.2       0.1
 0 C  dz2             0.1       0.1       0.0       0.2       0.1       0.0
 0 C  dxz             0.3       0.6       0.0       0.0       0.1       0.1
 0 C  dyz             0.1       0.1       0.2       0.0       0.1       0.1
 0 C  dx2y2           0.1       1.9       0.2       0.2       0.3       0.0
 0 C  dxy             0.4       1.3       1.0       0.0       1.2       0.3
 1 C  s               1.8       0.2       1.2       9.5       0.9       0.7
 1 C  pz              0.2       0.8       2.4       6.2       2.3      12.9
 1 C  px              7.7       1.2      14.3       4.0       4.7      13.7
 1 C  py              1.0       0.2       4.0       3.9       0.6       0.4
 1 C  dz2             0.2       0.0       0.2       0.0       0.0       0.1
 1 C  dxz             0.3       1.2       0.0       0.0       0.1       0.0
 1 C  dyz             0.0       0.0       0.6       0.1       0.0       0.0
 1 C  dx2y2           0.6       0.0       0.0       0.0       0.3       0.0
 1 C  dxy             0.0       0.1       0.5       0.3       0.0       0.0
 2 C  s               3.1       2.9       8.9       8.6       0.6       6.1
 2 C  pz              0.0       7.3       3.5       2.7      25.0       4.7
 2 C  px              8.1       0.3      10.2       4.2       6.8       0.1
 2 C  py              6.1       1.8       5.8       0.9       2.3       8.0
 2 C  dz2             0.3       0.2       0.6       0.3       0.0       0.5
 2 C  dxz             0.0       0.4       0.1       0.0       0.3       0.0
 2 C  dyz             0.0       0.3       0.0       0.0       0.0       0.0
 2 C  dx2y2           0.1       0.2       0.6       0.0       0.4       0.8
 2 C  dxy             0.4       0.0       0.7       0.6       0.1       0.1
 3 O  s               0.3       1.1       0.1       0.2       1.0       0.1
 3 O  pz              0.1       0.2       0.1       0.1       1.5       1.4
 3 O  px              2.7       0.1       1.2       0.4       0.3       0.3
 3 O  py              0.0       0.6       0.1       0.9       0.2       3.9
 3 O  dz2             0.0       0.0       0.1       0.3       0.0       0.6
 3 O  dyz             0.0       0.2       0.0       0.0       0.0       0.0
 3 O  dx2y2           0.1       0.1       0.1       0.0       0.1       1.7
 3 O  dxy             0.0       0.0       0.2       0.3       0.0       0.2
 4 O  s               0.4       0.1       0.5       0.0       0.6       0.1
 4 O  pz              0.3       0.8       0.2       0.2       0.5       0.1
 4 O  px              0.9       0.2       0.4       3.7       1.9       0.0
 4 O  py              1.3       5.0       5.9       0.3       0.3       0.6
 4 O  dz2             0.7       0.1       0.4       0.0       0.0       0.0
 4 O  dxz             0.5       0.2       0.0       0.0       0.2       0.0
 4 O  dyz             0.0       0.0       0.2       0.0       0.1       0.0
 4 O  dx2y2           0.5       0.1       0.0       0.0       0.1       0.1
 4 O  dxy             0.0       0.0       0.5       0.0       0.4       0.0
 5 C  s               5.3       0.1       0.5       1.1       2.4       0.7
 5 C  pz              1.9      10.9       6.2       1.5       3.4       2.1
 5 C  px             26.5       1.9       0.5       5.6       4.4       1.2
 5 C  py              3.6      11.0       6.9       0.7       2.4       3.1
 5 C  dz2             1.7       1.8       0.7       0.4       0.7       0.1
 5 C  dxz             0.0       1.3       0.2       0.0       1.4       0.3
 5 C  dyz             1.3       0.0       2.0       0.5       0.0       0.7
 5 C  dx2y2           0.3       1.5       0.3       0.0       0.1       0.0
 5 C  dxy             0.0       0.1       0.1       0.0       1.1       0.4
 6 H  s               0.8       8.3       1.3       0.3      10.5       1.3
 7 H  s               0.2       1.9       0.3       1.4       0.5       4.4
 8 H  s               1.7       0.1       0.5       1.5       0.5       4.2
 9 H  s               2.0       0.1       0.2       4.0       0.3       0.5
10 H  s               0.0       1.1       0.8       8.7       0.2       0.0
11 H  s               0.9       7.4       0.1       0.6       7.8       0.1
12 H  s               2.5       5.8       0.1       0.1       1.9       0.2
13 H  s               6.0       0.2       6.6       4.2       1.1      12.7

                     48        49        50        51        52        53   
                   0.61287   0.61973   0.63026   0.63429   0.64839   0.65431
                   0.00000   0.00000   0.00000   0.00000   0.00000   0.00000
                  --------  --------  --------  --------  --------  --------
 0 C  s               0.1       2.3       3.5       7.5       0.2       1.8
 0 C  pz              0.4       3.4       0.5       6.1       0.9       0.4
 0 C  px              0.7       0.0       0.6       0.3       0.6       9.9
 0 C  py              3.1       0.1       0.7       0.6      17.7       4.5
 0 C  dz2             0.1       0.0       0.1       0.1       0.0       0.5
 0 C  dxz             0.1       0.1       0.0       0.3       0.2       0.0
 0 C  dyz             0.4       0.0       0.0       0.2       0.1       1.0
 0 C  dx2y2           0.1       0.1       0.3       0.2       0.2       0.1
 0 C  dxy             0.0       0.0       0.0       0.1       2.0       0.2
 1 C  s               0.3       4.3       4.0      12.6       1.0       0.1
 1 C  pz              0.2       0.6       2.4       6.9       0.3       5.3
 1 C  px              6.1       2.1       0.5       5.4      10.3       0.6
 1 C  py              3.8       0.2       2.1       0.5      12.5      12.7
 1 C  dz2             0.0       0.0       0.1       0.0       0.1       0.1
 1 C  dxz             0.1       0.0       0.0       0.3       0.0       0.0
 1 C  dx2y2           0.3       0.1       0.4       0.0       0.0       0.1
 1 C  dxy             0.0       0.0       0.0       0.3       0.0       0.1
 2 C  s               4.2       1.3       0.3       1.7       0.6       0.1
 2 C  pz              1.8       0.4       0.0       0.5       4.6       3.2
 2 C  px              0.5       0.9       0.0       0.4       0.5       0.3
 2 C  py             30.4       0.3       0.6       2.1       4.2       1.0
 2 C  dz2             0.3       0.0       0.0       0.0       0.1       0.0
 2 C  dxz             0.0       0.0       0.0       0.1       0.0       0.0
 2 C  dx2y2           3.4       0.0       0.1       0.4       0.2       0.2
 2 C  dxy             0.3       0.0       0.0       0.1       0.0       0.1
 3 O  s               0.7       0.2       0.5       0.1       0.2       0.3
 3 O  pz              0.5       0.3       0.0       0.2       0.2       1.0
 3 O  px              0.7       0.0       0.0       0.2       1.9       0.1
 3 O  py              8.6       1.9       2.0       1.6       0.8       0.5
 3 O  dz2             1.5       0.0       0.0       0.2       0.2       0.1
 3 O  dx2y2           3.8       0.2       0.0       0.2       0.4       0.0
 3 O  dxy             0.5       0.1       0.0       0.0       0.1       0.0
 4 O  s               0.3       0.4       0.1       0.3       0.3       0.2
 4 O  pz              0.2       0.0       0.0       0.3       0.7       0.0
 4 O  px              2.6       0.3       0.1       0.1       2.0       0.3
 4 O  py              0.0       0.0       0.3       0.6       0.0       0.2
 5 C  s               1.6      42.5       0.1       8.8       1.3       0.5
 5 C  pz              5.1       0.2      14.8       0.3      10.8       7.4
 5 C  px              0.7      15.2       7.6       1.0       0.0       0.1
 5 C  py              0.4       0.4      17.4      10.9       1.3      11.4
 5 C  dz2             0.0       0.0       0.3       0.0       0.4       0.4
 5 C  dxz             0.6       0.4       0.6       0.0       0.1       0.2
 5 C  dyz             0.3       0.1       0.2       0.0       0.0       0.1
 5 C  dx2y2           0.0       0.0       1.4       0.6       0.0       0.1
 5 C  dxy             0.0       0.2       0.1       0.1       0.1       0.0
 6 H  s               0.4       0.0       0.0       0.2       4.4       5.7
 7 H  s               0.8       0.3       2.9       0.3       8.0       3.4
 8 H  s               0.6       0.8       0.1       6.9       0.5       4.8
 9 H  s               1.6       1.6       5.0       1.7       1.8       3.1
10 H  s               0.6       1.0       0.3       9.6       0.3       5.7
11 H  s               0.9      12.0      16.1       0.0       4.0       0.6
12 H  s               0.8       3.3      13.4       8.8       1.3       5.2
13 H  s               9.3       1.9       0.1       0.1       2.0       6.2

                     54        55        56        57        58        59   
                   0.65862   0.67493   0.67811   0.68361   0.71316   0.78449
                   0.00000   0.00000   0.00000   0.00000   0.00000   0.00000
                  --------  --------  --------  --------  --------  --------
 0 C  s              31.6       2.0       1.8       2.0       3.9       0.4
 0 C  pz              6.6       3.2       0.3      20.0       1.6       0.1
 0 C  px             10.7       5.4       1.0      18.4       0.2       0.8
 0 C  py              0.7       8.2      20.0       8.6       3.7       2.5
 0 C  dz2             0.0       0.2       0.0       0.0       0.0       0.0
 0 C  dxz             0.0       0.0       0.0       0.1       1.0       0.2
 0 C  dyz             0.1       0.2       0.1       0.0       0.1       0.1
 0 C  dx2y2           0.0       0.0       0.0       0.7       1.7       1.4
 0 C  dxy             0.0       0.2       0.2       0.0       0.5       1.2
 1 C  s               3.8       0.5       0.6       6.7       4.5       8.3
 1 C  pz              7.5      11.8       0.9       4.7       2.1       0.0
 1 C  px              0.0       0.4       6.7       0.5       0.5       2.3
 1 C  py              2.5      11.2      10.3       3.3       8.6       8.8
 1 C  dz2             0.0       0.1       0.1       0.3       0.6       1.1
 1 C  dxz             0.1       0.1       0.0       0.0       1.2       0.2
 1 C  dyz             0.0       0.0       0.7       0.0       1.4       1.4
[...]
12 H  s               1.7       0.0       0.0       0.0       0.0       0.0
13 H  s               0.6       0.0       0.0       0.1       0.1       0.0

                     90        91        92        93        94        95   
                   2.55800   2.62459   2.71321   2.83686   2.84595   3.06042
                   0.00000   0.00000   0.00000   0.00000   0.00000   0.00000
                  --------  --------  --------  --------  --------  --------
 0 C  s               0.2       0.2       0.1       0.0       0.0       0.0
 0 C  pz              0.2       0.2       0.0       0.0       0.0       0.0
 0 C  px              0.1       0.1       0.0       0.0       0.0       0.0
 0 C  dz2             0.7       0.1       0.1       0.2       0.2       0.0
 0 C  dxz             1.0       1.3       0.1       0.0       0.0       0.0
 0 C  dyz             0.0       0.0       0.0       0.1       0.0       0.0
 0 C  dx2y2           0.1       0.2       0.0       0.1       0.0       0.0
 1 C  s               0.0       0.0       0.0       0.0       0.0       0.3
 1 C  px              0.1       0.6       0.0       0.0       0.1       0.2
 1 C  py              0.0       0.2       0.0       0.0       0.1       0.0
 1 C  dz2             0.2       2.7       0.0       0.2       0.3       0.2
 1 C  dxz             2.9       1.3       0.6       0.9       0.1       0.2
 1 C  dyz             0.0       0.0       0.1       0.4       0.3       0.0
 1 C  dx2y2           0.1       0.1       0.1       0.0       1.6       1.2
 1 C  dxy             0.1       0.7       0.0       0.3       1.7       0.0
 2 C  s               0.1       0.2       0.0       0.0       0.3       1.1
 2 C  pz              0.3       0.0       0.1       0.8       0.2       0.2
 2 C  px              0.1       0.5       0.0       0.2       0.1       1.3
 2 C  py              0.0       0.3       0.0       0.1       0.2       1.9
 2 C  dz2             0.0       3.2       0.4       2.4       0.9       2.0
 2 C  dxz             0.2       0.9       0.6      10.7       0.0       0.4
 2 C  dyz             0.2       0.0       0.1       0.1       0.0       0.1
 2 C  dx2y2           0.0       0.1       0.0       0.0      10.0       0.0
 2 C  dxy             0.1       0.3       0.0       0.0       2.4       3.3
 3 O  s               0.0       0.0       0.0       0.2       1.1       0.4
 3 O  pz              0.0       0.0       0.0       0.2       0.1       0.0
 3 O  px              0.0       0.0       0.0       0.1       0.2       0.5
 3 O  py              0.0       0.0       0.0       0.1       0.4       0.3
 3 O  dz2             8.3      39.7       0.6       1.2       7.1       0.2
 3 O  dxz            61.3      18.6       2.6       7.1       0.0       0.0
 3 O  dyz             0.1       0.9       4.2       9.5       2.8       2.5
 3 O  dx2y2           3.3      15.3       0.8       0.0       0.8       0.0
 3 O  dxy             0.1       1.2       0.2       5.1       4.9      23.5
 4 O  s               0.0       0.2       0.0       0.1       0.6       7.1
 4 O  pz              0.2       0.0       0.8       0.6       0.0       0.0
 4 O  px              0.0       0.0       0.1       0.0       1.5       0.2
 4 O  py              0.0       0.6       0.0       0.2       1.0       1.0
 4 O  dz2             1.1       4.8       4.4      21.2      14.4      24.4
 4 O  dxz             0.5       0.1      34.8      11.7       6.6      12.7
 4 O  dyz            15.4       0.9      29.6      24.4       3.7       1.5
 4 O  dx2y2           0.0       2.4       6.0       0.3      13.4       4.5
 4 O  dxy             1.6       0.5       1.0       0.2      16.1       4.3
 5 C  s               0.0       0.1       0.0       0.1       0.7       0.4
 5 C  pz              0.0       0.0       0.4       0.0       0.0       0.0
 5 C  px              0.0       0.1       0.0       0.1       0.7       0.6
 5 C  py              0.0       0.0       0.0       0.0       0.0       0.1
 5 C  dz2             0.1       0.0       2.0       0.0       0.4       0.8
 5 C  dxz             0.4       0.3       7.8       0.4       1.0       0.3
 5 C  dyz             0.2       0.1       0.8       0.3       0.2       0.1
 5 C  dx2y2           0.0       0.1       1.1       0.2       3.0       0.1
 5 C  dxy             0.0       0.3       0.0       0.2       0.4       1.5
11 H  s               0.0       0.0       0.1       0.0       0.0       0.1

                     96        97        98        99   
                   3.12344   3.31020   3.48687   3.56325
                   0.00000   0.00000   0.00000   0.00000
                  --------  --------  --------  --------
 0 C  dz2             0.1       0.0       0.0       0.0
 1 C  s               0.0       0.2       0.1       0.1
 1 C  px              0.0       0.0       0.3       0.1
 1 C  dz2             0.1       0.1       0.1       0.0
 1 C  dxz             0.7       0.0       0.2       0.0
 1 C  dx2y2           0.0       0.0       1.3       0.0
 1 C  dxy             0.0       0.6       0.0       0.4
 2 C  s               0.0       3.1       0.1       6.9
 2 C  pz              0.5       0.1       0.1       0.0
 2 C  px              0.0       1.3       0.4       0.4
 2 C  py              0.0       0.1       3.6       3.8
 2 C  dz2             0.5       0.1       0.0       1.6
 2 C  dxz             0.0       0.8       0.3       0.0
 2 C  dyz            18.6       0.1       1.5       0.7
 2 C  dx2y2           0.1       5.6       0.0       9.0
 2 C  dxy             1.6       0.4      18.2       1.6
 3 O  s               0.0       1.6       1.1       4.1
 3 O  pz              1.0       0.0       0.1       0.0
 3 O  px              0.1       0.1       0.4       0.5
 3 O  py              0.0       0.7       1.0       2.9
 3 O  dz2             0.1       3.2       2.2      11.5
 3 O  dxz             2.6       0.0       0.0       0.0
 3 O  dyz            53.7       1.4       2.0       0.0
 3 O  dx2y2           1.3       9.4      17.7      24.8
 3 O  dxy             4.1       3.3       9.7      16.5
 4 O  s               0.0       0.2       0.6       0.4
 4 O  pz              0.0       0.2       0.2       0.0
 4 O  px              0.0       2.2       2.7       0.3
 4 O  py              0.0       0.3       0.4       0.1
 4 O  dz2             3.6       0.3       1.0       0.8
 4 O  dxz             8.5       2.8       1.4       2.3
 4 O  dyz             0.6       2.8       3.0       0.1
 4 O  dx2y2           0.7      30.8       0.0       8.2
 4 O  dxy             0.5      19.0      28.3       2.1
 5 C  s               0.0       1.2       0.3       0.0
 5 C  pz              0.0       0.1       0.1       0.0
 5 C  px              0.0       1.5       0.3       0.0
 5 C  py              0.0       0.3       0.0       0.0
 5 C  dz2             0.0       0.8       0.0       0.1
 5 C  dxz             0.3       0.6       0.2       0.0
 5 C  dyz             0.2       0.2       0.0       0.0
 5 C  dx2y2           0.1       1.7       1.0       0.0
 5 C  dxy             0.0       2.4       0.0       0.5


                      *****************************
                      * MAYER POPULATION ANALYSIS *
                      *****************************

  NA   - Mulliken gross atomic population
  ZA   - Total nuclear charge
  QA   - Mulliken gross atomic charge
  VA   - Mayer's total valence
  BVA  - Mayer's bonded valence
  FA   - Mayer's free valence

  ATOM       NA         ZA         QA         VA         BVA        FA
  0 C      6.3029     6.0000    -0.3029     4.0406     4.0406     0.0000
  1 C      6.1416     6.0000    -0.1416     3.9792     3.9792     0.0000
  2 C      5.9052     6.0000     0.0948     4.3958     4.3958     0.0000
  3 O      8.1943     8.0000    -0.1943     2.3076     2.3076    -0.0000
  4 O      8.2487     8.0000    -0.2487     2.2557     2.2557    -0.0000
  5 C      6.1321     6.0000    -0.1321     3.8516     3.8516     0.0000
  6 H      0.8836     1.0000     0.1164     0.9462     0.9462     0.0000
  7 H      0.8803     1.0000     0.1197     0.9570     0.9570     0.0000
  8 H      0.8892     1.0000     0.1108     0.9536     0.9536     0.0000
  9 H      0.8993     1.0000     0.1007     0.9622     0.9622     0.0000
 10 H      0.8921     1.0000     0.1079     0.9586     0.9586     0.0000
 11 H      0.8805     1.0000     0.1195     0.9536     0.9536     0.0000
 12 H      0.8701     1.0000     0.1299     0.9937     0.9937    -0.0000
 13 H      0.8801     1.0000     0.1199     0.9551     0.9551    -0.0000

  Mayer bond orders larger than 0.100000
B(  0-C ,  1-C ) :   1.1419 B(  0-C ,  6-H ) :   0.9528 B(  0-C ,  7-H ) :   0.9527 
B(  0-C ,  8-H ) :   0.9544 B(  1-C ,  2-C ) :   1.0168 B(  1-C ,  9-H ) :   0.9112 
B(  1-C , 10-H ) :   0.9106 B(  2-C ,  3-O ) :   2.0807 B(  2-C ,  4-O ) :   1.1909 
B(  4-O ,  5-C ) :   0.9465 B(  5-C , 11-H ) :   0.9599 B(  5-C , 12-H ) :   0.9311 
B(  5-C , 13-H ) :   0.9604 

-------
TIMINGS
-------

Total SCF time: 0 days 0 hours 0 min 0 sec 

Total time                  ....       0.503 sec
Sum of individual times     ....       0.495 sec  ( 98.5%)

SCF preparation             ....       0.033 sec  (  6.6%)
Fock matrix formation       ....       0.419 sec  ( 83.4%)
  Startup                   ....       0.001 sec  (  0.2% of F)
  Split-RI-J                ....       0.182 sec  ( 43.5% of F)
  XC integration            ....       0.234 sec  ( 55.9% of F)
    Basis function eval.    ....       0.096 sec  ( 41.2% of XC)
    Density eval.           ....       0.048 sec  ( 20.4% of XC)
    XC-Functional eval.     ....       0.022 sec  (  9.3% of XC)
    XC-Potential eval.      ....       0.057 sec  ( 24.1% of XC)
Diagonalization             ....       0.000 sec  (  0.0%)
Density matrix formation    ....       0.001 sec  (  0.1%)
Total Energy calculation    ....       0.000 sec  (  0.0%)
Population analysis         ....       0.037 sec  (  7.3%)
Orbital Transformation      ....       0.002 sec  (  0.3%)
Orbital Orthonormalization  ....       0.000 sec  (  0.0%)
DIIS solution               ....       0.002 sec  (  0.3%)
  MO trafo                  ....       0.000 sec  (  0.1 % of DIIS)
  Orb grad                  ....       0.000 sec  (  0.0 % of DIIS)
  Energy W gradient         ....       0.000 sec  (  0.0 % of DIIS)
  DIIS error                ....       0.000 sec  (  9.4 % of DIIS)
  DIIS work                 ....       0.001 sec  ( 88.2 % of DIIS)
  Form Q                    ....       0.000 sec  (  0.0 % of DIIS)
  Form QpQm                 ....       0.000 sec  (  0.0 % of DIIS)
  Exp/Cayley                ....       0.000 sec  (  0.0 % of DIIS)
  Orb update                ....       0.000 sec  (  0.0 % of DIIS)
  Wake-sleep                ....       0.000 sec  (  2.3 % of DIIS)
SOSCF solution              ....       0.002 sec  (  0.4%)
  MO trafo                  ....       0.002 sec  ( 73.9 % of SOSCF)
  Orb grad                  ....       0.000 sec  (  1.6 % of SOSCF)
  Rot update                ....       0.000 sec  (  0.6 % of SOSCF)
  Step                      ....       0.000 sec  ( 21.4 % of SOSCF)
Finished LeanSCF after   0.5 sec

Maximum memory used throughout the entire LEANSCF-calculation: 9.7 MB


-------------------------------------------------------------------------------
                          DFT DISPERSION CORRECTION                            
                                                                               
                                DFTD4 V3.4.0                                   
-------------------------------------------------------------------------------
The PBE functional is recognized
Active option DFTDOPT                   ...         5   

-------------------------   ----------------
Dispersion correction           -0.009134551
-------------------------   ----------------

------------------   -----------------
gCP correction             0.063494022
------------------   -----------------

-------------------------   --------------------
FINAL SINGLE POINT ENERGY      -307.025709900690
-------------------------   --------------------


------------------------------------------------------------------------------
                              ORCA PROPERTY CALCULATIONS
------------------------------------------------------------------------------

GBWName                                 ... sp.gbw
Number of atoms                         ...     14
Number of basis functions               ...    100
Max core memory                         ...   1024 MB

Electric properties:
Dipole moment                           ... YES
Quadrupole moment                       ...  NO
Static polarizability (Dipole/Dipole)   ...  NO
Static polarizability (Dipole/Quad.)    ...  NO
Static polarizability (Quad./Quad.)     ...  NO
Static polarizability (Velocity)        ...  NO

Atomic electric properties:
Dipole moment                           ...  NO
Quadrupole moment                       ...  NO
Static polarizability                   ...  NO

Choice of electric origin               ... Center of mass
Position of electric origin             ...    -0.000015     0.000012     0.000007

General magnetic properties:
Magnetizability                         ...  NO

EPR properties:
g-Tensor (aka g-matrix)                 ...  NO
Zero-Field splitting spin-orbit         ...  NO
Zero-field splitting spin-spin          ...  NO
Hyperfine couplings                     ...  NO (   0 nuclei)
Quadrupole couplings                    ...  NO (   0 nuclei)
Contact density                         ...  NO (   0 nuclei)

NMR properties:
Chemical shifts                         ...  NO (   0 nuclei)
Spin-rotation constants                 ...  NO (   0 nuclei)
Spin-spin couplings                     ...  NO (   0 nuclei,    0 pairs)

Choice of magnetic origin               ... GIAO
Position of magnetic origin             ...     0.000000     0.000000     0.000000

Properties with geometric perturbations:
SCF Hessian                             ...  NO
IR spectrum                             ...  NO
VCD spectrum                            ...  NO
X-ray spectroscopy properties:
SCF XES/XAS/RIXS spectra                ...  NO


-------------
DIPOLE MOMENT
-------------

Method             : SCF
Type of density    : Electron Density
Multiplicity       :   1
Irrep              :   0
Energy             :  -307.0800693709645657 Eh
Relativity type    : 
Basis              : AO
                                X                 Y                 Z
Electronic contribution:      2.484103574      -1.885854227      -1.842341782
Nuclear contribution   :     -2.358622413       2.527045805       2.015288291
                        -----------------------------------------
Total Dipole Moment    :      0.125481161       0.641191578       0.172946509
                        -----------------------------------------
Magnitude (a.u.)       :      0.675856979
Magnitude (Debye)      :      1.717891919



--------------------
Rotational spectrum 
--------------------
 
Rotational constants in cm-1:             0.233631             0.078277             0.067634 
Rotational constants in MHz :          7004.090340          2346.677123          2027.624075 

Dipole components along the rotational axes: 
x,y,z [a.u.] :     0.081477     0.669103    -0.049454 
x,y,z [Debye]:     0.207098     1.700724    -0.125702 

 

Dipole moment calculation done in   0.0 sec 

Maximum memory used throughout the entire PROP-calculation: 6.3 MB

--------------------------------
SUGGESTED CITATIONS FOR THIS RUN
--------------------------------

Below you find a list of papers that are relevant to this ORCA run
We neither can nor want to force you to cite these papers, but we appreciate if you do
You receive ORCA, which is the product of decades of hard work by many enthusiastic individuals, for free
The only thing we kindly ask in return is that you cite our papers,
We deeply appreciate it, if you show your appreciation for ORCA by not just citing the generic ORCA reference.

Please note that relegating all ORCA citations to the supporting information does *not* help us.
SI sections are not indexed - citations you put there will not count into any citation statistics
But we need these citations in order to attract the funding resources that allow us to do what we are doing

Therefore, if you are a happy ORCA user, please consider citing a few of the papers listed below in the main body of your paper

In addition to the list printed below, the program has created the file sp.bibtex that contains the list in bibtex format
You can import this file easily into all common literature databanks and citation aid programs


List of essential papers. We consider these as the minimum necessary citations

  1. Neese,F.
     Software update: the ORCA program system, version 5.0
     WIRES Comput. Molec. Sci., 2022 12(1)e1606
     doi.org/10.1002/wcms.1606

List of papers to cite with high priority. The work reported in these papers was absolutely
necessary for this run to complete.
Our perspective: the developers of density functionals and basis sets usually get cited in chemistry papers
Good! But without the algorithms to do something with them, the functionals or basis sets would not do anything.
Hence, in our opinion, the algorithm design and method developments papers are equally worthy of getting cited

  1. Neese,F.
     An improvement of the resolution of the identity approximation for the formation of the Coulomb matrix
     J. Comp. Chem., 2003 24(14)1740-1747
     doi.org/10.1002/jcc.10318
  2. Neese,F.
     The SHARK Integral Generation and Digestion System
     J. Comp. Chem., 2022  1-16
     doi.org/10.1002/jcc.26942
  3. Caldeweyher,E.; Bannwarth,C.; Grimme,S.
     Extension of the D3 dispersion coefficient model
     J. Chem. Phys., 2017 147 034112
     doi.org/10.1063/1.4993215
  4. Caldeweyher,E.; Ehlert,S.; Hansen,A.; Neugebauer,H.; Spicher,S.; Bannwarth,C.; Grimme,S.
     A generally applicable atomic-charge dependent London dispersion correction
     J. Chem. Phys., 2019 150 154122
     doi.org/10.1063/1.5090222
  5. Caldeweyher,E.; Mewes,J.; Ehlert,S.; Grimme,S.
     Extension and evaluation of the D4 London-dispersion model for periodic systems
     Phys. Chem. Chem. Phys., 2020 22(16)8499-8512
     doi.org/10.1039/D0CP00502A
  6. Wittmann,L.; Gordiy,I.; Friede,M.; Helmich-Paris,B.; Grimme,S.; Hansen,A.; Bursch,M.
     Extension of the D3 and D4 London Dispersion Corrections to the full Actinides Series
     Phys. Chem. Chem. Phys., 2024 26(32)21379-21394
     doi.org/https://doi.org/10.1039/D4CP01514B 

List of suggested additional citations. These are papers that are important in the 'surrounding' of 
of this run, or papers that preceded the highly important papers. If you like your results we are grateful for a citation.

  1. Neese,F.
     The ORCA program system
     WIRES Comput. Molec. Sci., 2012 2(1)73-78
     doi.org/10.1002/wcms.81
  2. Neese,F.
     Software update: the ORCA program system, version 4.0
     WIRES Comput. Molec. Sci., 2018 8(1)1-6
     doi.org/10.1002/wcms.1327
  3. Neese,F.; Wennmohs,F.; Becker,U.; Riplinger,C.
     The ORCA quantum chemistry program package
     J. Chem. Phys., 2020 152 Art. No. L224108
     doi.org/10.1063/5.0004608

List of optional additional citations

  1. Neese,F.
     Approximate second-order SCF convergence for spin unrestricted wavefunctions
     Chem. Phys. Lett., 2000 325(1-3)93-98
     doi.org/10.1016/s0009-2614(00)00662-x

Timings for individual modules:

Sum of individual times          ...        0.861 sec (=   0.014 min)
Startup calculation              ...        0.250 sec (=   0.004 min)  29.0 %
SCF iterations                   ...        0.568 sec (=   0.009 min)  66.0 %
Property calculations            ...        0.043 sec (=   0.001 min)   5.0 %
                             ****ORCA TERMINATED NORMALLY****
TOTAL RUN TIME: 0 days 0 hours 0 minutes 0 seconds 960 msec
