      -----------------------------------------------------------      
     |                   =====================                   |     
     |                           x T B                           |     
     |                   =====================                   |     
     |                         S. Grimme                         |     
     |          Mulliken Center for Theoretical Chemistry        |     
     |                    University of Bonn                     |     
      -----------------------------------------------------------      

   * xtb version 6.7.1 (41059b4) compiled by 'michael@archlinux' on 2025-03-24

   xtb is free software: you can redistribute it and/or modify it under
   the terms of the GNU Lesser General Public License as published by
   the Free Software Foundation, either version 3 of the License, or
   (at your option) any later version.
   
   xtb is distributed in the hope that it will be useful,
   but WITHOUT ANY WARRANTY; without even the implied warranty of
   MERCHANTABILITY or FITNESS FOR A PARTICULAR PURPOSE.  See the
   GNU Lesser General Public License for more details.
   
   Cite this work as:
   * C. Bannwarth, E. Caldeweyher, S. Ehlert, A. Hansen, P. Pracht,
     J. Seibert, S. Spicher, S. Grimme, WIREs Comput. Mol. Sci., 2020, 11,
     e01493. DOI: 10.1002/wcms.1493
   
   for GFN2-xTB:
   * C. Bannwarth, S. Ehlert and S. Grimme., J. Chem. Theory Comput., 2019,
     15, 1652-1671. DOI: 10.1021/acs.jctc.8b01176
   for GFN1-xTB:
   * S. Grimme, C. Bannwarth, P. Shushkov, J. Chem. Theory Comput., 2017,
     13, 1989-2009. DOI: 10.1021/acs.jctc.7b00118
   for GFN0-xTB:
   * P. Pracht, E. Caldeweyher, S. Ehlert, S. Grimme, ChemRxiv, 2019, preprint.
     DOI: 10.26434/chemrxiv.8326202.v1
   for GFN-FF:
   * S. Spicher and S. Grimme, Angew. Chem. Int. Ed., 2020, 59, 15665-15673.
     DOI: 10.1002/anie.202004239
   
   for ALPB and GBSA implicit solvation:
   * S. Ehlert, M. Stahn, S. Spicher, S. Grimme, J. Chem. Theory Comput.,
     2021, 17, 4250-4261. DOI: 10.1021/acs.jctc.1c00471
   
   for ddCOSMO and CPCM-X implicit solvation:
   * M. Stahn, S. Ehlert, S. Grimme, J. Phys. Chem. A,
     2023, XX, XXXX-XXXX. DOI: 10.1021/acs.jpca.3c04382
   
   for DFT-D4:
   * E. Caldeweyher, C. Bannwarth and S. Grimme, J. Chem. Phys., 2017,
     147, 034112. DOI: 10.1063/1.4993215
   * E. Caldeweyher, S. Ehlert, A. Hansen, H. Neugebauer, S. Spicher,
     C. Bannwarth and S. Grimme, J. Chem. Phys., 2019, 150, 154122.
     DOI: 10.1063/1.5090222
   * E. Caldeweyher, J.-M. Mewes, S. Ehlert and S. Grimme, Phys. Chem. Chem. Phys.
     2020, 22, 8499-8512. DOI: 10.1039/D0CP00502A
   
   for sTDA-xTB:
   * S. Grimme and C. Bannwarth, J. Chem. Phys., 2016, 145, 054103.
     DOI: 10.1063/1.4959605
   
   in the mass-spec context:
   * V. Asgeirsson, C. Bauer and S. Grimme, Chem. Sci., 2017, 8, 4879.
     DOI: 10.1039/c7sc00601b
   * J. Koopman and S. Grimme, ACS Omega 2019, 4, 12, 15120-15133.
     DOI: 10.1021/acsomega.9b02011
   
   for metadynamics refer to:
   * S. Grimme, J. Chem. Theory Comput., 2019, 155, 2847-2862
     DOI: 10.1021/acs.jctc.9b00143
   
   for SPH calculations refer to:
   * S. Spicher and S. Grimme, J. Chem. Theory Comput., 2021, 17, 1701-1714
     DOI: 10.1021/acs.jctc.0c01306
   
   for ONIOM refer to:
   * C. Plett, A. Katbashev, S. Ehlert, S. Grimme, M. Bursch,
     Phys. Chem. Chem. Phys., 2023, 25, 17860-17868. DOI: 10.1039/D3CP02178E
   
   for DIPRO refer to:
   * J. Kohn, N. Gildemeister, S. Grimme, D. Fazzi, A. Hansen,
     J. Chem. Phys., 2023, just accepted.
   
   for PTB refer to:
   * S. Grimme, M. Mueller, A. Hansen, J. Chem. Phys., 2023, 158, 124111.
     DOI: 10.1063/5.0137838
   
   with help from (in alphabetical order)
   P. Atkinson, C. Bannwarth, F. Bohle, G. Brandenburg, E. Caldeweyher
   M. Checinski, S. Dohm, S. Ehlert, S. Ehrlich, I. Gerasimov, C. Hölzer
   A. Katbashev, J. Kohn, J. Koopman, C. Lavigne, S. Lehtola, F. März, M. Müller,
   F. Musil, H. Neugebauer, J. Pisarek, C. Plett, P. Pracht, F. Pultar,
   J. Seibert, P. Shushkov, S. Spicher, M. Stahn, M. Steiner, T. Strunk,
   J. Stückrath, T. Rose, and J. Unsleber
   
 * started run on 2025/04/09 at 01:23:02.801     
   ID    Z sym.   atoms
    1    6 C      1, 2
    2   35 Br     3, 4
    3    1 H      5-8

           -------------------------------------------------
          |                Calculation Setup                |
           -------------------------------------------------

          program call               : /usr/bin/xtb xtb_rrho.coord --gfn2 --ohess vtight --chrg 0 --enso --norestart -I rrho-xcontrol-inp --parallel 1
          coordinate file            : xtb_rrho.coord
          omp threads                :                     1


           -------------------------------------------------
          |                 G F N 2 - x T B                 |
           -------------------------------------------------

        Reference                      10.1021/acs.jctc.8b01176
      * Hamiltonian:
        H0-scaling (s, p, d)           1.850000    2.230000    2.230000
        zeta-weighting                 0.500000
      * Dispersion:
        s8                             2.700000
        a1                             0.520000
        a2                             5.000000
        s9                             5.000000
      * Repulsion:
        kExp                           1.500000    1.000000
        rExp                           1.000000
      * Coulomb:
        alpha                          2.000000
        third order                    shell-resolved
        anisotropic                    true
        a3                             3.000000
        a5                             4.000000
        cn-shift                       1.200000
        cn-exp                         4.000000
        max-rad                        5.000000


          ...................................................
          :                      SETUP                      :
          :.................................................:
          :  # basis functions                  32          :
          :  # atomic orbitals                  30          :
          :  # shells                           14          :
          :  # electrons                        26          :
          :  max. iterations                   250          :
          :  Hamiltonian                  GFN2-xTB          :
          :  restarted?                      false          :
          :  GBSA solvation                  false          :
          :  PC potential                    false          :
          :  electronic temp.          300.0000000     K    :
          :  accuracy                    1.0000000          :
          :  -> integral cutoff          0.2500000E+02      :
          :  -> integral neglect         0.1000000E-07      :
          :  -> SCF convergence          0.1000000E-05 Eh   :
          :  -> wf. convergence          0.1000000E-03 e    :
          :  Broyden damping             0.4000000          :
          :  net charge                          0          :
          :  unpaired electrons                  0          :
          ...................................................

 iter      E             dE          RMSdq      gap      omega  full diag
   1    -14.5260239 -0.145260E+02  0.600E+00    5.62       0.0  T
   2    -14.5601649 -0.341410E-01  0.466E+00    4.82       1.0  T
   3    -14.5659591 -0.579418E-02  0.152E+00    5.00       1.0  T
   4    -14.5692684 -0.330932E-02  0.757E-01    4.80       1.0  T
   5    -14.5698282 -0.559807E-03  0.337E-01    4.76       1.0  T
   6    -14.5699178 -0.895681E-04  0.141E-01    4.74       1.0  T
   7    -14.5699689 -0.511077E-04  0.376E-02    4.75       1.0  T
   8    -14.5699695 -0.644859E-06  0.123E-02    4.75       2.9  T
   9    -14.5699696 -0.517654E-07  0.684E-03    4.75       5.2  T
  10    -14.5699697 -0.898479E-07  0.237E-03    4.75      14.9  T
  11    -14.5699697 -0.310571E-08  0.614E-04    4.75      57.6  T
  12    -14.5699697 -0.177451E-09  0.345E-04    4.75     102.5  T

   *** convergence criteria satisfied after 12 iterations ***

         #    Occupation            Energy/Eh            Energy/eV
      -------------------------------------------------------------
         1        2.0000           -0.8505639             -23.1450
       ...           ...                  ...                  ...
         7        2.0000           -0.5370200             -14.6131
         8        2.0000           -0.5016612             -13.6509
         9        2.0000           -0.4953399             -13.4789
        10        2.0000           -0.4241048             -11.5405
        11        2.0000           -0.4203756             -11.4390
        12        2.0000           -0.4193393             -11.4108
        13        2.0000           -0.4181108             -11.3774 (HOMO)
        14                         -0.2435280              -6.6267 (LUMO)
        15                         -0.2333621              -6.3501
        16                         -0.0075842              -0.2064
        17                          0.0164390               0.4473
        18                          0.0249653               0.6793
       ...                                ...                  ...
        30                          0.3643046               9.9132
      -------------------------------------------------------------
                  HL-Gap            0.1745828 Eh            4.7506 eV
             Fermi-level           -0.3308194 Eh           -9.0021 eV

 SCC (total)                   0 d,  0 h,  0 min,  0.004 sec
 SCC setup                      ...        0 min,  0.000 sec (  1.294%)
 Dispersion                     ...        0 min,  0.000 sec (  0.444%)
 classical contributions        ...        0 min,  0.000 sec (  0.175%)
 integral evaluation            ...        0 min,  0.001 sec ( 15.684%)
 iterations                     ...        0 min,  0.002 sec ( 54.920%)
 molecular gradient             ...        0 min,  0.001 sec ( 25.916%)
 printout                       ...        0 min,  0.000 sec (  1.388%)

         :::::::::::::::::::::::::::::::::::::::::::::::::::::
         ::                     SUMMARY                     ::
         :::::::::::::::::::::::::::::::::::::::::::::::::::::
         :: total energy             -14.479214187868 Eh    ::
         :: gradient norm              0.008684977530 Eh/a0 ::
         :: HOMO-LUMO gap              4.750640368235 eV    ::
         ::.................................................::
         :: SCC energy               -14.569968048239 Eh    ::
         :: -> isotropic ES            0.010813467353 Eh    ::
         :: -> anisotropic ES          0.003298956984 Eh    ::
         :: -> anisotropic XC          0.002515813731 Eh    ::
         :: -> dispersion             -0.005180912421 Eh    ::
         :: repulsion energy           0.090753860371 Eh    ::
         :: add. restraining           0.000000000000 Eh    ::
         :: total charge              -0.000000000000 e     ::
         :::::::::::::::::::::::::::::::::::::::::::::::::::::

      ----------------------------------------------------------- 
     |                   =====================                   |
     |                        A N C O P T                        |
     |                   =====================                   |
     |               Approximate Normal Coordinate               |
     |                Rational Function Optimizer                |
      ----------------------------------------------------------- 

          ...................................................
          :                      SETUP                      :
          :.................................................:
          :   optimization level         verytight          :
          :   max. optcycles                   200          :
          :   ANC micro-cycles                  20          :
          :   degrees of freedom                18          :
          :.................................................:
          :   RF solver                   davidson          :
          :   write xtbopt.log                true          :
          :   linear?                        false          :
          :   energy convergence         0.1000000E-06 Eh   :
          :   grad. convergence          0.2000000E-03 Eh/α :
          :   maximum RF displ.          1.0000000          :
          :   Hlow (freq-cutoff)         0.1000000E-01      :
          :   Hmax (freq-cutoff)         5.0000000          :
          :   S6 in model hess.         20.0000000          :
          ...................................................

generating ANC from exact Hessian ...
Using Lindh-Hessian (1995)
 Shifting diagonal of input Hessian by    3.8317685919349977E-003
 Lowest  eigenvalues of input Hessian
    0.000000    0.000000    0.000000    0.000000    0.000000    0.000000
    0.010000    0.014284    0.019697    0.037217    0.041057    0.048995
    0.056614    0.089359    0.099897    0.109128    0.147950    0.264197
 Highest eigenvalues
    0.458198    0.720087    0.838190    1.049076    1.093304    1.209341


........................................................................
.............................. CYCLE    1 ..............................
........................................................................

 iter      E             dE          RMSdq      gap      omega  full diag
   1    -14.5699697 -0.145700E+02  0.205E-04    4.75       0.0  T
   2    -14.5699697 -0.223217E-10  0.159E-04    4.75     221.8  T
   3    -14.5699697 -0.105498E-10  0.117E-04    4.75     301.4  T
     SCC iter.                  ...        0 min,  0.001 sec
     gradient                   ...        0 min,  0.001 sec
 * total energy  :   -14.4792142 Eh     change       -0.1716156E-09 Eh
   gradient norm :     0.0086848 Eh/α   predicted     0.0000000E+00 (-100.00%)
   displ. norm   :     0.1676929 α      lambda       -0.4960070E-03
   maximum displ.:     0.1470283 α      in ANC's #2, #1, #5, ...

........................................................................
.............................. CYCLE    2 ..............................
........................................................................

 iter      E             dE          RMSdq      gap      omega  full diag
   1    -14.5707776 -0.145708E+02  0.295E-01    4.76       0.0  T
   2    -14.5707827 -0.509947E-05  0.141E-01    4.76       1.0  T
   3    -14.5707853 -0.253712E-05  0.357E-02    4.76       1.0  T
   4    -14.5707860 -0.737424E-06  0.239E-02    4.76       1.5  T
   5    -14.5707869 -0.872077E-06  0.908E-03    4.75       3.9  T
   6    -14.5707870 -0.792010E-07  0.214E-03    4.75      16.5  T
   7    -14.5707870 -0.249858E-08  0.863E-04    4.75      41.0  T
   8    -14.5707870 -0.452035E-09  0.415E-04    4.75      85.1  T
     SCC iter.                  ...        0 min,  0.001 sec
     gradient                   ...        0 min,  0.001 sec
 * total energy  :   -14.4794261 Eh     change       -0.2118657E-03 Eh
   gradient norm :     0.0056049 Eh/α   predicted    -0.2549748E-03 (  20.35%)
   displ. norm   :     0.0374118 α      lambda       -0.1111568E-03
   maximum displ.:     0.0251650 α      in ANC's #6, #2, #12, ...

........................................................................
.............................. CYCLE    3 ..............................
........................................................................

 iter      E             dE          RMSdq      gap      omega  full diag
   1    -14.5711436 -0.145711E+02  0.719E-02    4.80       0.0  T
   2    -14.5711440 -0.383530E-06  0.424E-02    4.80       1.0  T
   3    -14.5711442 -0.235996E-06  0.141E-02    4.80       2.5  T
   4    -14.5711444 -0.148424E-06  0.983E-03    4.80       3.6  T
   5    -14.5711445 -0.103729E-06  0.475E-03    4.80       7.4  T
   6    -14.5711445 -0.277693E-07  0.505E-04    4.80      70.1  T
   7    -14.5711445 -0.128576E-09  0.319E-04    4.80     110.7  T
     SCC iter.                  ...        0 min,  0.001 sec
     gradient                   ...        0 min,  0.001 sec
 * total energy  :   -14.4794822 Eh     change       -0.5611694E-04 Eh
   gradient norm :     0.0019522 Eh/α   predicted    -0.5565684E-04 (  -0.82%)
   displ. norm   :     0.0164102 α      lambda       -0.1163099E-04
   maximum displ.:     0.0112795 α      in ANC's #5, #6, #10, ...

........................................................................
.............................. CYCLE    4 ..............................
........................................................................

 iter      E             dE          RMSdq      gap      omega  full diag
   1    -14.5709516 -0.145710E+02  0.296E-02    4.81       0.0  T
   2    -14.5709517 -0.109379E-06  0.178E-02    4.81       2.0  T
   3    -14.5709517  0.406538E-07  0.518E-03    4.81       6.8  T
   4    -14.5709518 -0.759948E-07  0.149E-03    4.81      23.7  T
   5    -14.5709518 -0.965933E-09  0.670E-04    4.81      52.8  T
   6    -14.5709518 -0.451603E-09  0.324E-04    4.81     109.1  T
     SCC iter.                  ...        0 min,  0.001 sec
     gradient                   ...        0 min,  0.001 sec
 * total energy  :   -14.4794870 Eh     change       -0.4844818E-05 Eh
   gradient norm :     0.0006730 Eh/α   predicted    -0.5816720E-05 (  20.06%)
   displ. norm   :     0.0149464 α      lambda       -0.4120468E-05
   maximum displ.:     0.0114560 α      in ANC's #1, #5, #2, ...

........................................................................
.............................. CYCLE    5 ..............................
........................................................................

 iter      E             dE          RMSdq      gap      omega  full diag
   1    -14.5708806 -0.145709E+02  0.291E-02    4.81       0.0  T
   2    -14.5708807 -0.410298E-07  0.148E-02    4.81       2.4  T
   3    -14.5708807 -0.226860E-07  0.336E-03    4.81      10.5  T
   4    -14.5708807 -0.863073E-08  0.160E-03    4.81      22.1  T
   5    -14.5708807 -0.212931E-08  0.534E-04    4.81      66.2  T
   6    -14.5708807 -0.673440E-09  0.137E-04    4.81     257.7  T
     SCC iter.                  ...        0 min,  0.001 sec
     gradient                   ...        0 min,  0.001 sec
 * total energy  :   -14.4794893 Eh     change       -0.2249505E-05 Eh
   gradient norm :     0.0004765 Eh/α   predicted    -0.2059942E-05 (  -8.43%)
   displ. norm   :     0.0048970 α      lambda       -0.9865759E-06
   maximum displ.:     0.0037325 α      in ANC's #5, #10, #6, ...

........................................................................
.............................. CYCLE    6 ..............................
........................................................................

 iter      E             dE          RMSdq      gap      omega  full diag
   1    -14.5709150 -0.145709E+02  0.917E-03    4.81       0.0  T
   2    -14.5709150 -0.145534E-07  0.577E-03    4.81       6.1  T
   3    -14.5709150  0.457439E-08  0.211E-03    4.81      16.7  T
   4    -14.5709150 -0.105309E-07  0.915E-04    4.81      38.7  T
   5    -14.5709150 -0.747225E-09  0.445E-04    4.81      79.5  T
     SCC iter.                  ...        0 min,  0.001 sec
     gradient                   ...        0 min,  0.001 sec
 * total energy  :   -14.4794896 Eh     change       -0.3338033E-06 Eh
   gradient norm :     0.0002809 Eh/α   predicted    -0.4950252E-06 (  48.30%)
   displ. norm   :     0.0037028 α      lambda       -0.3892065E-06
   maximum displ.:     0.0027316 α      in ANC's #1, #10, #2, ...

........................................................................
.............................. CYCLE    7 ..............................
........................................................................

 iter      E             dE          RMSdq      gap      omega  full diag
   1    -14.5709270 -0.145709E+02  0.822E-03    4.81       0.0  T
   2    -14.5709270 -0.909221E-08  0.460E-03    4.81       7.7  T
   3    -14.5709270 -0.629871E-09  0.168E-03    4.81      21.0  T
   4    -14.5709270 -0.407944E-08  0.109E-03    4.81      32.3  T
   5    -14.5709270 -0.115387E-08  0.473E-04    4.81      74.7  T
   6    -14.5709270 -0.284745E-09  0.561E-05    4.81     630.2  T
     SCC iter.                  ...        0 min,  0.001 sec
     gradient                   ...        0 min,  0.001 sec
 * total energy  :   -14.4794899 Eh     change       -0.2837775E-06 Eh
   gradient norm :     0.0000658 Eh/α   predicted    -0.1945437E-06 ( -31.44%)
   displ. norm   :     0.0028127 α      lambda       -0.4543000E-07
   maximum displ.:     0.0027008 α      in ANC's #1, #2, #8, ...

........................................................................
.............................. CYCLE    8 ..............................
........................................................................

 iter      E             dE          RMSdq      gap      omega  full diag
   1    -14.5709225 -0.145709E+02  0.570E-03    4.81       0.0  T
   2    -14.5709225 -0.153813E-08  0.272E-03    4.81      13.0  T
   3    -14.5709225 -0.472967E-09  0.491E-04    4.81      72.1  T
   4    -14.5709225 -0.157836E-09  0.356E-04    4.81      99.4  T
     SCC iter.                  ...        0 min,  0.000 sec
     gradient                   ...        0 min,  0.001 sec
 * total energy  :   -14.4794899 Eh     change       -0.3913061E-07 Eh
   gradient norm :     0.0000369 Eh/α   predicted    -0.2195645E-07 ( -43.89%)
   displ. norm   :     0.0015908 α      lambda       -0.1263148E-07
   maximum displ.:     0.0014407 α      in ANC's #1, #2, #5, ...

   *** GEOMETRY OPTIMIZATION CONVERGED AFTER 8 ITERATIONS ***

------------------------------------------------------------------------
 total energy gain   :        -0.0002757 Eh       -0.1730 kcal/mol
 total RMSD          :         0.0543173 a0        0.0287 Å
 total power (kW/mol):        -0.0904924 (step)  -33.5960 (real)
------------------------------------------------------------------------

 ANCopt (total)                0 d,  0 h,  0 min,  0.022 sec
 optimizer setup                ...        0 min,  0.000 sec (  0.165%)
 model hessian                  ...        0 min,  0.000 sec (  0.972%)
 ANC generation                 ...        0 min,  0.000 sec (  0.229%)
 coordinate transformation      ...        0 min,  0.000 sec (  0.082%)
 single point calculation       ...        0 min,  0.021 sec ( 95.406%)
 optimization log               ...        0 min,  0.000 sec (  1.239%)
 hessian update                 ...        0 min,  0.000 sec (  0.098%)
 rational function              ...        0 min,  0.000 sec (  0.982%)

================
 final structure:
================
$coord
       -1.15355738625289        0.83990495452619        2.42039797053906      C
        1.15380867520652       -0.83924563616955        2.42071360894612      C
        3.36448322645457       -0.09648457270738       -0.44385681920111      Br
       -3.36442995287011        0.09599292567227       -0.44371765972899      Br
       -0.64759880166626        2.83092542808550        2.27345942673147      H
       -2.26918650162104        0.52343154278580        4.12420675351548      H
        2.26950643453821       -0.52205648283278        4.12434517499505      H
        0.64784043469791       -2.83032644302320        2.27462774212510      H
$end

 Bond Distances (Angstroems)
 ---------------------------
C1-C2=1.5101         C1-Br4=1.9547        C1-H5=1.0899         C1-H6=1.0906         C2-C1=1.5101         C2-Br3=1.9547        
C2-H7=1.0906         C2-H8=1.0899         Br3-C2=1.9547        Br4-C1=1.9547        H5-C1=1.0899         H6-C1=1.0906         
H7-C2=1.0906         H8-C2=1.0899         
 C  H  Rav=1.0903 sigma=0.0004  Rmin=1.0899  Rmax=1.0906     4
 C  C  Rav=1.5101 sigma=0.0000  Rmin=1.5101  Rmax=1.5101     1
 Br C  Rav=1.9547 sigma=0.0000  Rmin=1.9547  Rmax=1.9547     2

 selected bond angles (degree)
 --------------------
Br4-C1-C2=111.44               H5-C1-C2=111.73                H5-C1-Br4=106.64               H6-C1-C2=110.32                
H6-C1-Br4=106.62               H6-C1-H5=109.90                Br3-C2-C1=111.44               H7-C2-C1=110.32                
H7-C2-Br3=106.62               H8-C2-C1=111.73                H8-C2-Br3=106.64               H8-C2-H7=109.90                

 selected dihedral angles (degree)
 ---------------------------------
Br3-C2-C1-Br4= 67.17          Br3-C2-C1-H5=307.98           Br3-C2-C1-H6=185.41           H7-C2-C1-Br4=185.41           
H7-C2-C1-H5= 66.21            H7-C2-C1-H6=303.65            H8-C2-C1-Br4=307.98           H8-C2-C1-H5=188.78            
H8-C2-C1-H6= 66.22            
           -------------------------------------------------
          |                Final Singlepoint                |
           -------------------------------------------------

          ...................................................
          :                      SETUP                      :
          :.................................................:
          :  # basis functions                  32          :
          :  # atomic orbitals                  30          :
          :  # shells                           14          :
          :  # electrons                        26          :
          :  max. iterations                   250          :
          :  Hamiltonian                  GFN2-xTB          :
          :  restarted?                      false          :
          :  GBSA solvation                  false          :
          :  PC potential                    false          :
          :  electronic temp.          300.0000000     K    :
          :  accuracy                    1.0000000          :
          :  -> integral cutoff          0.2500000E+02      :
          :  -> integral neglect         0.1000000E-07      :
          :  -> SCF convergence          0.1000000E-05 Eh   :
          :  -> wf. convergence          0.1000000E-03 e    :
          :  Broyden damping             0.4000000          :
          :  net charge                          0          :
          :  unpaired electrons                  0          :
          ...................................................

 iter      E             dE          RMSdq      gap      omega  full diag
   1    -14.5709225 -0.145709E+02  0.170E-04    4.81       0.0  T
   2    -14.5709225 -0.101679E-10  0.131E-04    4.81     269.2  T
   3    -14.5709225 -0.115055E-10  0.750E-05    4.81     471.3  T

   *** convergence criteria satisfied after 3 iterations ***

         #    Occupation            Energy/Eh            Energy/eV
      -------------------------------------------------------------
         1        2.0000           -0.8515144             -23.1709
       ...           ...                  ...                  ...
         7        2.0000           -0.5364074             -14.5964
         8        2.0000           -0.5025781             -13.6758
         9        2.0000           -0.4968218             -13.5192
        10        2.0000           -0.4241118             -11.5407
        11        2.0000           -0.4211535             -11.4602
        12        2.0000           -0.4196739             -11.4199
        13        2.0000           -0.4178611             -11.3706 (HOMO)
        14                         -0.2411788              -6.5628 (LUMO)
        15                         -0.2294171              -6.2428
        16                         -0.0101023              -0.2749
        17                          0.0146593               0.3989
        18                          0.0262688               0.7148
       ...                                ...                  ...
        30                          0.3788710              10.3096
      -------------------------------------------------------------
                  HL-Gap            0.1766823 Eh            4.8078 eV
             Fermi-level           -0.3295200 Eh           -8.9667 eV

 SCC (total)                   0 d,  0 h,  0 min,  0.002 sec
 SCC setup                      ...        0 min,  0.000 sec (  1.337%)
 Dispersion                     ...        0 min,  0.000 sec (  0.496%)
 classical contributions        ...        0 min,  0.000 sec (  0.216%)
 integral evaluation            ...        0 min,  0.001 sec ( 27.169%)
 iterations                     ...        0 min,  0.000 sec ( 18.827%)
 molecular gradient             ...        0 min,  0.001 sec ( 49.609%)
 printout                       ...        0 min,  0.000 sec (  1.997%)

         :::::::::::::::::::::::::::::::::::::::::::::::::::::
         ::                     SUMMARY                     ::
         :::::::::::::::::::::::::::::::::::::::::::::::::::::
         :: total energy             -14.479489921810 Eh    ::
         :: gradient norm              0.000036550913 Eh/a0 ::
         :: HOMO-LUMO gap              4.807769223145 eV    ::
         ::.................................................::
         :: SCC energy               -14.570920961688 Eh    ::
         :: -> isotropic ES            0.010397142295 Eh    ::
         :: -> anisotropic ES          0.003500425673 Eh    ::
         :: -> anisotropic XC          0.001428931982 Eh    ::
         :: -> dispersion             -0.005222904446 Eh    ::
         :: repulsion energy           0.091431039878 Eh    ::
         :: add. restraining           0.000000000000 Eh    ::
         :: total charge              -0.000000000000 e     ::
         :::::::::::::::::::::::::::::::::::::::::::::::::::::

           ------------------------------------------------- 
          |                Numerical Hessian                |
           ------------------------------------------------- 
step length          :   0.00500
SCC accuracy         :   0.30000
Hessian scale factor :   1.00000
frozen atoms in %    :   0.00000    0
RMS gradient         :   0.00004
estimated CPU  time      0.00 min
estimated wall time      0.00 min

writing file <hessian>, containing the non-mass-weighted Hessian matrix in atomic units (Eₕ/Bohr²).

 projected vibrational frequencies (cm⁻¹)
eigval :       -0.00    -0.00     0.00     0.00     0.00     0.00
eigval :       56.69   218.16   337.38   527.78   561.42   848.72
eigval :      920.74  1044.32  1105.19  1159.18  1245.16  1259.02
eigval :     1418.34  1432.55  2983.69  2987.12  2993.22  3004.04
           -------------------------------------------------
          |                Property Printout                |
           -------------------------------------------------

    * Orbital Energies and Occupations

         #    Occupation            Energy/Eh            Energy/eV
      -------------------------------------------------------------
         1        2.0000           -0.8515147             -23.1709
         2        2.0000           -0.8455704             -23.0091
         3        2.0000           -0.6737624             -18.3340
         4        2.0000           -0.6224934             -16.9389
         5        2.0000           -0.5657180             -15.3940
         6        2.0000           -0.5606037             -15.2548
         7        2.0000           -0.5364075             -14.5964
         8        2.0000           -0.5025783             -13.6759
         9        2.0000           -0.4968220             -13.5192
        10        2.0000           -0.4241122             -11.5407
        11        2.0000           -0.4211539             -11.4602
        12        2.0000           -0.4196743             -11.4199
        13        2.0000           -0.4178615             -11.3706 (HOMO)
        14                         -0.2411792              -6.5628 (LUMO)
        15                         -0.2294175              -6.2428
        16                         -0.0101024              -0.2749
        17                          0.0146590               0.3989
        18                          0.0262685               0.7148
        19                          0.0271264               0.7381
        20                          0.0338025               0.9198
        21                          0.0338197               0.9203
        22                          0.0434945               1.1835
        23                          0.0441786               1.2022
        24                          0.0981575               2.6710
       ...                                ...                  ...
        30                          0.3788707              10.3096
      -------------------------------------------------------------
                  HL-Gap            0.1766823 Eh            4.8078 eV
             Fermi-level           -0.3295204 Eh           -8.9667 eV

     #   Z          covCN         q      C6AA      α(0)
     1   6          3.802     0.024    20.174     6.395
     2   6          3.802     0.024    20.174     6.395
     3  35          1.013    -0.162   189.497    22.195
     4  35          1.013    -0.162   189.497    22.195
     5   1          0.926     0.074     2.040     2.234
     6   1          0.926     0.064     2.156     2.296
     7   1          0.926     0.064     2.156     2.296
     8   1          0.926     0.074     2.040     2.234

 Mol. C6AA /au·bohr⁶  :       1785.534036
 Mol. C8AA /au·bohr⁸  :      82411.691853
 Mol. α(0) /au        :         66.240246


Wiberg/Mayer (AO) data.
largest (>0.10) Wiberg bond orders for each atom

 ---------------------------------------------------------------------------
     #   Z sym  total        # sym  WBO       # sym  WBO       # sym  WBO
 ---------------------------------------------------------------------------
     1   6      3.965 --     2      1.032     4      0.975     5      0.975
                             6      0.970
     2   6      3.965 --     1      1.032     3      0.975     8      0.975
                             7      0.970
     3  35      1.029 --     2      0.975
     4  35      1.029 --     1      0.975
     5   1      0.994 --     1      0.975
     6   1      0.996 --     1      0.970
     7   1      0.996 --     2      0.970
     8   1      0.994 --     2      0.975
 ---------------------------------------------------------------------------

Topologies differ in total number of bonds
Writing topology from bond orders to xtbtopo.mol

molecular dipole:
                 x           y           z       tot (Debye)
 q only:        0.000       0.000       1.121
   full:        0.000       0.000       2.003       5.090
molecular quadrupole (traceless):
                xx          xy          yy          xz          yz          zz
 q only:       -5.078      -0.547       1.119       0.001       0.000       3.960
  q+dip:      -10.235      -1.807       4.943       0.001      -0.000       5.292
   full:       -9.880      -1.590       3.638       0.001       0.000       6.241

           -------------------------------------------------
          |                Geometry Summary                 |
           -------------------------------------------------

      molecular mass/u    :      187.8602904
   center of mass at/Å    :        0.0000221      -0.0000827       0.0003471
  moments of inertia/u·Å² :        0.6956879E+02   0.5284873E+03   0.5804126E+03
rotational constants/cm⁻¹ :        0.2423160E+00   0.3189790E-01   0.2904422E-01

 * 7 selected distances

     #   Z          #   Z                                           value/Å
     1   6          2   6                                         1.5101021
     2   6          3  35                                         1.9547023 (max)
     1   6          4  35                                         1.9547009
     1   6          5   1                                         1.0898672 (min)
Refinement of some symmetry elements was terminated before convergence was reached.
Some symmetry elements may remain unidentified.
Molecule has the following symmetry elements: (C2) 
It seems to be the C2 point group
     1   6          6   1                                         1.0906378
     2   6          7   1                                         1.0906382
     2   6          8   1                                         1.0898672

 * 3 distinct bonds (by element types)

   Z      Z             #   av. dist./Å        max./Å        min./Å
   1 H    6 C           4     1.0902526     1.0906382     1.0898672
   6 C    6 C           1     1.5101021     1.5101021     1.5101021
   6 C   35 Br          2     1.9547016     1.9547023     1.9547009

           -------------------------------------------------
          |               Frequency Printout                |
           -------------------------------------------------
 projected vibrational frequencies (cm⁻¹)
eigval :       -0.00    -0.00     0.00     0.00     0.00     0.00
eigval :       56.69   218.16   337.38   527.78   561.42   848.72
eigval :      920.74  1044.32  1105.19  1159.18  1245.16  1259.02
eigval :     1418.34  1432.55  2983.69  2987.12  2993.22  3004.04
 reduced masses (amu)
    1:      3.66    2:     16.48    3:     31.23    4:     36.15    5:     23.17    6:     16.17
    7:     16.78    8:      2.33    9:      3.82   10:      4.96   11:      3.13   12:      1.52
   13:      1.46   14:      2.83   15:      1.03   16:      1.19   17:      1.22   18:      1.21
   19:      1.08   20:      1.09   21:      1.07   22:      1.08   23:      1.07   24:      1.08
 IR intensities (km·mol⁻¹)
    1:     13.38    2:      0.46    3:      1.02    4:      0.29    5:      0.43    6:      1.84
    7:      1.96    8:      0.27    9:      2.65   10:     37.20   11:     47.47   12:      0.13
   13:      0.06   14:      0.05   15:      0.73   16:      0.79   17:     64.31   18:     30.74
   19:     25.04   20:      0.15   21:      0.50   22:      5.14   23:      0.01   24:      8.37
 Raman intensities (Ä⁴*amu⁻¹)
    1:      0.00    2:      0.00    3:      0.00    4:      0.00    5:      0.00    6:      0.00
    7:      0.00    8:      0.00    9:      0.00   10:      0.00   11:      0.00   12:      0.00
   13:      0.00   14:      0.00   15:      0.00   16:      0.00   17:      0.00   18:      0.00
   19:      0.00   20:      0.00   21:      0.00   22:      0.00   23:      0.00   24:      0.00
 output can be read by thermo (or use thermo option).
 writing <g98.out> molden fake output.
 recommended (thermochemical) frequency scaling factor: 1.0
           -------------------------------------------------
          |             Thermodynamic Functions             |
           -------------------------------------------------

c2  symmetry found (for desy threshold:  0.10E+00) used in thermo

          ...................................................
          :                      SETUP                      :
          :.................................................:
          :  # frequencies                          18      :
          :  # imaginary freq.                       0      :
          :  linear?                             false      :
          :  only rotor calc.                    false      :
          :  symmetry                               c2      :
          :  rotational number                       2      :
          :  scaling factor                  1.0000000      :
          :  rotor cutoff                    0.0000000 cm⁻¹ :
          :  imag. cutoff                 -100.0000000 cm⁻¹ :
          :.................................................:

    mode    ω/cm⁻¹     T·S(HO)/kcal·mol⁻¹    T·S(FR)/kcal·mol⁻¹   T·S(vib)
   ------------------------------------------------------------------------
       1     56.69    -1.36234 (100.00%)    -1.01914 (  0.00%)    -1.36234
       2    218.16    -0.58865 (100.00%)    -0.62007 (  0.00%)    -0.58865
   ------------------------------------------------------------------------

   temp. (K)  partition function   enthalpy   heat capacity  entropy
                                   cal/mol     cal/K/mol   cal/K/mol   J/K/mol
 298.15  VIB   9.76                 1472.893     10.120      9.468
         ROT  0.176E+06              888.727      2.981     26.988
         INT  0.172E+07             2361.620     13.101     36.456
         TR   0.788E+26             1481.212      4.968     41.597
         TOT                        3842.8327    18.0686    78.0534   326.5756

       T/K    H(0)-H(T)+PV         H(T)/Eh          T*S/Eh         G(T)/Eh
   ------------------------------------------------------------------------
    298.15    0.612394E-02    0.610340E-01    0.370857E-01    0.239483E-01
   ------------------------------------------------------------------------

         :::::::::::::::::::::::::::::::::::::::::::::::::::::
         ::                  THERMODYNAMIC                  ::
         :::::::::::::::::::::::::::::::::::::::::::::::::::::
         :: total free energy         -14.455541667599 Eh   ::
         ::.................................................::
         :: total energy              -14.479489921818 Eh   ::
         :: zero point energy           0.054910015642 Eh   ::
         :: G(RRHO) w/o ZPVE           -0.030961761423 Eh   ::
         :: G(RRHO) contrib.            0.023948254219 Eh   ::
         :::::::::::::::::::::::::::::::::::::::::::::::::::::

optimized geometry written to: xtbopt.coord


           -------------------------------------------------
          | TOTAL ENERGY              -14.479489921818 Eh   |
          | TOTAL ENTHALPY            -14.418455962526 Eh   |
          | TOTAL FREE ENERGY         -14.455541667599 Eh   |
          | GRADIENT NORM               0.000036602410 Eh/α |
          | HOMO-LUMO GAP               4.807770590389 eV   |
           -------------------------------------------------

------------------------------------------------------------------------
 * finished run on 2025/04/09 at 01:23:02.951     
------------------------------------------------------------------------
 total:
 * wall-time:     0 d,  0 h,  0 min,  0.150 sec
 *  cpu-time:     0 d,  0 h,  0 min,  0.147 sec
 * ratio c/w:     0.982 speedup
 SCF:
 * wall-time:     0 d,  0 h,  0 min,  0.004 sec
 *  cpu-time:     0 d,  0 h,  0 min,  0.004 sec
 * ratio c/w:     0.984 speedup
 ANC optimizer:
 * wall-time:     0 d,  0 h,  0 min,  0.024 sec
 *  cpu-time:     0 d,  0 h,  0 min,  0.022 sec
 * ratio c/w:     0.931 speedup
 analytical hessian:
 * wall-time:     0 d,  0 h,  0 min,  0.118 sec
 *  cpu-time:     0 d,  0 h,  0 min,  0.117 sec
 * ratio c/w:     0.992 speedup

