      -----------------------------------------------------------      
     |                   =====================                   |     
     |                           x T B                           |     
     |                   =====================                   |     
     |                         S. Grimme                         |     
     |          Mulliken Center for Theoretical Chemistry        |     
     |                    University of Bonn                     |     
      -----------------------------------------------------------      

   * xtb version 6.7.1 (41059b4) compiled by 'michael@archlinux' on 2025-03-24

   xtb is free software: you can redistribute it and/or modify it under
   the terms of the GNU Lesser General Public License as published by
   the Free Software Foundation, either version 3 of the License, or
   (at your option) any later version.
   
   xtb is distributed in the hope that it will be useful,
   but WITHOUT ANY WARRANTY; without even the implied warranty of
   MERCHANTABILITY or FITNESS FOR A PARTICULAR PURPOSE.  See the
   GNU Lesser General Public License for more details.
   
   Cite this work as:
   * C. Bannwarth, E. Caldeweyher, S. Ehlert, A. Hansen, P. Pracht,
     J. Seibert, S. Spicher, S. Grimme, WIREs Comput. Mol. Sci., 2020, 11,
     e01493. DOI: 10.1002/wcms.1493
   
   for GFN2-xTB:
   * C. Bannwarth, S. Ehlert and S. Grimme., J. Chem. Theory Comput., 2019,
     15, 1652-1671. DOI: 10.1021/acs.jctc.8b01176
   for GFN1-xTB:
   * S. Grimme, C. Bannwarth, P. Shushkov, J. Chem. Theory Comput., 2017,
     13, 1989-2009. DOI: 10.1021/acs.jctc.7b00118
   for GFN0-xTB:
   * P. Pracht, E. Caldeweyher, S. Ehlert, S. Grimme, ChemRxiv, 2019, preprint.
     DOI: 10.26434/chemrxiv.8326202.v1
   for GFN-FF:
   * S. Spicher and S. Grimme, Angew. Chem. Int. Ed., 2020, 59, 15665-15673.
     DOI: 10.1002/anie.202004239
   
   for ALPB and GBSA implicit solvation:
   * S. Ehlert, M. Stahn, S. Spicher, S. Grimme, J. Chem. Theory Comput.,
     2021, 17, 4250-4261. DOI: 10.1021/acs.jctc.1c00471
   
   for ddCOSMO and CPCM-X implicit solvation:
   * M. Stahn, S. Ehlert, S. Grimme, J. Phys. Chem. A,
     2023, XX, XXXX-XXXX. DOI: 10.1021/acs.jpca.3c04382
   
   for DFT-D4:
   * E. Caldeweyher, C. Bannwarth and S. Grimme, J. Chem. Phys., 2017,
     147, 034112. DOI: 10.1063/1.4993215
   * E. Caldeweyher, S. Ehlert, A. Hansen, H. Neugebauer, S. Spicher,
     C. Bannwarth and S. Grimme, J. Chem. Phys., 2019, 150, 154122.
     DOI: 10.1063/1.5090222
   * E. Caldeweyher, J.-M. Mewes, S. Ehlert and S. Grimme, Phys. Chem. Chem. Phys.
     2020, 22, 8499-8512. DOI: 10.1039/D0CP00502A
   
   for sTDA-xTB:
   * S. Grimme and C. Bannwarth, J. Chem. Phys., 2016, 145, 054103.
     DOI: 10.1063/1.4959605
   
   in the mass-spec context:
   * V. Asgeirsson, C. Bauer and S. Grimme, Chem. Sci., 2017, 8, 4879.
     DOI: 10.1039/c7sc00601b
   * J. Koopman and S. Grimme, ACS Omega 2019, 4, 12, 15120-15133.
     DOI: 10.1021/acsomega.9b02011
   
   for metadynamics refer to:
   * S. Grimme, J. Chem. Theory Comput., 2019, 155, 2847-2862
     DOI: 10.1021/acs.jctc.9b00143
   
   for SPH calculations refer to:
   * S. Spicher and S. Grimme, J. Chem. Theory Comput., 2021, 17, 1701-1714
     DOI: 10.1021/acs.jctc.0c01306
   
   for ONIOM refer to:
   * C. Plett, A. Katbashev, S. Ehlert, S. Grimme, M. Bursch,
     Phys. Chem. Chem. Phys., 2023, 25, 17860-17868. DOI: 10.1039/D3CP02178E
   
   for DIPRO refer to:
   * J. Kohn, N. Gildemeister, S. Grimme, D. Fazzi, A. Hansen,
     J. Chem. Phys., 2023, just accepted.
   
   for PTB refer to:
   * S. Grimme, M. Mueller, A. Hansen, J. Chem. Phys., 2023, 158, 124111.
     DOI: 10.1063/5.0137838
   
   with help from (in alphabetical order)
   P. Atkinson, C. Bannwarth, F. Bohle, G. Brandenburg, E. Caldeweyher
   M. Checinski, S. Dohm, S. Ehlert, S. Ehrlich, I. Gerasimov, C. Hölzer
   A. Katbashev, J. Kohn, J. Koopman, C. Lavigne, S. Lehtola, F. März, M. Müller,
   F. Musil, H. Neugebauer, J. Pisarek, C. Plett, P. Pracht, F. Pultar,
   J. Seibert, P. Shushkov, S. Spicher, M. Stahn, M. Steiner, T. Strunk,
   J. Stückrath, T. Rose, and J. Unsleber
   
 * started run on 2025/04/09 at 01:20:29.161     
   ID    Z sym.   atoms
    1    6 C      1-5, 8
    2    8 O      6, 7
    3    1 H      9-20

           -------------------------------------------------
          |                Calculation Setup                |
           -------------------------------------------------

          program call               : /usr/bin/xtb xtb_rrho.coord --gfn2 --ohess vtight --chrg 0 --enso --norestart -I rrho-xcontrol-inp --parallel 1
          coordinate file            : xtb_rrho.coord
          omp threads                :                     1


           -------------------------------------------------
          |                 G F N 2 - x T B                 |
           -------------------------------------------------

        Reference                      10.1021/acs.jctc.8b01176
      * Hamiltonian:
        H0-scaling (s, p, d)           1.850000    2.230000    2.230000
        zeta-weighting                 0.500000
      * Dispersion:
        s8                             2.700000
        a1                             0.520000
        a2                             5.000000
        s9                             5.000000
      * Repulsion:
        kExp                           1.500000    1.000000
        rExp                           1.000000
      * Coulomb:
        alpha                          2.000000
        third order                    shell-resolved
        anisotropic                    true
        a3                             3.000000
        a5                             4.000000
        cn-shift                       1.200000
        cn-exp                         4.000000
        max-rad                        5.000000


          ...................................................
          :                      SETUP                      :
          :.................................................:
          :  # basis functions                  44          :
          :  # atomic orbitals                  44          :
          :  # shells                           28          :
          :  # electrons                        48          :
          :  max. iterations                   250          :
          :  Hamiltonian                  GFN2-xTB          :
          :  restarted?                      false          :
          :  GBSA solvation                  false          :
          :  PC potential                    false          :
          :  electronic temp.          300.0000000     K    :
          :  accuracy                    1.0000000          :
          :  -> integral cutoff          0.2500000E+02      :
          :  -> integral neglect         0.1000000E-07      :
          :  -> SCF convergence          0.1000000E-05 Eh   :
          :  -> wf. convergence          0.1000000E-03 e    :
          :  Broyden damping             0.4000000          :
          :  net charge                          0          :
          :  unpaired electrons                  0          :
          ...................................................

 iter      E             dE          RMSdq      gap      omega  full diag
   1    -27.3546852 -0.273547E+02  0.391E+00    5.60       0.0  T
   2    -27.4134621 -0.587769E-01  0.201E+00    4.59       1.0  T
   3    -27.4160091 -0.254699E-02  0.114E+00    5.01       1.0  T
   4    -27.4191958 -0.318661E-02  0.186E-01    4.71       1.0  T
   5    -27.4194433 -0.247524E-03  0.740E-02    4.77       1.0  T
   6    -27.4194499 -0.663815E-05  0.179E-02    4.77       1.2  T
   7    -27.4194503 -0.374450E-06  0.540E-03    4.77       4.1  T
   8    -27.4194504 -0.882767E-07  0.167E-03    4.77      13.4  T
   9    -27.4194504 -0.522249E-08  0.775E-04    4.77      28.9  T
  10    -27.4194504 -0.145813E-08  0.182E-04    4.77     123.1  T

   *** convergence criteria satisfied after 10 iterations ***

         #    Occupation            Energy/Eh            Energy/eV
      -------------------------------------------------------------
         1        2.0000           -0.7357599             -20.0210
       ...           ...                  ...                  ...
        18        2.0000           -0.4677861             -12.7291
        19        2.0000           -0.4594560             -12.5024
        20        2.0000           -0.4562431             -12.4150
        21        2.0000           -0.4460479             -12.1376
        22        2.0000           -0.4405300             -11.9874
        23        2.0000           -0.4399097             -11.9706
        24        2.0000           -0.4060400             -11.0489 (HOMO)
        25                         -0.2308230              -6.2810 (LUMO)
        26                         -0.0075563              -0.2056
        27                          0.0738051               2.0083
        28                          0.0845910               2.3018
        29                          0.0964428               2.6243
       ...                                ...                  ...
        44                          0.6276877              17.0803
      -------------------------------------------------------------
                  HL-Gap            0.1752171 Eh            4.7679 eV
             Fermi-level           -0.3184315 Eh           -8.6650 eV

 SCC (total)                   0 d,  0 h,  0 min,  0.008 sec
 SCC setup                      ...        0 min,  0.000 sec (  0.967%)
 Dispersion                     ...        0 min,  0.000 sec (  1.063%)
 classical contributions        ...        0 min,  0.000 sec (  0.301%)
 integral evaluation            ...        0 min,  0.001 sec ( 13.757%)
 iterations                     ...        0 min,  0.004 sec ( 45.557%)
 molecular gradient             ...        0 min,  0.003 sec ( 37.133%)
 printout                       ...        0 min,  0.000 sec (  1.121%)

         :::::::::::::::::::::::::::::::::::::::::::::::::::::
         ::                     SUMMARY                     ::
         :::::::::::::::::::::::::::::::::::::::::::::::::::::
         :: total energy             -27.116000042268 Eh    ::
         :: gradient norm              0.029398284737 Eh/a0 ::
         :: HOMO-LUMO gap              4.767899343560 eV    ::
         ::.................................................::
         :: SCC energy               -27.419379850545 Eh    ::
         :: -> isotropic ES            0.046109024073 Eh    ::
         :: -> anisotropic ES          0.003990417413 Eh    ::
         :: -> anisotropic XC          0.008468896419 Eh    ::
         :: -> dispersion             -0.013093818930 Eh    ::
         :: repulsion energy           0.303379808277 Eh    ::
         :: add. restraining           0.000000000000 Eh    ::
         :: total charge              -0.000000000000 e     ::
         :::::::::::::::::::::::::::::::::::::::::::::::::::::

      ----------------------------------------------------------- 
     |                   =====================                   |
     |                        A N C O P T                        |
     |                   =====================                   |
     |               Approximate Normal Coordinate               |
     |                Rational Function Optimizer                |
      ----------------------------------------------------------- 

          ...................................................
          :                      SETUP                      :
          :.................................................:
          :   optimization level         verytight          :
          :   max. optcycles                   400          :
          :   ANC micro-cycles                  20          :
          :   degrees of freedom                54          :
          :.................................................:
          :   RF solver                   davidson          :
          :   write xtbopt.log                true          :
          :   linear?                        false          :
          :   energy convergence         0.1000000E-06 Eh   :
          :   grad. convergence          0.2000000E-03 Eh/α :
          :   maximum RF displ.          1.0000000          :
          :   Hlow (freq-cutoff)         0.1000000E-01      :
          :   Hmax (freq-cutoff)         5.0000000          :
          :   S6 in model hess.         20.0000000          :
          ...................................................

generating ANC from exact Hessian ...
Using Lindh-Hessian (1995)
 Shifting diagonal of input Hessian by    8.4083797447934046E-003
 Lowest  eigenvalues of input Hessian
    0.000000    0.000000    0.000000    0.000000    0.000000    0.000000
    0.010000    0.012417    0.012901    0.016946    0.017307    0.017536
    0.018618    0.019284    0.020742    0.025326    0.030273    0.034945
 Highest eigenvalues
    1.158210    1.216231    1.228779    1.282563    1.694801    2.288752


........................................................................
.............................. CYCLE    1 ..............................
........................................................................

 iter      E             dE          RMSdq      gap      omega  full diag
   1    -27.4194504 -0.274195E+02  0.879E-05    4.77       0.0  T
   2    -27.4194504 -0.749623E-11  0.529E-05    4.77     422.4  T
   3    -27.4194504 -0.600409E-12  0.175E-05    4.77    1275.3  T
     SCC iter.                  ...        0 min,  0.001 sec
     gradient                   ...        0 min,  0.003 sec
 * total energy  :   -27.1160000 Eh     change       -0.2421245E-09 Eh
   gradient norm :     0.0293983 Eh/α   predicted     0.0000000E+00 (-100.00%)
   displ. norm   :     0.1040243 α      lambda       -0.1503897E-02
   maximum displ.:     0.0526514 α      in ANC's #14, #9, #8, ...

........................................................................
.............................. CYCLE    2 ..............................
........................................................................

 iter      E             dE          RMSdq      gap      omega  full diag
   1    -27.4321958 -0.274322E+02  0.952E-02    4.87       0.0  T
   2    -27.4322198 -0.239930E-04  0.550E-02    4.85       1.0  T
   3    -27.4322204 -0.633848E-06  0.269E-02    4.86       1.0  T
   4    -27.4322231 -0.267086E-05  0.355E-03    4.85       6.3  T
   5    -27.4322231 -0.531710E-07  0.174E-03    4.85      12.8  T
   6    -27.4322232 -0.377848E-08  0.605E-04    4.85      36.9  T
   7    -27.4322232 -0.137741E-08  0.250E-04    4.85      89.5  T
     SCC iter.                  ...        0 min,  0.002 sec
     gradient                   ...        0 min,  0.003 sec
 * total energy  :   -27.1169431 Eh     change       -0.9430709E-03 Eh
   gradient norm :     0.0103616 Eh/α   predicted    -0.7600888E-03 ( -19.40%)
   displ. norm   :     0.0728026 α      lambda       -0.2375585E-03
   maximum displ.:     0.0395956 α      in ANC's #9, #8, #3, ...

........................................................................
.............................. CYCLE    3 ..............................
........................................................................

 iter      E             dE          RMSdq      gap      omega  full diag
   1    -27.4362052 -0.274362E+02  0.374E-02    4.88       0.0  T
   2    -27.4362167 -0.114768E-04  0.224E-02    4.87       1.0  T
   3    -27.4362174 -0.639683E-06  0.128E-02    4.87       1.7  T
   4    -27.4362174 -0.272653E-07  0.354E-03    4.87       6.3  T
   5    -27.4362175 -0.887449E-07  0.720E-04    4.87      31.1  T
   6    -27.4362175 -0.868585E-09  0.325E-04    4.87      68.8  T
     SCC iter.                  ...        0 min,  0.002 sec
     gradient                   ...        0 min,  0.003 sec
 * total energy  :   -27.1170804 Eh     change       -0.1372752E-03 Eh
   gradient norm :     0.0038076 Eh/α   predicted    -0.1195174E-03 ( -12.94%)
   displ. norm   :     0.0346634 α      lambda       -0.2926287E-04
   maximum displ.:     0.0225290 α      in ANC's #3, #6, #9, ...

........................................................................
.............................. CYCLE    4 ..............................
........................................................................

 iter      E             dE          RMSdq      gap      omega  full diag
   1    -27.4358996 -0.274359E+02  0.157E-02    4.87       0.0  T
   2    -27.4359010 -0.147657E-05  0.932E-03    4.87       2.4  T
   3    -27.4359011 -0.283810E-07  0.494E-03    4.87       4.5  T
   4    -27.4359011 -0.199544E-08  0.105E-03    4.87      21.4  T
   5    -27.4359011 -0.127374E-07  0.280E-04    4.87      79.8  T
   6    -27.4359011 -0.141508E-09  0.129E-04    4.87     172.8  T
     SCC iter.                  ...        0 min,  0.002 sec
     gradient                   ...        0 min,  0.003 sec
 * total energy  :   -27.1171001 Eh     change       -0.1972534E-04 Eh
   gradient norm :     0.0011211 Eh/α   predicted    -0.1464967E-04 ( -25.73%)
   displ. norm   :     0.0521185 α      lambda       -0.1234320E-04
   maximum displ.:     0.0340374 α      in ANC's #3, #6, #5, ...

........................................................................
.............................. CYCLE    5 ..............................
........................................................................

 iter      E             dE          RMSdq      gap      omega  full diag
   1    -27.4349193 -0.274349E+02  0.200E-02    4.86       0.0  T
   2    -27.4349198 -0.515250E-06  0.119E-02    4.86       1.9  T
   3    -27.4349198 -0.173181E-07  0.280E-03    4.86       8.0  T
   4    -27.4349199 -0.594226E-08  0.570E-04    4.86      39.3  T
   5    -27.4349199 -0.123408E-08  0.322E-04    4.86      69.5  T
     SCC iter.                  ...        0 min,  0.002 sec
     gradient                   ...        0 min,  0.003 sec
 * total energy  :   -27.1171090 Eh     change       -0.8902169E-05 Eh
   gradient norm :     0.0018130 Eh/α   predicted    -0.6183314E-05 ( -30.54%)
   displ. norm   :     0.0258708 α      lambda       -0.4709537E-05
   maximum displ.:     0.0127595 α      in ANC's #6, #3, #5, ...

........................................................................
.............................. CYCLE    6 ..............................
........................................................................

 iter      E             dE          RMSdq      gap      omega  full diag
   1    -27.4349116 -0.274349E+02  0.114E-02    4.86       0.0  T
   2    -27.4349117 -0.149360E-06  0.672E-03    4.86       3.3  T
   3    -27.4349117  0.291476E-08  0.182E-03    4.86      12.3  T
   4    -27.4349117 -0.123406E-07  0.400E-04    4.86      55.9  T
   5    -27.4349117 -0.148155E-08  0.184E-04    4.86     121.3  T
     SCC iter.                  ...        0 min,  0.002 sec
     gradient                   ...        0 min,  0.003 sec
 * total energy  :   -27.1171145 Eh     change       -0.5504071E-05 Eh
   gradient norm :     0.0012240 Eh/α   predicted    -0.2359464E-05 ( -57.13%)
   displ. norm   :     0.0804131 α      lambda       -0.1022584E-04
   maximum displ.:     0.0383430 α      in ANC's #6, #1, #2, ...

........................................................................
.............................. CYCLE    7 ..............................
........................................................................

 iter      E             dE          RMSdq      gap      omega  full diag
   1    -27.4352370 -0.274352E+02  0.319E-02    4.86       0.0  T
   2    -27.4352380 -0.998974E-06  0.187E-02    4.86       1.2  T
   3    -27.4352380 -0.179588E-08  0.443E-03    4.86       5.1  T
   4    -27.4352380 -0.769023E-07  0.112E-03    4.86      20.0  T
   5    -27.4352381 -0.960143E-08  0.568E-04    4.86      39.3  T
   6    -27.4352381 -0.378876E-09  0.122E-04    4.86     183.6  T
     SCC iter.                  ...        0 min,  0.002 sec
     gradient                   ...        0 min,  0.003 sec
 * total energy  :   -27.1171220 Eh     change       -0.7502733E-05 Eh
   gradient norm :     0.0010054 Eh/α   predicted    -0.5127988E-05 ( -31.65%)
   displ. norm   :     0.0343895 α      lambda       -0.3383915E-05
   maximum displ.:     0.0171911 α      in ANC's #1, #2, #10, ...

........................................................................
.............................. CYCLE    8 ..............................
........................................................................

 iter      E             dE          RMSdq      gap      omega  full diag
   1    -27.4353628 -0.274354E+02  0.165E-02    4.86       0.0  T
   2    -27.4353629 -0.701632E-07  0.978E-03    4.86       2.3  T
   3    -27.4353629 -0.118322E-07  0.937E-04    4.86      23.9  T
   4    -27.4353629 -0.485790E-08  0.463E-04    4.86      48.3  T
     SCC iter.                  ...        0 min,  0.001 sec
     gradient                   ...        0 min,  0.003 sec
 * total energy  :   -27.1171257 Eh     change       -0.3633689E-05 Eh
   gradient norm :     0.0005227 Eh/α   predicted    -0.1696312E-05 ( -53.32%)
   displ. norm   :     0.0565307 α      lambda       -0.4110833E-05
   maximum displ.:     0.0350839 α      in ANC's #1, #2, #10, ...

........................................................................
.............................. CYCLE    9 ..............................
........................................................................

 iter      E             dE          RMSdq      gap      omega  full diag
   1    -27.4353521 -0.274354E+02  0.257E-02    4.86       0.0  T
   2    -27.4353523 -0.116621E-06  0.151E-02    4.86       1.5  T
   3    -27.4353523 -0.426915E-07  0.119E-03    4.86      18.8  T
   4    -27.4353523 -0.410327E-08  0.709E-04    4.86      31.5  T
   5    -27.4353523 -0.417710E-09  0.280E-04    4.86      79.8  T
     SCC iter.                  ...        0 min,  0.002 sec
     gradient                   ...        0 min,  0.003 sec
 * total energy  :   -27.1171305 Eh     change       -0.4797384E-05 Eh
   gradient norm :     0.0006278 Eh/α   predicted    -0.2060560E-05 ( -57.05%)
   displ. norm   :     0.0656272 α      lambda       -0.4092176E-05
   maximum displ.:     0.0401464 α      in ANC's #1, #2, #10, ...

........................................................................
.............................. CYCLE   10 ..............................
........................................................................

 iter      E             dE          RMSdq      gap      omega  full diag
   1    -27.4353123 -0.274353E+02  0.300E-02    4.86       0.0  T
   2    -27.4353124 -0.145385E-06  0.176E-02    4.86       1.3  T
   3    -27.4353125 -0.622954E-07  0.131E-03    4.86      17.1  T
   4    -27.4353125 -0.283146E-08  0.794E-04    4.86      28.2  T
   5    -27.4353125 -0.588518E-09  0.148E-04    4.86     151.0  T
     SCC iter.                  ...        0 min,  0.002 sec
     gradient                   ...        0 min,  0.003 sec
 * total energy  :   -27.1171353 Eh     change       -0.4808288E-05 Eh
   gradient norm :     0.0008498 Eh/α   predicted    -0.2053124E-05 ( -57.30%)
   displ. norm   :     0.0805107 α      lambda       -0.4232661E-05
   maximum displ.:     0.0474171 α      in ANC's #1, #2, #10, ...

........................................................................
.............................. CYCLE   11 ..............................
........................................................................

 iter      E             dE          RMSdq      gap      omega  full diag
   1    -27.4351888 -0.274352E+02  0.374E-02    4.86       0.0  T
   2    -27.4351890 -0.214436E-06  0.220E-02    4.86       1.0  T
   3    -27.4351891 -0.944939E-07  0.171E-03    4.86      13.1  T
   4    -27.4351891 -0.823892E-08  0.103E-03    4.86      21.7  T
   5    -27.4351891 -0.883041E-09  0.361E-04    4.86      62.0  T
   6    -27.4351891 -0.823512E-09  0.868E-05    4.86     257.6  T
     SCC iter.                  ...        0 min,  0.002 sec
     gradient                   ...        0 min,  0.003 sec
 * total energy  :   -27.1171400 Eh     change       -0.4694168E-05 Eh
   gradient norm :     0.0011504 Eh/α   predicted    -0.2123519E-05 ( -54.76%)
   displ. norm   :     0.0784473 α      lambda       -0.4089558E-05
   maximum displ.:     0.0469963 α      in ANC's #2, #1, #10, ...

........................................................................
.............................. CYCLE   12 ..............................
........................................................................

 iter      E             dE          RMSdq      gap      omega  full diag
   1    -27.4352084 -0.274352E+02  0.356E-02    4.86       0.0  T
   2    -27.4352086 -0.203210E-06  0.209E-02    4.86       1.1  T
   3    -27.4352086 -0.889072E-07  0.158E-03    4.86      14.1  T
   4    -27.4352087 -0.465641E-08  0.957E-04    4.86      23.4  T
   5    -27.4352087 -0.797030E-09  0.201E-04    4.86     111.5  T
     SCC iter.                  ...        0 min,  0.002 sec
     gradient                   ...        0 min,  0.003 sec
 * total energy  :   -27.1171444 Eh     change       -0.4396463E-05 Eh
   gradient norm :     0.0007456 Eh/α   predicted    -0.2050840E-05 ( -53.35%)
   displ. norm   :     0.0767493 α      lambda       -0.3319765E-05
   maximum displ.:     0.0497663 α      in ANC's #2, #1, #10, ...

........................................................................
.............................. CYCLE   13 ..............................
........................................................................

 iter      E             dE          RMSdq      gap      omega  full diag
   1    -27.4350572 -0.274351E+02  0.371E-02    4.86       0.0  T
   2    -27.4350574 -0.228014E-06  0.219E-02    4.86       1.0  T
   3    -27.4350575 -0.885464E-07  0.181E-03    4.86      12.3  T
   4    -27.4350575 -0.126664E-07  0.106E-03    4.86      21.1  T
   5    -27.4350575 -0.942027E-09  0.415E-04    4.86      53.8  T
   6    -27.4350575 -0.908656E-09  0.860E-05    4.86     260.0  T
     SCC iter.                  ...        0 min,  0.002 sec
     gradient                   ...        0 min,  0.003 sec
 * total energy  :   -27.1171478 Eh     change       -0.3456671E-05 Eh
   gradient norm :     0.0010585 Eh/α   predicted    -0.1668505E-05 ( -51.73%)
   displ. norm   :     0.0573821 α      lambda       -0.3738204E-05
   maximum displ.:     0.0370379 α      in ANC's #2, #6, #10, ...

........................................................................
.............................. CYCLE   14 ..............................
........................................................................

 iter      E             dE          RMSdq      gap      omega  full diag
   1    -27.4354761 -0.274355E+02  0.239E-02    4.87       0.0  T
   2    -27.4354763 -0.201767E-06  0.142E-02    4.87       1.6  T
   3    -27.4354763  0.241406E-07  0.261E-03    4.87       8.6  T
   4    -27.4354763 -0.784490E-07  0.728E-04    4.87      30.7  T
   5    -27.4354763 -0.616339E-09  0.395E-04    4.87      56.6  T
     SCC iter.                  ...        0 min,  0.002 sec
     gradient                   ...        0 min,  0.003 sec
 * total energy  :   -27.1171497 Eh     change       -0.1910689E-05 Eh
   gradient norm :     0.0011776 Eh/α   predicted    -0.1872379E-05 (  -2.01%)
   displ. norm   :     0.0457544 α      lambda       -0.2112746E-05
   maximum displ.:     0.0332278 α      in ANC's #2, #10, #11, ...

........................................................................
.............................. CYCLE   15 ..............................
........................................................................

 iter      E             dE          RMSdq      gap      omega  full diag
   1    -27.4351660 -0.274352E+02  0.243E-02    4.86       0.0  T
   2    -27.4351662 -0.147016E-06  0.144E-02    4.86       1.6  T
   3    -27.4351662  0.132294E-07  0.237E-03    4.86       9.4  T
   4    -27.4351662 -0.673525E-07  0.761E-04    4.86      29.4  T
   5    -27.4351662 -0.478853E-09  0.321E-04    4.86      69.6  T
     SCC iter.                  ...        0 min,  0.002 sec
     gradient                   ...        0 min,  0.003 sec
 * total energy  :   -27.1171511 Eh     change       -0.1411718E-05 Eh
   gradient norm :     0.0006250 Eh/α   predicted    -0.1057697E-05 ( -25.08%)
   displ. norm   :     0.0130065 α      lambda       -0.7518959E-06
   maximum displ.:     0.0088682 α      in ANC's #1, #5, #10, ...

........................................................................
.............................. CYCLE   16 ..............................
........................................................................

 iter      E             dE          RMSdq      gap      omega  full diag
   1    -27.4352872 -0.274353E+02  0.502E-03    4.86       0.0  T
   2    -27.4352873 -0.632977E-08  0.295E-03    4.86       7.6  T
   3    -27.4352872  0.910045E-09  0.479E-04    4.86      46.7  T
   4    -27.4352873 -0.289030E-08  0.135E-04    4.86     166.2  T
     SCC iter.                  ...        0 min,  0.002 sec
     gradient                   ...        0 min,  0.003 sec
 * total energy  :   -27.1171520 Eh     change       -0.8262040E-06 Eh
   gradient norm :     0.0002448 Eh/α   predicted    -0.3772328E-06 ( -54.34%)
   displ. norm   :     0.0236070 α      lambda       -0.8415982E-06
   maximum displ.:     0.0193298 α      in ANC's #2, #1, #4, ...

........................................................................
.............................. CYCLE   17 ..............................
........................................................................

 iter      E             dE          RMSdq      gap      omega  full diag
   1    -27.4353523 -0.274354E+02  0.886E-03    4.86       0.0  T
   2    -27.4353523 -0.851985E-08  0.529E-03    4.86       4.2  T
   3    -27.4353523 -0.202439E-08  0.463E-04    4.86      48.3  T
   4    -27.4353523 -0.196014E-08  0.219E-04    4.86     102.1  T
     SCC iter.                  ...        0 min,  0.001 sec
     gradient                   ...        0 min,  0.003 sec
 * total energy  :   -27.1171528 Eh     change       -0.8693224E-06 Eh
   gradient norm :     0.0001590 Eh/α   predicted    -0.4217061E-06 ( -51.49%)
   displ. norm   :     0.0217058 α      lambda       -0.4386621E-06
   maximum displ.:     0.0184737 α      in ANC's #2, #4, #5, ...

........................................................................
.............................. CYCLE   18 ..............................
........................................................................

 iter      E             dE          RMSdq      gap      omega  full diag
   1    -27.4354008 -0.274354E+02  0.729E-03    4.86       0.0  T
   2    -27.4354008 -0.477587E-08  0.436E-03    4.86       5.1  T
   3    -27.4354008 -0.221586E-08  0.302E-04    4.86      74.1  T
   4    -27.4354008 -0.418268E-09  0.176E-04    4.86     126.9  T
     SCC iter.                  ...        0 min,  0.001 sec
     gradient                   ...        0 min,  0.003 sec
 * total energy  :   -27.1171533 Eh     change       -0.4776445E-06 Eh
   gradient norm :     0.0002407 Eh/α   predicted    -0.2219457E-06 ( -53.53%)
   displ. norm   :     0.0126011 α      lambda       -0.2121615E-06
   maximum displ.:     0.0110999 α      in ANC's #2, #6, #4, ...

........................................................................
.............................. CYCLE   19 ..............................
........................................................................

 iter      E             dE          RMSdq      gap      omega  full diag
   1    -27.4353784 -0.274354E+02  0.371E-03    4.86       0.0  T
   2    -27.4353784 -0.169787E-08  0.222E-03    4.86      10.1  T
   3    -27.4353784 -0.648896E-09  0.145E-04    4.86     154.1  T
   4    -27.4353784 -0.442846E-10  0.842E-05    4.86     265.4  T
     SCC iter.                  ...        0 min,  0.001 sec
     gradient                   ...        0 min,  0.003 sec
 * total energy  :   -27.1171536 Eh     change       -0.2868686E-06 Eh
   gradient norm :     0.0001927 Eh/α   predicted    -0.1090230E-06 ( -62.00%)
   displ. norm   :     0.0098713 α      lambda       -0.2203055E-06
   maximum displ.:     0.0076727 α      in ANC's #2, #6, #11, ...

........................................................................
.............................. CYCLE   20 ..............................
........................................................................

 iter      E             dE          RMSdq      gap      omega  full diag
   1    -27.4353609 -0.274354E+02  0.230E-03    4.86       0.0  T
   2    -27.4353609 -0.138951E-08  0.137E-03    4.86      16.3  T
   3    -27.4353609  0.287237E-10  0.140E-04    4.86     159.6  T
   4    -27.4353609 -0.165180E-09  0.405E-05    4.86     552.2  T
     SCC iter.                  ...        0 min,  0.001 sec
     gradient                   ...        0 min,  0.003 sec
 * total energy  :   -27.1171539 Eh     change       -0.2840843E-06 Eh
   gradient norm :     0.0001075 Eh/α   predicted    -0.1138695E-06 ( -59.92%)
   displ. norm   :     0.0158865 α      lambda       -0.3012087E-06
   maximum displ.:     0.0126492 α      in ANC's #2, #11, #6, ...
 * RMSD in coord.:     0.1477519 α      energy gain  -0.1153834E-02 Eh

generating ANC from exact Hessian ...
Using Lindh-Hessian (1995)
 Shifting diagonal of input Hessian by    8.1509600840083043E-003
 Lowest  eigenvalues of input Hessian
    0.000000    0.000000    0.000000    0.000000    0.000000    0.000000
    0.010000    0.012592    0.012875    0.017166    0.017551    0.017717
    0.018913    0.019586    0.021190    0.026368    0.032397    0.037030
 Highest eigenvalues
    1.187556    1.245095    1.256196    1.326520    1.779018    2.346469


........................................................................
.............................. CYCLE   21 ..............................
........................................................................

 iter      E             dE          RMSdq      gap      omega  full diag
   1    -27.4353242 -0.274353E+02  0.380E-03    4.86       0.0  T
   2    -27.4353242 -0.130163E-08  0.228E-03    4.86       9.8  T
   3    -27.4353242 -0.223739E-09  0.146E-04    4.86     152.9  T
   4    -27.4353242 -0.178673E-09  0.696E-05    4.86     321.2  T
     SCC iter.                  ...        0 min,  0.001 sec
     gradient                   ...        0 min,  0.003 sec
 * total energy  :   -27.1171543 Eh     change       -0.3942115E-06 Eh
   gradient norm :     0.0001629 Eh/α   predicted     0.0000000E+00 (-100.00%)
   displ. norm   :     0.0036545 α      lambda       -0.2115429E-07
   maximum displ.:     0.0023959 α      in ANC's #2, #3, #1, ...

........................................................................
.............................. CYCLE   22 ..............................
........................................................................

 iter      E             dE          RMSdq      gap      omega  full diag
   1    -27.4353495 -0.274353E+02  0.100E-03    4.86       0.0  T
   2    -27.4353495 -0.129372E-09  0.595E-04    4.86      37.6  T
   3    -27.4353495 -0.211386E-10  0.374E-05    4.86     597.8  T
     SCC iter.                  ...        0 min,  0.001 sec
     gradient                   ...        0 min,  0.003 sec
 * total energy  :   -27.1171544 Eh     change       -0.1452212E-06 Eh
   gradient norm :     0.0000921 Eh/α   predicted    -0.6259157E-07 ( -56.90%)
   displ. norm   :     0.0124988 α      lambda       -0.2269285E-06
   maximum displ.:     0.0089233 α      in ANC's #2, #3, #1, ...

........................................................................
.............................. CYCLE   23 ..............................
........................................................................

 iter      E             dE          RMSdq      gap      omega  full diag
   1    -27.4353824 -0.274354E+02  0.289E-03    4.86       0.0  T
   2    -27.4353824 -0.147867E-08  0.173E-03    4.86      13.0  T
   3    -27.4353824 -0.215483E-09  0.118E-04    4.86     189.3  T
   4    -27.4353824 -0.362732E-10  0.499E-05    4.86     448.3  T
     SCC iter.                  ...        0 min,  0.001 sec
     gradient                   ...        0 min,  0.003 sec
 * total energy  :   -27.1171547 Eh     change       -0.2998859E-06 Eh
   gradient norm :     0.0001398 Eh/α   predicted    -0.1457804E-06 ( -51.39%)
   displ. norm   :     0.0105452 α      lambda       -0.1686103E-06
   maximum displ.:     0.0082320 α      in ANC's #2, #11, #1, ...

........................................................................
.............................. CYCLE   24 ..............................
........................................................................

 iter      E             dE          RMSdq      gap      omega  full diag
   1    -27.4353776 -0.274354E+02  0.251E-03    4.86       0.0  T
   2    -27.4353776 -0.153920E-08  0.150E-03    4.86      14.9  T
   3    -27.4353776 -0.888996E-10  0.140E-04    4.86     159.2  T
   4    -27.4353776 -0.114611E-09  0.514E-05    4.86     435.0  T
     SCC iter.                  ...        0 min,  0.001 sec
     gradient                   ...        0 min,  0.003 sec
 * total energy  :   -27.1171549 Eh     change       -0.2276796E-06 Eh
   gradient norm :     0.0001677 Eh/α   predicted    -0.8866376E-07 ( -61.06%)
   displ. norm   :     0.0142423 α      lambda       -0.2553345E-06
   maximum displ.:     0.0112014 α      in ANC's #2, #11, #1, ...

........................................................................
.............................. CYCLE   25 ..............................
........................................................................

 iter      E             dE          RMSdq      gap      omega  full diag
   1    -27.4353664 -0.274354E+02  0.352E-03    4.86       0.0  T
   2    -27.4353664 -0.156526E-08  0.211E-03    4.86      10.6  T
   3    -27.4353664 -0.210658E-09  0.167E-04    4.86     133.8  T
   4    -27.4353664 -0.248104E-09  0.740E-05    4.86     302.0  T
     SCC iter.                  ...        0 min,  0.001 sec
     gradient                   ...        0 min,  0.003 sec
 * total energy  :   -27.1171553 Eh     change       -0.3432233E-06 Eh
   gradient norm :     0.0001541 Eh/α   predicted    -0.1284633E-06 ( -62.57%)
   displ. norm   :     0.0204502 α      lambda       -0.3592333E-06
   maximum displ.:     0.0163677 α      in ANC's #2, #11, #10, ...

........................................................................
.............................. CYCLE   26 ..............................
........................................................................

 iter      E             dE          RMSdq      gap      omega  full diag
   1    -27.4353431 -0.274353E+02  0.505E-03    4.86       0.0  T
   2    -27.4353431 -0.219711E-08  0.302E-03    4.86       7.4  T
   3    -27.4353431 -0.888488E-09  0.180E-04    4.86     124.0  T
   4    -27.4353431 -0.108514E-09  0.102E-04    4.86     218.2  T
     SCC iter.                  ...        0 min,  0.001 sec
     gradient                   ...        0 min,  0.003 sec
 * total energy  :   -27.1171557 Eh     change       -0.4427792E-06 Eh
   gradient norm :     0.0001258 Eh/α   predicted    -0.1806558E-06 ( -59.20%)
   displ. norm   :     0.0212079 α      lambda       -0.3054061E-06
   maximum displ.:     0.0172942 α      in ANC's #2, #11, #10, ...

........................................................................
.............................. CYCLE   27 ..............................
........................................................................

 iter      E             dE          RMSdq      gap      omega  full diag
   1    -27.4353254 -0.274353E+02  0.536E-03    4.86       0.0  T
   2    -27.4353254 -0.358453E-08  0.321E-03    4.86       7.0  T
   3    -27.4353254 -0.100480E-08  0.187E-04    4.86     119.5  T
   4    -27.4353254 -0.580833E-10  0.999E-05    4.86     223.8  T
     SCC iter.                  ...        0 min,  0.001 sec
     gradient                   ...        0 min,  0.003 sec
 * total energy  :   -27.1171561 Eh     change       -0.3489409E-06 Eh
   gradient norm :     0.0001285 Eh/α   predicted    -0.1531334E-06 ( -56.11%)
   displ. norm   :     0.0132780 α      lambda       -0.1651461E-06
   maximum displ.:     0.0112839 α      in ANC's #2, #11, #10, ...

........................................................................
.............................. CYCLE   28 ..............................
........................................................................

 iter      E             dE          RMSdq      gap      omega  full diag
   1    -27.4353365 -0.274353E+02  0.321E-03    4.86       0.0  T
   2    -27.4353365 -0.164366E-08  0.192E-03    4.86      11.7  T
   3    -27.4353365 -0.323336E-09  0.144E-04    4.86     155.3  T
   4    -27.4353365 -0.106965E-09  0.712E-05    4.86     314.1  T
     SCC iter.                  ...        0 min,  0.001 sec
     gradient                   ...        0 min,  0.003 sec
 * total energy  :   -27.1171563 Eh     change       -0.2160960E-06 Eh
   gradient norm :     0.0000969 Eh/α   predicted    -0.8608749E-07 ( -60.16%)
   displ. norm   :     0.0106168 α      lambda       -0.1380419E-06
   maximum displ.:     0.0092246 α      in ANC's #2, #11, #10, ...

........................................................................
.............................. CYCLE   29 ..............................
........................................................................

 iter      E             dE          RMSdq      gap      omega  full diag
   1    -27.4353498 -0.274353E+02  0.251E-03    4.86       0.0  T
   2    -27.4353498 -0.813106E-09  0.150E-03    4.86      14.9  T
   3    -27.4353498 -0.140634E-09  0.112E-04    4.86     199.1  T
   4    -27.4353498 -0.933369E-10  0.535E-05    4.86     417.8  T
     SCC iter.                  ...        0 min,  0.001 sec
     gradient                   ...        0 min,  0.003 sec
 * total energy  :   -27.1171565 Eh     change       -0.1919096E-06 Eh
   gradient norm :     0.0000721 Eh/α   predicted    -0.6979745E-07 ( -63.63%)
   displ. norm   :     0.0103817 α      lambda       -0.1396912E-06
   maximum displ.:     0.0088200 α      in ANC's #2, #11, #6, ...

........................................................................
.............................. CYCLE   30 ..............................
........................................................................

 iter      E             dE          RMSdq      gap      omega  full diag
   1    -27.4353561 -0.274354E+02  0.238E-03    4.86       0.0  T
   2    -27.4353561 -0.356195E-09  0.143E-03    4.86      15.7  T
   3    -27.4353561 -0.146137E-09  0.712E-05    4.86     314.1  T
   4    -27.4353561 -0.131664E-10  0.398E-05    4.86     562.4  T
     SCC iter.                  ...        0 min,  0.001 sec
     gradient                   ...        0 min,  0.003 sec
 * total energy  :   -27.1171567 Eh     change       -0.1949711E-06 Eh
   gradient norm :     0.0000506 Eh/α   predicted    -0.7196703E-07 ( -63.09%)
   displ. norm   :     0.0119400 α      lambda       -0.1425817E-06
   maximum displ.:     0.0099205 α      in ANC's #2, #6, #11, ...

........................................................................
.............................. CYCLE   31 ..............................
........................................................................

 iter      E             dE          RMSdq      gap      omega  full diag
   1    -27.4353610 -0.274354E+02  0.268E-03    4.86       0.0  T
   2    -27.4353610 -0.454442E-09  0.161E-03    4.86      13.9  T
   3    -27.4353610 -0.159297E-09  0.702E-05    4.86     318.6  T
   4    -27.4353610 -0.624922E-11  0.357E-05    4.86     625.5  T
     SCC iter.                  ...        0 min,  0.001 sec
     gradient                   ...        0 min,  0.003 sec
 * total energy  :   -27.1171569 Eh     change       -0.1863504E-06 Eh
   gradient norm :     0.0000405 Eh/α   predicted    -0.7300787E-07 ( -60.82%)
   displ. norm   :     0.0103323 α      lambda       -0.9664193E-07
   maximum displ.:     0.0087304 α      in ANC's #2, #6, #11, ...

........................................................................
.............................. CYCLE   32 ..............................
........................................................................

 iter      E             dE          RMSdq      gap      omega  full diag
   1    -27.4353580 -0.274354E+02  0.230E-03    4.86       0.0  T
   2    -27.4353580 -0.347903E-09  0.138E-03    4.86      16.2  T
   3    -27.4353580 -0.628972E-10  0.750E-05    4.86     298.2  T
   4    -27.4353580 -0.466329E-10  0.349E-05    4.86     640.9  T
     SCC iter.                  ...        0 min,  0.001 sec
     gradient                   ...        0 min,  0.003 sec
 * total energy  :   -27.1171570 Eh     change       -0.1205599E-06 Eh
   gradient norm :     0.0000403 Eh/α   predicted    -0.4925556E-07 ( -59.14%)
   displ. norm   :     0.0103323 α      lambda        0.0000000E+00
   maximum displ.:     0.0087304 α      in ANC's #2, #6, #11, ...

........................................................................
.............................. CYCLE   33 ..............................
........................................................................

 iter      E             dE          RMSdq      gap      omega  full diag
   1    -27.4353517 -0.274354E+02  0.230E-03    4.86       0.0  T
   2    -27.4353517 -0.348155E-09  0.138E-03    4.86      16.2  T
   3    -27.4353517 -0.646843E-10  0.738E-05    4.86     303.2  T
   4    -27.4353517 -0.438867E-10  0.346E-05    4.86     645.4  T
     SCC iter.                  ...        0 min,  0.001 sec
     gradient                   ...        0 min,  0.003 sec
 * total energy  :   -27.1171571 Eh     change       -0.6569724E-07 Eh
   gradient norm :     0.0000840 Eh/α   predicted    -0.2315078E-08 ( -96.48%)
   displ. norm   :     0.0085819 α      lambda        0.5595825E-07
   maximum displ.:     0.0071771 α      in ANC's #2, #6, #11, ...

   *** GEOMETRY OPTIMIZATION CONVERGED AFTER 33 ITERATIONS ***

------------------------------------------------------------------------
 total energy gain   :        -0.0011570 Eh       -0.7260 kcal/mol
 total RMSD          :         0.1629332 a0        0.0862 Å
 total power (kW/mol):        -0.0920525 (step)  -14.7432 (real)
------------------------------------------------------------------------

 ANCopt (total)                0 d,  0 h,  0 min,  0.206 sec
 optimizer setup                ...        0 min,  0.000 sec (  0.021%)
 model hessian                  ...        0 min,  0.009 sec (  4.512%)
 ANC generation                 ...        0 min,  0.001 sec (  0.251%)
 coordinate transformation      ...        0 min,  0.000 sec (  0.050%)
 single point calculation       ...        0 min,  0.192 sec ( 93.299%)
 optimization log               ...        0 min,  0.001 sec (  0.588%)
 hessian update                 ...        0 min,  0.000 sec (  0.077%)
 rational function              ...        0 min,  0.001 sec (  0.419%)

================
 final structure:
================
$coord
       -2.34516189035607       -1.76986136187739        2.40535888664794      C
       -1.90964595640889       -0.21783511430906        0.00019597433894      C
       -3.66537208241669        2.07326527978364       -0.04952007525445      C
       -2.34096122488580       -1.86827001043811       -2.34015346146836      C
        0.82404530699896        0.69186180648165       -0.02429908325823      C
        1.49150781124295        2.86229427424490       -0.11024383873919      O
        2.45201919957575       -1.24734568503253        0.05801045237333      O
        5.05475226281608       -0.59894166334135        0.03697329282280      C
       -1.08378479860429       -3.38992119903513        2.45378848717704      H
       -2.00644069949879       -0.62009422488514        4.07578011871211      H
       -4.28740208722991       -2.44054166835482        2.45868008054127      H
       -3.33312543355464        3.26508185076542        1.59003120513877      H
       -5.62663477822750        1.46196872042585       -0.04351699460113      H
       -3.32264319778664        3.20054038361279       -1.73189388058253      H
       -2.00354141187271       -0.78699925843812       -4.05600806137184      H
       -1.07616393455102       -3.48649210370253       -2.32108853135308      H
       -4.28174128630862       -2.54474051446393       -2.36693125235474      H
        5.50434001461179        0.61435490178757        1.64435296817093      H
        5.52906514151029        0.40598956525052       -1.70180706119505      H
        6.09133836812569       -2.36853588639091        0.15403749126104      H
$end

 Bond Distances (Angstroems)
 ---------------------------
C1-C2=1.5322         C1-H9=1.0868         C1-H10=1.0880        C1-H11=1.0877        C2-C1=1.5322         C2-C3=1.5277         
C2-C4=1.5325         C2-C5=1.5247         C3-C2=1.5277         C3-H12=1.0869        C3-H13=1.0871        C3-H14=1.0869        
C4-C2=1.5325         C4-H15=1.0880        C4-H16=1.0869        C4-H17=1.0877        C5-C2=1.5247         C5-O6=1.2025         
C5-O7=1.3406         O6-C5=1.2025         O7-C5=1.3406         O7-C8=1.4194         C8-O7=1.4194         C8-H18=1.0919        
C8-H19=1.0920        C8-H20=1.0870        H9-C1=1.0868         H10-C1=1.0880        H11-C1=1.0877        H12-C3=1.0869        
H13-C3=1.0871        H14-C3=1.0869        H15-C4=1.0880        H16-C4=1.0869        H17-C4=1.0877        H18-C8=1.0919        
H19-C8=1.0920        H20-C8=1.0870        
 C  H  Rav=1.0881 sigma=0.0018  Rmin=1.0868  Rmax=1.0920    12
 C  C  Rav=1.5293 sigma=0.0033  Rmin=1.5247  Rmax=1.5325     4
 O  C  Rav=1.3208 sigma=0.0897  Rmin=1.2025  Rmax=1.4194     3

 selected bond angles (degree)
 --------------------
H9-C1-C2=110.49                H10-C1-C2=110.51               H10-C1-H9=108.71               H11-C1-C2=109.79               
H11-C1-H9=108.80               H11-C1-H10=108.49              C3-C2-C1=110.38                C4-C2-C1=110.08                
C4-C2-C3=110.35                C5-C2-C1=108.60                C5-C2-C3=109.05                C5-C2-C4=108.32                
H12-C3-C2=110.39               H13-C3-C2=110.15               H13-C3-H12=108.95              H14-C3-C2=110.38               
H14-C3-H12=107.96              H14-C3-H13=108.97              H15-C4-C2=110.50               H16-C4-C2=110.47               
H16-C4-H15=108.73              H17-C4-C2=109.80               H17-C4-H15=108.49              H17-C4-H16=108.80              
O6-C5-C2=125.49                O7-C5-C2=111.58                O7-C5-O6=122.93                C8-O7-C5=115.99                
H18-C8-O7=110.33               H19-C8-O7=110.33               H19-C8-H18=108.66              H20-C8-O7=106.32               
H20-C8-H18=110.62              H20-C8-H19=110.58              

 selected dihedral angles (degree)
 ---------------------------------
C3-C2-C1-H9=180.60            C3-C2-C1-H10=300.96           C3-C2-C1-H11= 60.59           C4-C2-C1-H9= 58.53            
C4-C2-C1-H10=178.89           C4-C2-C1-H11=298.52           C5-C2-C1-H9=300.09            C5-C2-C1-H10= 60.45           
C5-C2-C1-H11=180.08           H12-C3-C2-C1= 59.27           H12-C3-C2-C4=181.17           H12-C3-C2-C5=300.04           
H13-C3-C2-C1=298.91           H13-C3-C2-C4= 60.82           H13-C3-C2-C5=179.68           H14-C3-C2-C1=178.54           
H14-C3-C2-C4=300.45           H14-C3-C2-C5= 59.31           H15-C4-C2-C1=180.97           H15-C4-C2-C3= 58.89           
H15-C4-C2-C5=299.58           H16-C4-C2-C1=301.33           H16-C4-C2-C3=179.25           H16-C4-C2-C5= 59.95           
H17-C4-C2-C1= 61.33           H17-C4-C2-C3=299.25           H17-C4-C2-C5=179.95           O6-C5-C2-C1=238.57            
O6-C5-C2-C3=358.90            O6-C5-C2-C4=119.02            O7-C5-C2-C1= 58.69            O7-C5-C2-C3=179.02            
O7-C5-C2-C4=299.14            C8-O7-C5-C2=179.85            C8-O7-C5-O6=359.97            H18-C8-O7-C5= 58.77           
H19-C8-O7-C5=298.69           H20-C8-O7-C5=178.75           
           -------------------------------------------------
          |                Final Singlepoint                |
           -------------------------------------------------

          ...................................................
          :                      SETUP                      :
          :.................................................:
          :  # basis functions                  44          :
          :  # atomic orbitals                  44          :
          :  # shells                           28          :
          :  # electrons                        48          :
          :  max. iterations                   250          :
          :  Hamiltonian                  GFN2-xTB          :
          :  restarted?                      false          :
          :  GBSA solvation                  false          :
          :  PC potential                    false          :
          :  electronic temp.          300.0000000     K    :
          :  accuracy                    1.0000000          :
          :  -> integral cutoff          0.2500000E+02      :
          :  -> integral neglect         0.1000000E-07      :
          :  -> SCF convergence          0.1000000E-05 Eh   :
          :  -> wf. convergence          0.1000000E-03 e    :
          :  Broyden damping             0.4000000          :
          :  net charge                          0          :
          :  unpaired electrons                  0          :
          ...................................................

 iter      E             dE          RMSdq      gap      omega  full diag
   1    -27.4353517 -0.274354E+02  0.140E-05    4.86       0.0  T
   2    -27.4353517 -0.405009E-12  0.809E-06    4.86    2765.2  T
   3    -27.4353517 -0.142109E-13  0.427E-06    4.86    5239.5  T

   *** convergence criteria satisfied after 3 iterations ***

         #    Occupation            Energy/Eh            Energy/eV
      -------------------------------------------------------------
         1        2.0000           -0.7408441             -20.1594
       ...           ...                  ...                  ...
        18        2.0000           -0.4679110             -12.7325
        19        2.0000           -0.4593781             -12.5003
        20        2.0000           -0.4566423             -12.4259
        21        2.0000           -0.4454557             -12.1215
        22        2.0000           -0.4402046             -11.9786
        23        2.0000           -0.4389145             -11.9435
        24        2.0000           -0.4049628             -11.0196 (HOMO)
        25                         -0.2263544              -6.1594 (LUMO)
        26                          0.0112442               0.3060
        27                          0.0852388               2.3195
        28                          0.0932600               2.5377
        29                          0.1060130               2.8848
       ...                                ...                  ...
        44                          0.6542647              17.8034
      -------------------------------------------------------------
                  HL-Gap            0.1786084 Eh            4.8602 eV
             Fermi-level           -0.3156586 Eh           -8.5895 eV

 SCC (total)                   0 d,  0 h,  0 min,  0.005 sec
 SCC setup                      ...        0 min,  0.000 sec (  0.966%)
 Dispersion                     ...        0 min,  0.000 sec (  0.721%)
 classical contributions        ...        0 min,  0.000 sec (  0.332%)
 integral evaluation            ...        0 min,  0.001 sec ( 19.750%)
 iterations                     ...        0 min,  0.001 sec ( 21.669%)
 molecular gradient             ...        0 min,  0.003 sec ( 55.781%)
 printout                       ...        0 min,  0.000 sec (  0.646%)

         :::::::::::::::::::::::::::::::::::::::::::::::::::::
         ::                     SUMMARY                     ::
         :::::::::::::::::::::::::::::::::::::::::::::::::::::
         :: total energy             -27.117157053670 Eh    ::
         :: gradient norm              0.000084065971 Eh/a0 ::
         :: HOMO-LUMO gap              4.860181669820 eV    ::
         ::.................................................::
         :: SCC energy               -27.435282276013 Eh    ::
         :: -> isotropic ES            0.045915232274 Eh    ::
         :: -> anisotropic ES          0.003623828511 Eh    ::
         :: -> anisotropic XC          0.007595711710 Eh    ::
         :: -> dispersion             -0.013174302228 Eh    ::
         :: repulsion energy           0.318125222343 Eh    ::
         :: add. restraining           0.000000000000 Eh    ::
         :: total charge               0.000000000000 e     ::
         :::::::::::::::::::::::::::::::::::::::::::::::::::::

           ------------------------------------------------- 
          |                Numerical Hessian                |
           ------------------------------------------------- 
step length          :   0.00500
SCC accuracy         :   0.30000
Hessian scale factor :   1.00000
frozen atoms in %    :   0.00000    0
RMS gradient         :   0.00008
estimated CPU  time      0.01 min
estimated wall time      0.01 min

writing file <hessian>, containing the non-mass-weighted Hessian matrix in atomic units (Eₕ/Bohr²).

 projected vibrational frequencies (cm⁻¹)
eigval :       -0.00    -0.00    -0.00    -0.00     0.00     0.00
eigval :       30.99    61.59   126.89   166.54   180.46   218.03
eigval :      234.70   269.27   295.82   326.72   345.17   375.64
eigval :      482.69   596.99   721.62   804.30   900.27   968.30
eigval :      969.00   969.81  1011.84  1035.41  1043.85  1123.80
eigval :     1139.65  1159.18  1232.70  1251.64  1271.42  1387.68
eigval :     1397.13  1403.11  1423.49  1442.87  1465.73  1478.95
eigval :     1490.98  1491.00  1493.47  1498.11  1509.59  1774.22
eigval :     2975.11  2987.50  3027.91  3032.05  3033.61  3034.14
eigval :     3040.97  3042.09  3045.74  3046.51  3049.90  3053.03
           -------------------------------------------------
          |                Property Printout                |
           -------------------------------------------------

    * Orbital Energies and Occupations

         #    Occupation            Energy/Eh            Energy/eV
      -------------------------------------------------------------
         1        2.0000           -0.7408441             -20.1594
       ...           ...                  ...                  ...
        12        2.0000           -0.5171282             -14.0718
        13        2.0000           -0.5127297             -13.9521
        14        2.0000           -0.5000613             -13.6074
        15        2.0000           -0.4939672             -13.4415
        16        2.0000           -0.4825286             -13.1303
        17        2.0000           -0.4703070             -12.7977
        18        2.0000           -0.4679110             -12.7325
        19        2.0000           -0.4593781             -12.5003
        20        2.0000           -0.4566423             -12.4259
        21        2.0000           -0.4454557             -12.1215
        22        2.0000           -0.4402046             -11.9786
        23        2.0000           -0.4389145             -11.9435
        24        2.0000           -0.4049628             -11.0196 (HOMO)
        25                         -0.2263544              -6.1594 (LUMO)
        26                          0.0112442               0.3060
        27                          0.0852388               2.3195
        28                          0.0932600               2.5377
        29                          0.1060130               2.8848
        30                          0.1121069               3.0506
        31                          0.1331418               3.6230
        32                          0.1515522               4.1239
        33                          0.1800937               4.9006
        34                          0.1925087               5.2384
        35                          0.1961297               5.3370
       ...                                ...                  ...
        44                          0.6542647              17.8034
      -------------------------------------------------------------
                  HL-Gap            0.1786084 Eh            4.8602 eV
             Fermi-level           -0.3156586 Eh           -8.5895 eV

     #   Z          covCN         q      C6AA      α(0)
     1   6          3.761    -0.109    22.636     6.782
     2   6          3.900     0.005    20.442     6.427
     3   6          3.761    -0.110    22.659     6.786
     4   6          3.761    -0.109    22.630     6.781
     5   6          2.735     0.353    21.014     7.505
     6   8          0.856    -0.407    21.827     6.264
     7   8          1.704    -0.262    18.338     5.782
     8   6          3.657     0.034    20.286     6.465
     9   1          0.925     0.049     2.328     2.386
    10   1          0.925     0.041     2.442     2.444
    11   1          0.925     0.048     2.347     2.396
    12   1          0.925     0.049     2.327     2.385
    13   1          0.925     0.043     2.411     2.428
    14   1          0.925     0.050     2.317     2.381
    15   1          0.925     0.041     2.439     2.442
    16   1          0.925     0.049     2.333     2.389
    17   1          0.925     0.048     2.345     2.395
    18   1          0.924     0.062     2.181     2.310
    19   1          0.924     0.061     2.189     2.314
    20   1          0.925     0.066     2.133     2.284

 Mol. C6AA /au·bohr⁶  :       3020.353781
 Mol. C8AA /au·bohr⁸  :      64052.432980
 Mol. α(0) /au        :         81.344043


Wiberg/Mayer (AO) data.
largest (>0.10) Wiberg bond orders for each atom

 ---------------------------------------------------------------------------
     #   Z sym  total        # sym  WBO       # sym  WBO       # sym  WBO
 ---------------------------------------------------------------------------
     1   6      3.994 --    10      0.986     9      0.985     2      0.984
                            11      0.983
     2   6      3.991 --     3      1.000     1      0.984     4      0.983
                             5      0.940
     3   6      3.994 --     2      1.000    13      0.986    12      0.985
                            14      0.985
     4   6      3.994 --    15      0.986    16      0.985    17      0.983
                             2      0.983
     5   6      3.908 --     6      1.765     7      1.125     2      0.940
     6   8      2.043 --     5      1.765     7      0.170
     7   8      2.302 --     5      1.125     8      0.960     6      0.170
     8   6      3.929 --    20      0.982    19      0.977    18      0.977
                             7      0.960
     9   1      0.998 --     1      0.985
    10   1      0.998 --     1      0.986
    11   1      0.998 --     1      0.983
    12   1      0.998 --     3      0.985
    13   1      0.998 --     3      0.986
    14   1      0.997 --     3      0.985
    15   1      0.998 --     4      0.986
    16   1      0.998 --     4      0.985
    17   1      0.998 --     4      0.983
    18   1      0.996 --     8      0.977
    19   1      0.996 --     8      0.977
    20   1      0.995 --     8      0.982
 ---------------------------------------------------------------------------

Topologies differ in total number of bonds
Writing topology from bond orders to xtbtopo.mol

molecular dipole:
                 x           y           z       tot (Debye)
 q only:       -0.057      -0.791       0.029
   full:       -0.011      -0.864       0.031       2.199
molecular quadrupole (traceless):
                xx          xy          yy          xz          yz          zz
 q only:        6.580      -2.181      -5.746       0.128       0.192      -0.834
  q+dip:        6.147      -2.168      -6.825       0.119       0.296       0.677
   full:        6.270      -2.279      -7.318       0.123       0.331       1.047

           -------------------------------------------------
          |                Geometry Summary                 |
           -------------------------------------------------

      molecular mass/u    :      116.1585142
   center of mass at/Å    :        0.0022030      -0.0054659      -0.0015310
  moments of inertia/u·Å² :        0.1590354E+03   0.3325118E+03   0.3777991E+03
rotational constants/cm⁻¹ :        0.1059993E+00   0.5069785E-01   0.4462062E-01

 * 18 selected distances

     #   Z          #   Z                                           value/Å
     1   6          2   6                                         1.5321732
     2   6          3   6                                         1.5276814
     2   6          4   6                                         1.5325328 (max)
     5   6          6   8                                         1.2024870
     5   6          7   8                                         1.3405638
     7   8          8   6                                         1.4194473
     1   6          9   1                                         1.0868136 (min)
     1   6         10   1                                         1.0879714
     1   6         11   1                                         1.0877074
     3   6         12   1                                         1.0869336
     3   6         13   1                                         1.0871046
     3   6         14   1                                         1.0868886
     4   6         15   1                                         1.0879910
     4   6         16   1                                         1.0869046
     4   6         17   1                                         1.0877079
     8   6         18   1                                         1.0919387
     8   6         19   1                                         1.0919809
     8   6         20   1                                         1.0870283

 * 3 distinct bonds (by element types)

   Z      Z             #   av. dist./Å        max./Å        min./Å
   1 H    6 C          12     1.0880809     1.0919809     1.0868136
   6 C    6 C           3     1.5307958     1.5325328     1.5276814
   6 C    8 O           3     1.3208327     1.4194473     1.2024870

           -------------------------------------------------
          |               Frequency Printout                |
           -------------------------------------------------
 projected vibrational frequencies (cm⁻¹)
eigval :       -0.00    -0.00    -0.00    -0.00     0.00     0.00
eigval :       30.99    61.59   126.89   166.54   180.46   218.03
eigval :      234.70   269.27   295.82   326.72   345.17   375.64
eigval :      482.69   596.99   721.62   804.30   900.27   968.30
eigval :      969.00   969.81  1011.84  1035.41  1043.85  1123.80
eigval :     1139.65  1159.18  1232.70  1251.64  1271.42  1387.68
eigval :     1397.13  1403.11  1423.49  1442.87  1465.73  1478.95
eigval :     1490.98  1491.00  1493.47  1498.11  1509.59  1774.22
eigval :     2975.11  2987.50  3027.91  3032.05  3033.61  3034.14
eigval :     3040.97  3042.09  3045.74  3046.51  3049.90  3053.03
 reduced masses (amu)
    1:      3.74    2:      5.89    3:      4.27    4:      4.07    5:      4.16    6:      5.08
    7:      3.72    8:      1.13    9:      2.54   10:      1.02   11:      2.87   12:      1.18
   13:      1.05   14:      2.64   15:      3.29   16:      2.85   17:      3.16   18:      2.44
   19:      3.70   20:      3.46   21:      7.64   22:      4.34   23:      2.37   24:      1.19
   25:      1.54   26:      1.48   27:      3.11   28:      1.38   29:      1.61   30:      1.29
   31:      3.21   32:      2.29   33:      3.17   34:      3.13   35:      3.32   36:      1.15
   37:      1.22   38:      1.24   39:      1.21   40:      1.05   41:      1.06   42:      1.06
   43:      1.06   44:      1.06   45:      1.06   46:      1.06   47:      1.06   48:     12.60
   49:      1.09   50:      1.04   51:      1.09   52:      1.09   53:      1.07   54:      1.06
   55:      1.07   56:      1.08   57:      1.07   58:      1.07   59:      1.06   60:      1.04
 IR intensities (km·mol⁻¹)
    1:      0.23    2:      0.02    3:      0.27    4:      0.42    5:      0.82    6:      0.03
    7:      1.31    8:      0.18    9:      1.95   10:      0.14   11:      1.36   12:      1.13
   13:      0.08   14:      4.48   15:     10.57   16:      0.18   17:      6.77   18:      0.84
   19:      1.15   20:      2.25   21:     28.49   22:      7.49   23:     20.54   24:      0.04
   25:      1.89   26:      3.67   27:     14.42   28:      2.05   29:      3.49   30:      1.95
   31:    217.24   32:    128.53   33:      5.71   34:     14.90   35:      7.88   36:      4.67
   37:      4.22   38:      4.23   39:      4.20   40:      6.56   41:      3.58   42:      0.01
   43:      0.36   44:      0.31   45:      4.42   46:      4.78   47:     10.27   48:    395.49
   49:     15.28   50:     17.93   51:      7.80   52:     29.38   53:     14.91   54:      7.32
Molecule has no symmetry elements
It seems to be the C1 point group
   55:     71.38   56:      9.84   57:     48.48   58:      2.97   59:     23.59   60:     34.80
 Raman intensities (Ä⁴*amu⁻¹)
    1:      0.00    2:      0.00    3:      0.00    4:      0.00    5:      0.00    6:      0.00
    7:      0.00    8:      0.00    9:      0.00   10:      0.00   11:      0.00   12:      0.00
   13:      0.00   14:      0.00   15:      0.00   16:      0.00   17:      0.00   18:      0.00
   19:      0.00   20:      0.00   21:      0.00   22:      0.00   23:      0.00   24:      0.00
   25:      0.00   26:      0.00   27:      0.00   28:      0.00   29:      0.00   30:      0.00
   31:      0.00   32:      0.00   33:      0.00   34:      0.00   35:      0.00   36:      0.00
   37:      0.00   38:      0.00   39:      0.00   40:      0.00   41:      0.00   42:      0.00
   43:      0.00   44:      0.00   45:      0.00   46:      0.00   47:      0.00   48:      0.00
   49:      0.00   50:      0.00   51:      0.00   52:      0.00   53:      0.00   54:      0.00
   55:      0.00   56:      0.00   57:      0.00   58:      0.00   59:      0.00   60:      0.00
 output can be read by thermo (or use thermo option).
 writing <g98.out> molden fake output.
 recommended (thermochemical) frequency scaling factor: 1.0
           -------------------------------------------------
          |             Thermodynamic Functions             |
           -------------------------------------------------

c1  symmetry found (for desy threshold:  0.10E+00) used in thermo

          ...................................................
          :                      SETUP                      :
          :.................................................:
          :  # frequencies                          54      :
          :  # imaginary freq.                       0      :
          :  linear?                             false      :
          :  only rotor calc.                    false      :
          :  symmetry                               c1      :
          :  rotational number                       1      :
          :  scaling factor                  1.0000000      :
          :  rotor cutoff                    0.0000000 cm⁻¹ :
          :  imag. cutoff                 -100.0000000 cm⁻¹ :
          :.................................................:

    mode    ω/cm⁻¹     T·S(HO)/kcal·mol⁻¹    T·S(FR)/kcal·mol⁻¹   T·S(vib)
   ------------------------------------------------------------------------
       1     30.99    -1.71893 (100.00%)    -1.19775 (  0.00%)    -1.71893
       2     61.59    -1.31354 (100.00%)    -0.99452 (  0.00%)    -1.31354
       3    126.89    -0.89225 (100.00%)    -0.78052 (  0.00%)    -0.89225
       4    166.54    -0.73769 (100.00%)    -0.70001 (  0.00%)    -0.73769
       5    180.46    -0.69279 (100.00%)    -0.67623 (  0.00%)    -0.69279
       6    218.03    -0.58897 (100.00%)    -0.62023 (  0.00%)    -0.58897
       7    234.70    -0.54940 (100.00%)    -0.59840 (  0.00%)    -0.54940
       8    269.27    -0.47731 (100.00%)    -0.55771 (  0.00%)    -0.47731
       9    295.82    -0.42947 (100.00%)    -0.52986 (  0.00%)    -0.42947
   ------------------------------------------------------------------------

   temp. (K)  partition function   enthalpy   heat capacity  entropy
                                   cal/mol     cal/K/mol   cal/K/mol   J/K/mol
 298.15  VIB  0.197E+04             4786.438     30.252     31.126
         ROT  0.341E+06              888.727      2.981     28.300
         INT  0.672E+09             5675.165     33.233     59.425
         TR   0.383E+26             1481.212      4.968     40.164
         TOT                        7156.3777    38.2012    99.5899   416.6843

       T/K    H(0)-H(T)+PV         H(T)/Eh          T*S/Eh         G(T)/Eh
   ------------------------------------------------------------------------
    298.15    0.114044E-01    0.182128E+00    0.473184E-01    0.134810E+00
   ------------------------------------------------------------------------

         :::::::::::::::::::::::::::::::::::::::::::::::::::::
         ::                  THERMODYNAMIC                  ::
         :::::::::::::::::::::::::::::::::::::::::::::::::::::
         :: total free energy         -26.982347017720 Eh   ::
         ::.................................................::
         :: total energy              -27.117157053670 Eh   ::
         :: zero point energy           0.170724016048 Eh   ::
         :: G(RRHO) w/o ZPVE           -0.035913980097 Eh   ::
         :: G(RRHO) contrib.            0.134810035950 Eh   ::
         :::::::::::::::::::::::::::::::::::::::::::::::::::::

optimized geometry written to: xtbopt.coord


           -------------------------------------------------
          | TOTAL ENERGY              -27.117157053670 Eh   |
          | TOTAL ENTHALPY            -26.935028623787 Eh   |
          | TOTAL FREE ENERGY         -26.982347017720 Eh   |
          | GRADIENT NORM               0.000084049638 Eh/α |
          | HOMO-LUMO GAP               4.860182637898 eV   |
           -------------------------------------------------

------------------------------------------------------------------------
 * finished run on 2025/04/09 at 01:20:30.116     
------------------------------------------------------------------------
 total:
 * wall-time:     0 d,  0 h,  0 min,  0.954 sec
 *  cpu-time:     0 d,  0 h,  0 min,  0.945 sec
 * ratio c/w:     0.990 speedup
 SCF:
 * wall-time:     0 d,  0 h,  0 min,  0.008 sec
 *  cpu-time:     0 d,  0 h,  0 min,  0.008 sec
 * ratio c/w:     0.991 speedup
 ANC optimizer:
 * wall-time:     0 d,  0 h,  0 min,  0.212 sec
 *  cpu-time:     0 d,  0 h,  0 min,  0.210 sec
 * ratio c/w:     0.990 speedup
 analytical hessian:
 * wall-time:     0 d,  0 h,  0 min,  0.728 sec
 *  cpu-time:     0 d,  0 h,  0 min,  0.721 sec
 * ratio c/w:     0.991 speedup

