
                                 *****************
                                 * O   R   C   A *
                                 *****************

                                            #,                                       
                                            ###                                      
                                            ####                                     
                                            #####                                    
                                            ######                                   
                                           ########,                                 
                                     ,,################,,,,,                         
                               ,,#################################,,                 
                          ,,##########################################,,             
                       ,#########################################, ''#####,          
                    ,#############################################,,   '####,        
                  ,##################################################,,,,####,       
                ,###########''''           ''''###############################       
              ,#####''   ,,,,##########,,,,          '''####'''          '####       
            ,##' ,,,,###########################,,,                        '##       
           ' ,,###''''                  '''############,,,                           
         ,,##''                                '''############,,,,        ,,,,,,###''
      ,#''                                            '''#######################'''  
     '                                                          ''''####''''         
             ,#######,   #######,   ,#######,      ##                                
            ,#'     '#,  ##    ##  ,#'     '#,    #''#        ,####,   ,####,        
            ##       ##  ##   ,#'  ##            #'  '#       #'       #'  '#        
            ##       ##  #######   ##           ,######,      #####,   #    #        
            '#,     ,#'  ##    ##  '#,     ,#' ,#      #,     #,   #   #,  ,#        
             '#######'   ##     ##  '#######'  #'      '#     '####' # '####'        



                #########################################################
                #                        -***-                          #
                #          Department of theory and spectroscopy        #
                #                                                       #
                #                      Frank Neese                      #
                #                                                       #
                #     Directorship, Architecture, Infrastructure        #
                #                    SHARK, DRIVERS                     #
                #        Core code/Algorithms in most modules           #
                #                                                       #
                #        Max Planck Institute fuer Kohlenforschung      #
                #                Kaiser Wilhelm Platz 1                 #
                #                 D-45470 Muelheim/Ruhr                 #
                #                      Germany                          #
                #                                                       #
                #                  All rights reserved                  #
                #                        -***-                          #
                #########################################################


                         Program Version 6.0.1  -  RELEASE   -


 With contributions from (in alphabetic order):
[Max-Planck-Institut fuer Kohlenforschung]                               
  Daniel Aravena         : Magnetic Suceptibility                        
  Michael Atanasov       : Ab Initio Ligand Field Theory (pilot matlab implementation)
  Alexander A. Auer      : GIAO ZORA, VPT2 properties, NMR spectrum      
  Ute Becker             : All parallelization in ORCA, NUMFREQ, NUMCALC 
  Giovanni Bistoni       : ED, misc. LED, open-shell LED, HFLD           
  Martin Brehm           : Molecular dynamics                            
  Dmytro Bykov           : pre 5.0 version of the SCF Hessian            
  Marcos Casanova-Páez   : Triplet and SCS-CIS(D). UHF-(DLPNO)-IP/EA/STEOM-CCSD. UHF-CVS-IP/STEOM-CCSD   
  Vijay G. Chilkuri      : MRCI spin determinant printing, contributions to CSF-ICE 
  Pauline Colinet        : FMM embedding                                 
  Dipayan Datta          : RHF DLPNO-CCSD density                        
  Achintya Kumar Dutta   : EOM-CC, STEOM-CC                              
  Nicolas Foglia         : Exact transition moments, OPA infrastructure, MCD improvements    
  Dmitry Ganyushin       : Spin-Orbit,Spin-Spin,Magnetic field MRCI      
  Miquel Garcia-Rates    : C-PCM and meta-GGA Hessian, CCSD/C-PCM, Gaussian charge scheme 
  Tiago L. C. Gouveia    : GS-ROHF, GS-ROCIS                             
  Yang Guo               : DLPNO-NEVPT2, F12-NEVPT2, CIM, IAO-localization        
  Andreas Hansen         : Spin unrestricted coupled pair/coupled cluster methods 
  Ingolf Harden          : AUTO-CI MPn and infrastructure                
  Benjamin Helmich-Paris : MC-RPA, TRAH-(SCF,CASSCF), AVAS, COSX integrals, SCF dyn. polar. 
  Lee Huntington         : MR-EOM, pCC                                   
  Robert Izsak           : Overlap fitted RIJCOSX, COSX-SCS-MP3, EOM     
  Riya Kayal             : Wick's Theorem for AUTO-CI, AUTO-CI UHF-CCSDT 
  Emily Kempfer          : AUTO-CI, RHF CISDT and CCSDT                  
  Christian Kollmar      : KDIIS, OOCD, Brueckner-CCSD(T), CCSD density, CASPT2, CASPT2-K, improved NEVPT2 
  Axel Koslowski         : Symmetry handling                             
  Simone Kossmann        : meta-GGA functionals, TD-DFT gradient, OOMP2, (MP2 Hessian; deprecated post 5.0) 
  Lucas Lang             : DCDCAS                                        
  Marvin Lechner         : AUTO-CI (C++ implementation), FIC-MRCC        
  Spencer Leger          : CASSCF response                               
  Dagmar Lenk            : GEPOL surface, SMD, ORCA-2-JSON               
  Dimitrios Liakos       : Extrapolation schemes; Compound Job, initial MDCI parallelization 
  Dimitrios Manganas     : Further ROCIS development; embedding schemes. LFT, Crystal Embedding 
  Dimitrios Pantazis     : SARC Basis sets                               
  Anastasios Papadopoulos: AUTO-CI, single reference methods and gradients 
  Taras Petrenko         : pre 6.0 DFT Hessian and TD-DFT gradient, (ASA, deprecated), ECA, 1-Electron XAS/XES, NRVS 
  Peter Pinski           : DLPNO-MP2, DLPNO-MP2 Gradient                 
  Christoph Reimann      : Effective Core Potentials                     
  Marius Retegan         : Local ZFS, SOC                                
  Christoph Riplinger    : Optimizer, TS searches, QM/MM, DLPNO-CCSD(T), (RO)-DLPNO pert. Triples 
  Michael Roemelt        : Original ROCIS implementation                 
  Masaaki Saitow         : Open-shell DLPNO-CCSD energy and density      
  Barbara Sandhoefer     : DKH picture change effects                    
  Kantharuban Sivalingam : CASSCF convergence/infrastructure, NEVPT2 and variants, FIC-MRCI 
  Bernardo de Souza      : ESD, SOC TD-DFT                               
  Georgi L. Stoychev     : AutoAux, RI-MP2 NMR, DLPNO-MP2 response, X2C  
  Van Anh Tran           : RI-MP2 g-tensors                              
  Willem Van den Heuvel  : Paramagnetic NMR                              
  Zikuan Wang            : NOTCH, Electric field optimization            
  Frank Wennmohs         : Technical directorship and infrastructure     
  Hang Xu                : AUTO-CI-Response properties                   
                                                                         
[FACCTs GmbH]                                                            
  Markus Bursch, Miquel Garcia-Rates, Christoph Riplinger, Bernardo de Souza, Georgi L. Stoychev 
                                                                 
  APM, Basis sets (HGBS, AHGBS, def-TZVP (Ac-Lr), def2-XVPD (La-Lu)), CI-OPT, improved COSX, DLPNO-Multilevel,           
  DOCKER, DRACO, updates on ESD, GOAT, IRC, LR-CPCM, MBIS, meta-GGA TD-DFT gradient, ML-optimized integration grids, 
  MM, NACMEs, nearIR, NEB, NEB-TS, NL-DFT gradient (VV10), 2- and 3-layer-ONIOM, interface openCOSMO-RS, QMMM,   
  Crystal-QMMM, SF, symmetry and pop. for TD-DFT, r2SCAN hybrids, SOLVATOR                                   
                                                                         
[Other institutions]                                                     
  V. Asgeirsson          : NEB                                           
  Christoph Bannwarth    : sTDA-DFT, sTD-DFT, PBEh-3c, B97-3c, D3        
  Sebastian Ehlert       : rSCAN, r2SCAN, r2SCAN-3c, D4, dhf basis sets  
  Marvin Friede          : D4 for Fr, Ra, Ac-Lr                          
  Lars Goerigk           : TD-DFT with DH, B97 family of functionals     
  Stefan Grimme          : VdW corrections, initial TS optimization, DFT functionals, gCP, sTDA/sTD-DF 
  Waldemar Hujo          : DFT-NL                                        
  H. Jonsson             : NEB                                           
  Holger Kruse           : gCP                                           
  Marcel Mueller         : wB97X-3c, vDZP basis set                      
  Hagen Neugebauer       : wr2SCAN                                       
  Tobias Risthaus        : range-separated hybrid DFT                    
  Lukas Wittmann         : regularized MP2, r2SCAN double-hybrids, wr2SCAN        
                                                                         
We gratefully acknowledge several colleagues who have allowed us to      
interface, adapt or use parts of their codes:                            
  Ed Valeev, F. Pavosevic, A. Kumar             : LibInt (2-el integral package), F12 methods 
  Garnet Chan, S. Sharma, J. Yang, R. Olivares  : DMRG                   
  Ulf Ekstrom                                   : XCFun DFT Library      
  Mihaly Kallay                                 : mrcc  (arbitrary order and MRCC methods)
  Frank Weinhold                                : gennbo (NPA and NBO analysis)           
  Simon Mueller                                 : openCOSMO-RS                            
  Christopher J. Cramer and Donald G. Truhlar   : smd solvation model                     
  S Lehtola, MJT Oliveira, MAL Marques          : LibXC Library                           
  Liviu Ungur et al                             : ANISO software                          


 Your calculation uses the libint2 library for the computation of 2-el integrals
 For citations please refer to: http://libint.valeyev.net

 Your ORCA version has been built with support for libXC version: 6.2.2
 For citations please refer to: https://libxc.gitlab.io

 This ORCA versions uses:
   CBLAS   interface :  Fast vector & matrix operations
   LAPACKE interface :  Fast linear algebra routines
   SCALAPACK package :  Parallel linear algebra routines
   Shared memory     :  Shared parallel matrices
   BLAS/LAPACK       :  OpenBLAS 0.3.27  USE64BITINT DYNAMIC_ARCH NO_AFFINITY Zen SINGLE_THREADED
        Core in use  :  Zen
   Copyright (c) 2011-2014, The OpenBLAS Project


Your calculation utilizes the geometrical counterpoise correction gCP
Please cite in your paper:
H.Kruse, S. Grimme J.Chem.Phys., 136, (2012), 154101 
   

Your calculation utilizes the DFT-NL dispersion correction.
Cite in your paper:
Vydrov, O. A.; Van Voorhis, T. J. Chem. Phys. 2010, 133, 244103
Hujo, W.; Grimme, S. J. Chem. Theory Comput. 2011, 7, 3866 
   

================================================================================

----- Orbital basis set information -----
Your calculation utilizes the basis: def2-TZVP
   F. Weigend and R. Ahlrichs, Phys. Chem. Chem. Phys. 7, 3297 (2005).

----- AuxJ basis set information -----
Your calculation utilizes the auxiliary basis: def2/J
   F. Weigend, Phys. Chem. Chem. Phys. 8, 1057 (2006).

================================================================================
                                        WARNINGS
                       Please study these warnings very carefully!
================================================================================

WARNING: Old DensityContainer found on disk!
         Will remove this file - 
         If you want to keep old densities, please start your calculation with a different basename. 


================================================================================
                                       INPUT FILE
================================================================================
NAME = sp.inp
|  1> ! wb97x-v def2-tzvp def2/J RIJCOSX DEFGRID2 scfconv7 GCP(DFT/TZ) printgap
|  2> %output
|  3>     printlevel normal
|  4> end
|  5> * xyz 0 1
|  6> C 2.419565575400925 1.1588707073466673 2.8114927477720187e-05
|  7> C 1.270783609246112 1.9245406924403985 2.0570446249496748e-05
|  8> C 3.7764296867468267e-06 1.2977760672872434 4.210515107353087e-06
|  9> C -1.2707732603680781 1.9245463784846062 -1.0664973521026639e-05
| 10> C -2.4195585471955403 1.1588813696177436 -2.1176951813747402e-05
| 11> C -2.389691822111737 -0.2590845037845597 -2.2215058274557815e-06
| 12> C -1.17011073454052 -0.8935025566020258 1.6351386126131834e-05
| 13> C 7.86561666251976e-07 -0.11352749623632044 2.14777069297102e-06
| 14> C 1.17010875704766 -0.8935077963662047 -1.5835134079415996e-05
| 15> C 2.389692634772328 -0.25909506536276994 2.8133248931571926e-06
| 16> C 0.7822509090910481 -2.355896019915063 -0.00011666745006056703
| 17> C -0.7822598652816208 -2.3558926115675183 0.00011309072116903919
| 18> H 3.384597555047076 1.656950337376524 4.537653213066806e-05
| 19> H 1.3372904745218785 3.0087630841725033 3.040434726808893e-05
| 20> H -1.337275286765466 3.0087690750008975 -1.6766912180104212e-05
| 21> H -3.384588357121358 1.6569652022212609 -3.953527555317025e-05
| 22> H -3.3219732208324673 -0.8161999408952981 6.834743138702632e-06
| 23> H 3.3219715252137805 -0.816214781699583 -9.169450555064938e-06
| 24> H 1.1835999136456954 -2.871789189140709 -0.8790806039783846
| 25> H 1.183896882418175 -2.872053005525816 0.8785531785648746
| 26> H -1.18390842325271 -2.872045337517026 -0.8785580379114732
| 27> H -1.1836111167362622 -2.8717861282839943 0.8790758123071692
| 28> *
| 29> 
| 30>                          ****END OF INPUT****
================================================================================

                       ****************************
                       * Single Point Calculation *
                       ****************************

---------------------------------
CARTESIAN COORDINATES (ANGSTROEM)
---------------------------------
  C      2.419566    1.158871    0.000028
  C      1.270784    1.924541    0.000021
  C      0.000004    1.297776    0.000004
  C     -1.270773    1.924546   -0.000011
  C     -2.419559    1.158881   -0.000021
  C     -2.389692   -0.259085   -0.000002
  C     -1.170111   -0.893503    0.000016
  C      0.000001   -0.113527    0.000002
  C      1.170109   -0.893508   -0.000016
  C      2.389693   -0.259095    0.000003
  C      0.782251   -2.355896   -0.000117
  C     -0.782260   -2.355893    0.000113
  H      3.384598    1.656950    0.000045
  H      1.337290    3.008763    0.000030
  H     -1.337275    3.008769   -0.000017
  H     -3.384588    1.656965   -0.000040
  H     -3.321973   -0.816200    0.000007
  H      3.321972   -0.816215   -0.000009
  H      1.183600   -2.871789   -0.879081
  H      1.183897   -2.872053    0.878553
  H     -1.183908   -2.872045   -0.878558
  H     -1.183611   -2.871786    0.879076

----------------------------
CARTESIAN COORDINATES (A.U.)
----------------------------
  NO LB      ZA    FRAG     MASS         X           Y           Z
   0 C     6.0000    0    12.011    4.572316    2.189948    0.000053
   1 C     6.0000    0    12.011    2.401433    3.636855    0.000039
   2 C     6.0000    0    12.011    0.000007    2.452441    0.000008
   3 C     6.0000    0    12.011   -2.401413    3.636866   -0.000020
   4 C     6.0000    0    12.011   -4.572303    2.189968   -0.000040
   5 C     6.0000    0    12.011   -4.515863   -0.489599   -0.000004
   6 C     6.0000    0    12.011   -2.211189   -1.688475    0.000031
   7 C     6.0000    0    12.011    0.000001   -0.214536    0.000004
   8 C     6.0000    0    12.011    2.211185   -1.688485   -0.000030
   9 C     6.0000    0    12.011    4.515865   -0.489619    0.000005
  10 C     6.0000    0    12.011    1.478240   -4.451998   -0.000220
  11 C     6.0000    0    12.011   -1.478257   -4.451992    0.000214
  12 H     1.0000    0     1.008    6.395962    3.131182    0.000086
  13 H     1.0000    0     1.008    2.527113    5.685738    0.000057
  14 H     1.0000    0     1.008   -2.527084    5.685750   -0.000032
  15 H     1.0000    0     1.008   -6.395945    3.131210   -0.000075
  16 H     1.0000    0     1.008   -6.277620   -1.542394    0.000013
  17 H     1.0000    0     1.008    6.277616   -1.542422   -0.000017
  18 H     1.0000    0     1.008    2.236680   -5.426895   -1.661222
  19 H     1.0000    0     1.008    2.237241   -5.427394    1.660225
  20 H     1.0000    0     1.008   -2.237263   -5.427379   -1.660234
  21 H     1.0000    0     1.008   -2.236701   -5.426889    1.661213

--------------------------------
INTERNAL COORDINATES (ANGSTROEM)
--------------------------------
 C      0   0   0     0.000000000000     0.00000000     0.00000000
 C      1   0   0     1.380561672615     0.00000000     0.00000000
 C      2   1   0     1.416938699840   120.06321324     0.00000000
 C      3   2   1     1.416938707380   127.49355219   180.00027176
 C      4   3   2     1.380561675966   120.06320531   180.00021642
 C      5   4   3     1.418280381222   122.47679564     0.00000000
 C      6   5   4     1.374723352259   118.68980117     0.00000000
 C      7   6   5     1.406243957075   118.83014424     0.00000000
 C      8   7   6     1.406243908968   112.62633892   180.00175473
 C      9   8   7     1.374723371596   118.83013680   180.00161208
 C      9   8   7     1.512948458066   108.83283639     0.00000000
 C      7   6   5     1.512948438978   132.33700396   179.99619847
 H      1   2   3     1.085988047765   119.01680208   180.00028462
 H      2   1   3     1.086260262533   120.17353088   179.99980109
 H      4   3   2     1.086260270466   119.76325636     0.00000000
 H      5   4   3     1.085988047210   119.01680083   180.00042312
 H      6   5   4     1.086059950808   119.65517100   179.99888166
 H     10   9   8     1.086059992835   121.65501660   179.99995765
 H     11   9   8     1.095355826765   111.18398131   120.61821583
 H     11   9   8     1.095353011581   111.18750140   239.35670898
 H     12   7   6     1.095352980969   111.18750649    59.35955723
 H     12   7   6     1.095355838790   111.18397337   300.62105693

---------------------------
INTERNAL COORDINATES (A.U.)
---------------------------
 C      0   0   0     0.000000000000     0.00000000     0.00000000
 C      1   0   0     2.608883472230     0.00000000     0.00000000
 C      2   1   0     2.677626091252   120.06321324     0.00000000
 C      3   2   1     2.677626105501   127.49355219   180.00027176
 C      4   3   2     2.608883478562   120.06320531   180.00021642
 C      5   4   3     2.680161501624   122.47679564     0.00000000
 C      6   5   4     2.597850645676   118.68980117     0.00000000
 C      7   6   5     2.657415956354   118.83014424     0.00000000
 C      8   7   6     2.657415865444   112.62633892   180.00175473
 C      9   8   7     2.597850682218   118.83013680   180.00161208
 C      9   8   7     2.859058240482   108.83283639     0.00000000
 C      7   6   5     2.859058204412   132.33700396   179.99619847
 H      1   2   3     2.052219994988   119.01680208   180.00028462
 H      2   1   3     2.052734406349   120.17353088   179.99980109
 H      4   3   2     2.052734421340   119.76325636     0.00000000
 H      5   4   3     2.052219993939   119.01680083   180.00042312
 H      6   5   4     2.052355872048   119.65517100   179.99888166
 H     10   9   8     2.052355951467   121.65501660   179.99995765
 H     11   9   8     2.069922531781   111.18398131   120.61821583
 H     11   9   8     2.069917211855   111.18750140   239.35670898
 H     12   7   6     2.069917154006   111.18750649    59.35955723
 H     12   7   6     2.069922554505   111.18397337   300.62105693

---------------------
BASIS SET INFORMATION
---------------------
There are 2 groups of distinct atoms

 Group   1 Type C   : 11s6p2d1f contracted to 5s3p2d1f pattern {62111/411/11/1}
 Group   2 Type H   : 5s1p contracted to 3s1p pattern {311/1}

Atom   0C    basis set group =>   1
Atom   1C    basis set group =>   1
Atom   2C    basis set group =>   1
Atom   3C    basis set group =>   1
Atom   4C    basis set group =>   1
Atom   5C    basis set group =>   1
Atom   6C    basis set group =>   1
Atom   7C    basis set group =>   1
Atom   8C    basis set group =>   1
Atom   9C    basis set group =>   1
Atom  10C    basis set group =>   1
Atom  11C    basis set group =>   1
Atom  12H    basis set group =>   2
Atom  13H    basis set group =>   2
Atom  14H    basis set group =>   2
Atom  15H    basis set group =>   2
Atom  16H    basis set group =>   2
Atom  17H    basis set group =>   2
Atom  18H    basis set group =>   2
Atom  19H    basis set group =>   2
Atom  20H    basis set group =>   2
Atom  21H    basis set group =>   2
---------------------------------
AUXILIARY/J BASIS SET INFORMATION
---------------------------------
There are 2 groups of distinct atoms

 Group   1 Type C   : 12s5p4d2f1g contracted to 6s4p3d1f1g pattern {711111/2111/211/2/1}
 Group   2 Type H   : 5s2p1d contracted to 3s1p1d pattern {311/2/1}

Atom   0C    basis set group =>   1
Atom   1C    basis set group =>   1
Atom   2C    basis set group =>   1
Atom   3C    basis set group =>   1
Atom   4C    basis set group =>   1
Atom   5C    basis set group =>   1
Atom   6C    basis set group =>   1
Atom   7C    basis set group =>   1
Atom   8C    basis set group =>   1
Atom   9C    basis set group =>   1
Atom  10C    basis set group =>   1
Atom  11C    basis set group =>   1
Atom  12H    basis set group =>   2
Atom  13H    basis set group =>   2
Atom  14H    basis set group =>   2
Atom  15H    basis set group =>   2
Atom  16H    basis set group =>   2
Atom  17H    basis set group =>   2
Atom  18H    basis set group =>   2
Atom  19H    basis set group =>   2
Atom  20H    basis set group =>   2
Atom  21H    basis set group =>   2

Checking for AutoStart:
The File: sp.gbw exists
Trying to determine its content:
     ... Fine, the file contains calculation information
     ... Fine, the calculation information was read
     ... Fine, the file contains a basis set
     ... Fine, the basis set was read
     ... Fine, the file contains a geometry
     ... Fine, the geometry was read
     ... Fine, the file contains a set of orbitals
     ... Fine, the orbitals can be read
     => possible old guess file was deleted
     => GBW file was renamed to GES file
     => GES file is set as startup file
     => Guess is set to MORead
     ... now leaving AutoStart

------------------------------------------------------------------------------
                             ORCA STARTUP CALCULATIONS
                           -- RI-GTO INTEGRALS CHOSEN --
------------------------------------------------------------------------------
------------------------------------------------------------------------------
                   ___                                                        
                  /   \      - P O W E R E D   B Y -                         
                 /     \                                                     
                 |  |  |   _    _      __       _____    __    __             
                 |  |  |  | |  | |    /  \     |  _  \  |  |  /  |          
                  \  \/   | |  | |   /    \    | | | |  |  | /  /          
                 / \  \   | |__| |  /  /\  \   | |_| |  |  |/  /          
                |  |  |   |  __  | /  /__\  \  |    /   |      \           
                |  |  |   | |  | | |   __   |  |    \   |  |\   \          
                \     /   | |  | | |  |  |  |  | |\  \  |  | \   \       
                 \___/    |_|  |_| |__|  |__|  |_| \__\ |__|  \__/        
                                                                              
                      - O R C A' S   B I G   F R I E N D -                    
                                      &                                       
                       - I N T E G R A L  F E E D E R -                       
                                                                              
 v1 FN, 2020, v2 2021, v3 2022-2024                                           
------------------------------------------------------------------------------


----------------------
SHARK INTEGRAL PACKAGE
----------------------

Number of atoms                             ...     22
Number of basis functions                   ...    432
Number of shells                            ...    172
Maximum angular momentum                    ...      3
Integral batch strategy                     ... SHARK/LIBINT Hybrid
RI-J (if used) integral strategy            ... SPLIT-RIJ (Revised 2003 algorithm where possible)
Printlevel                                  ...      1
Contraction scheme used                     ... SEGMENTED contraction
Prescreening option                         ... SCHWARTZ
   Thresh                                   ... 3.000e-11
   Tcut                                     ... 1.000e-12
   Tpresel                                  ... 1.000e-12 
Coulomb Range Separation                    ... NOT USED
Exchange Range Separation                   ... Long Range
   Mu parameter                             ... 3.000e-01
   Scaling (regular/separated)              ... 1.670e-01 8.330e-01
Multipole approximations                    ... NOT USED
Finite Nucleus Model                        ... NOT USED
CABS basis                                  ... NOT available
Auxiliary Coulomb fitting basis             ... AVAILABLE
   # of basis functions in Aux-J            ...    698
   # of shells in Aux-J                     ...    230
   Maximum angular momentum in Aux-J        ...      4
Auxiliary J/K fitting basis                 ... NOT available
Auxiliary Correlation fitting basis         ... NOT available
Auxiliary 'external' fitting basis          ... NOT available

Checking pre-screening integrals            ... done (  0.0 sec) Dimension = 172
Check shell pair data                       ... done (  0.0 sec)
Shell pair information
Shell pair cut-off parameter TPreSel        ...   1.0e-12
Total number of shell pairs                 ...     14878
Shell pairs after pre-screening             ...     13297
Total number of primitive shell pairs       ...     45444
Primitive shell pairs kept                  ...     29622
          la=0 lb=0:   3452 shell pairs
          la=1 lb=0:   3708 shell pairs
          la=1 lb=1:   1011 shell pairs
          la=2 lb=0:   1972 shell pairs
          la=2 lb=1:   1044 shell pairs
          la=2 lb=2:    288 shell pairs
          la=3 lb=0:    952 shell pairs
          la=3 lb=1:    520 shell pairs
          la=3 lb=2:    272 shell pairs
          la=3 lb=3:     78 shell pairs

Calculating one electron integrals          ... done (  0.1 sec)
Calculating RI/J V-Matrix + Cholesky decomp.... done (  0.0 sec)
Calculating Nuclear repulsion               ... done (  0.0 sec) ENN=    635.988524952745 Eh

Diagonalization of the overlap matrix:
Smallest eigenvalue                        ... 4.623e-06
Time for diagonalization                   ...    0.014 sec
Threshold for overlap eigenvalues          ... 1.000e-07
Number of eigenvalues below threshold      ... 0
Time for construction of square roots      ...    0.006 sec
Total time needed                          ...    0.021 sec

-------------------
DFT GRID GENERATION
-------------------

General Integration Accuracy     IntAcc      ... 4.388
Radial Grid Type                 RadialGrid  ... OptM3 with GC (2021)
Angular Grid (max. ang.)         AngularGrid ... 4 (Lebedev-302)
Angular grid pruning method      GridPruning ... 4 (adaptive)
Weight generation scheme         WeightScheme... mBecke (2022)
Basis function cutoff            BFCut       ... 1.0000e-11
Integration weight cutoff        WCut        ... 1.0000e-14
Partially contracted basis set               ... off
Rotationally invariant grid construction     ... off
Angular grids for H and He will be reduced by one unit

Total number of grid points                  ...   103559
Total number of batches                      ...     1630
Average number of points per batch           ...       63
Average number of grid points per atom       ...     4707

--------------------
COSX GRID GENERATION
--------------------

GRIDX 1
-------
General Integration Accuracy     IntAcc      ... 3.816
Radial Grid Type                 RadialGrid  ... OptM3 with GC (2021)
Angular Grid (max. ang.)         AngularGrid ... 1 (Lebedev-50)
Angular grid pruning method      GridPruning ... 4 (adaptive)
Weight generation scheme         WeightScheme... mBecke (2022)
Basis function cutoff            BFCut       ... 1.0000e-11
Integration weight cutoff        WCut        ... 1.0000e-14
Partially contracted basis set               ... on
Rotationally invariant grid construction     ... off
Angular grids for H and He will be reduced by one unit

Total number of grid points                  ...    13243
Total number of batches                      ...      114
Average number of points per batch           ...      116
Average number of grid points per atom       ...      602
UseSFitting                                  ... on

GRIDX 2
-------
General Integration Accuracy     IntAcc      ... 4.020
Radial Grid Type                 RadialGrid  ... OptM3 with GC (2021)
Angular Grid (max. ang.)         AngularGrid ... 2 (Lebedev-110)
Angular grid pruning method      GridPruning ... 4 (adaptive)
Weight generation scheme         WeightScheme... mBecke (2022)
Basis function cutoff            BFCut       ... 1.0000e-11
Integration weight cutoff        WCut        ... 1.0000e-14
Partially contracted basis set               ... on
Rotationally invariant grid construction     ... off
Angular grids for H and He will be reduced by one unit

Total number of grid points                  ...    28687
Total number of batches                      ...      234
Average number of points per batch           ...      122
Average number of grid points per atom       ...     1304
UseSFitting                                  ... on

GRIDX 3
-------
General Integration Accuracy     IntAcc      ... 4.338
Radial Grid Type                 RadialGrid  ... OptM3 with GC (2021)
Angular Grid (max. ang.)         AngularGrid ... 3 (Lebedev-194)
Angular grid pruning method      GridPruning ... 4 (adaptive)
Weight generation scheme         WeightScheme... mBecke (2022)
Basis function cutoff            BFCut       ... 1.0000e-11
Integration weight cutoff        WCut        ... 1.0000e-14
Partially contracted basis set               ... on
Rotationally invariant grid construction     ... off
Angular grids for H and He will be reduced by one unit

Total number of grid points                  ...    62914
Total number of batches                      ...      505
Average number of points per batch           ...      124
Average number of grid points per atom       ...     2860
UseSFitting                                  ... on
Initializing property integral containers    ... done (  0.0 sec)

SHARK setup successfully completed in   2.1 seconds

Maximum memory used throughout the entire STARTUP-calculation: 72.9 MB
-------------------------------------------------------------------------------
                                 ORCA GUESS
                   Start orbitals & Density for SCF / CASSCF
-------------------------------------------------------------------------------

------------
SCF SETTINGS
------------
Hamiltonian:
 Density Functional     Method          .... DFT(GTOs)
 Exchange Functional    Exchange        .... WB97X-V
 Correlation Functional Correlation     .... WB97X-V
 Gradients option       PostSCFGGA      .... off
 Hybrid DFT is turned on
   Fraction HF Exchange ScalHFX         ....  0.167000
   Scaling of DF-GGA-X  ScalDFX         ....  0.000000
   Scaling of DF-GGA-C  ScalDFC         ....  1.000000
   Scaling of DF-LDA-C  ScalLDAC        ....  1.000000
   Perturbative correction              ....  0.000000
 Long-range corrected/Screened/Range-Separated Hybrid DFT is turned on
   Amount of maximum screened exact exchange              ....  0.833000
   Range separation parameter mu (erf(mu*r12)/r12)        ....  0.300000
   NL short-range parameter             ....  6.000000
   NL long-range parameter              ....  0.010000
 RI-approximation to the Coulomb term is turned on
   Number of AuxJ basis functions       .... 698
   RIJ-COSX (HFX calculated with COS-X)).... on


General Settings:
 Integral files         IntName         .... sp
 Hartree-Fock type      HFTyp           .... RHF
 Total Charge           Charge          ....    0
 Multiplicity           Mult            ....    1
 Number of Electrons    NEL             ....   82
 Basis Dimension        Dim             ....  432
 Nuclear Repulsion      ENuc            ....    635.9885249527 Eh

Convergence Acceleration:
 AO-DIIS                CNVDIIS         .... on
   Start iteration      DIISMaxIt       ....    12
   Startup error        DIISStart       ....  0.200000
   # of expansion vecs  DIISMaxEq       ....     5
   Bias factor          DIISBfac        ....   1.050
   Max. coefficient     DIISMaxC        ....  10.000
 MO-DIIS                CNVKDIIS        .... off
 Trust-Rad. Augm. Hess. CNVTRAH         .... auto
   Auto Start mean grad. ratio tolernc. ....  1.125000
   Auto Start start iteration           ....     1
   Auto Start num. interpolation iter.  ....    10
   Max. Number of Micro iterations      ....    24
   Max. Number of Macro iterations      .... Maxiter - #DIIS iter
   Number of Davidson start vectors     ....     2
   Converg. threshold    (grad. norm)   ....   1.000e-04
   Grad. Scal. Fac. for Micro threshold ....   0.100
   Minimum threshold for Micro iter.    ....   1.000e-02
   NR start threshold (gradient norm)   ....   1.000e-04
   Initial trust radius                 ....   0.400
   Minimum AH scaling param. (alpha)    ....   1.000
   Maximum AH scaling param. (alpha)    .... 1000.000
   Quad. conv. algorithm                .... NR
   White noise on init. David. guess    .... on
   Maximum white noise                  ....   0.010
   Pseudo random numbers                .... off
   Inactive MOs                         .... canonical
   Orbital update algorithm             .... Taylor
   Preconditioner                       .... Diag
   Full preconditioner red. dimension   ....   250
 SOSCF                  CNVSOSCF        .... on
   Start iteration      SOSCFMaxIt      ....   150
   Startup grad/error   SOSCFStart      ....  0.003300
   Hessian update       SOSCFHessUp     .... L-BFGS
 Level Shifting         CNVShift        .... on
   Level shift para.    LevelShift      ....    0.2500
   Turn off err/grad.   ShiftErr        ....    0.0010
 Zerner damping         CNVZerner       .... off
 Static damping         CNVDamp         .... on
   Fraction old density DampFac         ....    0.7000
   Max. Damping (<1)    DampMax         ....    0.9800
   Min. Damping (>=0)   DampMin         ....    0.0000
   Turn off err/grad.   DampErr         ....    0.1000

SCF Procedure:
 Maximum # iterations   MaxIter         ....   125
 SCF integral mode      SCFMode         .... Direct
   Integral package                     .... SHARK and LIBINT hybrid scheme
 Reset frequency        DirectResetFreq ....    20
 Integral Threshold     Thresh          ....  3.000e-11 Eh
 Primitive CutOff       TCut            ....  1.000e-12 Eh

Convergence Tolerance:
 Convergence Check Mode ConvCheckMode   .... Total+1el-Energy
 Convergence forced     ConvForced      .... 0
 Energy Change          TolE            ....  1.000e-07 Eh
 1-El. energy change                    ....  1.000e-04 Eh
 Orbital Gradient       TolG            ....  1.000e-04
 Orbital Rotation angle TolX            ....  1.000e-04
 DIIS Error             TolErr          ....  1.000e-07

---------------------
INITIAL GUESS: MOREAD
---------------------
Guess MOs are being read from file: sp.ges
Input Geometry matches current geometry (good)
Atom 0: N(Shells)= 11 and 9 - projection required
Input basis set needs projection
NBasis(read)= 278
NBasis(calc)= 432
Basis set overlap was calculated
Using GuessMode=FMatrix for the initial guess
C*T matrix was formed
Effective Fockian was calculated
Effective Fockian was diagonalized
Initial density was built
                      ------------------
                      INITIAL GUESS DONE (   0.0 sec)
                      ------------------
             **** ENERGY FILE WAS UPDATED (sp.en.tmp) ****
Finished Guess after   0.1 sec
Maximum memory used throughout the entire GUESS-calculation: 53.0 MB

-------------------------------------------------------------------------------------------
                                      ORCA LEAN-SCF
                              memory conserving SCF solver
-------------------------------------------------------------------------------------------

----------------------------------------D-I-I-S--------------------------------------------
Iteration    Energy (Eh)           Delta-E    RMSDP     MaxDP     DIISErr   Damp  Time(sec)
-------------------------------------------------------------------------------------------
               ***  Starting incremental Fock matrix formation  ***
    1    -463.6225586854671974     0.00e+00  3.08e-03  1.36e-01  5.03e-02  0.700  26.0
    2    -463.6298525751227544    -7.29e-03  2.46e-03  9.72e-02  3.74e-02  0.700  11.8
                               ***Turning on AO-DIIS***
    3    -463.6353606992717005    -5.51e-03  1.89e-03  6.83e-02  2.71e-02  0.700  11.7
    4    -463.6394186774988384    -4.06e-03  4.54e-03  1.59e-01  1.91e-02  0.000  11.6
                              *** Initializing SOSCF ***
---------------------------------------S-O-S-C-F--------------------------------------
Iteration    Energy (Eh)           Delta-E    RMSDP     MaxDP     MaxGrad    Time(sec)
--------------------------------------------------------------------------------------
    5    -463.6497454982974205    -1.03e-02  1.08e-04  3.03e-03  1.07e-03    12.1
               *** Restarting incremental Fock matrix formation ***
    6    -463.6497780012372232    -3.25e-05  4.44e-05  1.33e-03  1.03e-03    26.0
    7    -463.6497969506248182    -1.89e-05  2.17e-05  5.59e-04  4.74e-04    19.8
    8    -463.6498023904379124    -5.44e-06  5.67e-06  2.34e-04  7.16e-05    19.2
    9    -463.6498024537216907    -6.33e-08  1.78e-06  5.21e-05  6.80e-05    17.0
                 **** Energy Check signals convergence ****

               *****************************************************
               *                     SUCCESS                       *
               *           SCF CONVERGED AFTER   9 CYCLES          *
               *****************************************************


------------------
NL GRID GENERATION
------------------

General Integration Accuracy     IntAcc      ... 4.004
Radial Grid Type                 RadialGrid  ... OptM3 with GC (2021)
Angular Grid (max. ang.)         AngularGrid ... 2 (Lebedev-110)
Angular grid pruning method      GridPruning ... 4 (adaptive)
Weight generation scheme         WeightScheme... mBecke (2022)
Basis function cutoff            BFCut       ... 1.0000e-10
Integration weight cutoff        WCut        ... 1.0000e-14
Partially contracted basis set               ... off
Rotationally invariant grid construction     ... off
Angular grids for H and He will be reduced by one unit

Total number of grid points                  ...    32964
Total number of batches                      ...      524
Average number of points per batch           ...       62
Average number of grid points per atom       ...     1498
Final grid set up in    0.2 sec

-------------------------------------------------------------------------------
                    post-SCF DFT-NL dispersion correction                      
-------------------------------------------------------------------------------

SCF Energy:     -463.649802454 
NL    Energy:      0.304111031 
SC+NL Energy:   -463.345691423 
NL done in  :              3.2 sec
-------------------------------------------------------------------------------
Recomputing exchange energy using gridx3       ... done (   49.415 sec)
Old exchange energy                            :    -21.646150303 Eh
New exchange energy                            :    -21.646119053 Eh
Exchange energy change after final integration :      0.000031250 Eh
Total energy after final integration           :   -463.345660173 Eh
             **** ENERGY FILE WAS UPDATED (sp.en.tmp) ****

----------------
TOTAL SCF ENERGY
----------------

Total Energy       :       -463.34566017317280 Eh          -12608.27641 eV

Components:
Nuclear Repulsion  :        635.98852495274525 Eh           17306.12759 eV
Electronic Energy  :      -1099.63832740646694 Eh          -29922.68013 eV
One Electron Energy:      -1885.28089729854128 Eh          -51301.10131 eV
Two Electron Energy:        785.64256989207445 Eh           21378.42118 eV

Virial components:
Potential Energy   :       -924.81772254486532 Eh          -25165.56962 eV
Kinetic Energy     :        461.47206237169257 Eh           12557.29322 eV
Virial Ratio       :          2.00406004600116

DFT components:
N(Alpha)           :       41.000022555636 electrons
N(Beta)            :       41.000022555636 electrons
N(Total)           :       82.000045111273 electrons
E(X)               :      -44.160222647524 Eh       
E(C)               :       -3.385138113290 Eh       
NL Energy, E(C,NL) :        0.304111030625 Eh       
E(XC)              :      -47.241249730190 Eh       

---------------
SCF CONVERGENCE
---------------

  Last Energy change         ...    6.3284e-08  Tolerance :   1.0000e-07
  Last MAX-Density change    ...    5.2062e-05  Tolerance :   1.0000e-05
  Last RMS-Density change    ...    1.7777e-06  Tolerance :   1.0000e-06
  Last DIIS Error            ...    1.0705e-03  Tolerance :   1.0000e-07
  Last Orbital Gradient      ...    6.8042e-05  Tolerance :   1.0000e-04
  Last Orbital Rotation      ...    9.2745e-05  Tolerance :   1.0000e-04


----------------
ORBITAL ENERGIES
----------------

  NO   OCC          E(Eh)            E(eV) 
   0   2.0000     -10.281722      -279.7799 
   1   2.0000     -10.281278      -279.7678 
   2   2.0000     -10.281274      -279.7677 
   3   2.0000     -10.281071      -279.7622 
   4   2.0000     -10.280950      -279.7589 
   5   2.0000     -10.276367      -279.6342 
   6   2.0000     -10.276361      -279.6340 
   7   2.0000     -10.272123      -279.5187 
   8   2.0000     -10.272110      -279.5183 
   9   2.0000     -10.271771      -279.5091 
  10   2.0000     -10.271765      -279.5089 
  11   2.0000     -10.267521      -279.3935 
  12   2.0000      -1.028030       -27.9741 
  13   2.0000      -0.957493       -26.0547 
  14   2.0000      -0.954350       -25.9692 
  15   2.0000      -0.873976       -23.7821 
  16   2.0000      -0.861229       -23.4352 
  17   2.0000      -0.850546       -23.1445 
  18   2.0000      -0.775469       -21.1016 
  19   2.0000      -0.740281       -20.1441 
  20   2.0000      -0.719144       -19.5689 
  21   2.0000      -0.696748       -18.9595 
  22   2.0000      -0.628231       -17.0950 
  23   2.0000      -0.615755       -16.7555 
  24   2.0000      -0.597146       -16.2492 
  25   2.0000      -0.585279       -15.9262 
  26   2.0000      -0.560346       -15.2478 
  27   2.0000      -0.544051       -14.8044 
  28   2.0000      -0.521113       -14.1802 
  29   2.0000      -0.514564       -14.0020 
  30   2.0000      -0.501580       -13.6487 
  31   2.0000      -0.501129       -13.6364 
  32   2.0000      -0.487501       -13.2656 
  33   2.0000      -0.461518       -12.5585 
  34   2.0000      -0.456789       -12.4299 
  35   2.0000      -0.431839       -11.7509 
  36   2.0000      -0.430136       -11.7046 
  37   2.0000      -0.426535       -11.6066 
  38   2.0000      -0.378953       -10.3118 
  39   2.0000      -0.332329        -9.0431 
  40   2.0000      -0.292002        -7.9458 
  41   0.0000       0.034271         0.9326 
  42   0.0000       0.057148         1.5551 
  43   0.0000       0.103553         2.8178 
  44   0.0000       0.116595         3.1727 
  45   0.0000       0.133998         3.6463 
  46   0.0000       0.134761         3.6670 
  47   0.0000       0.154249         4.1973 
  48   0.0000       0.159964         4.3529 
  49   0.0000       0.171779         4.6743 
  50   0.0000       0.176832         4.8118 
  51   0.0000       0.181610         4.9419 
*Only the first 10 virtual orbitals were printed.

                    ********************************
                    * MULLIKEN POPULATION ANALYSIS *
                    ********************************

-----------------------
MULLIKEN ATOMIC CHARGES
-----------------------
   0 C :   -0.069048
   1 C :   -0.233857
   2 C :    0.087351
   3 C :   -0.233977
   4 C :   -0.068590
   5 C :   -0.216215
   6 C :   -0.009997
   7 C :    0.126131
   8 C :   -0.010514
   9 C :   -0.215414
  10 C :   -0.125453
  11 C :   -0.124935
  12 H :    0.114075
  13 H :    0.110462
  14 H :    0.110473
  15 H :    0.114112
  16 H :    0.112634
  17 H :    0.112837
  18 H :    0.104999
  19 H :    0.104998
  20 H :    0.104970
  21 H :    0.104957
Sum of atomic charges:    0.0000000

--------------------------------
MULLIKEN REDUCED ORBITAL CHARGES
--------------------------------
  0 C s       :     3.148781  s :     3.148781
      pz      :     0.956546  p :     2.826052
      px      :     0.950126
      py      :     0.919380
      dz2     :     0.004505  d :     0.086709
      dxz     :     0.009042
      dyz     :     0.022153
      dx2y2   :     0.025117
      dxy     :     0.025892
      f0      :     0.001606  f :     0.007507
      f+1     :     0.000634
      f-1     :     0.000659
      f+2     :     0.000829
      f-2     :     0.000578
      f+3     :     0.002077
      f-3     :     0.001125

  1 C s       :     3.253328  s :     3.253328
      pz      :     0.999975  p :     2.886849
      px      :     0.906983
      py      :     0.979891
      dz2     :     0.004302  d :     0.086400
      dxz     :     0.023830
      dyz     :     0.004672
      dx2y2   :     0.033416
      dxy     :     0.020181
      f0      :     0.001538  f :     0.007280
      f+1     :     0.000605
      f-1     :     0.000674
      f+2     :     0.000225
      f-2     :     0.000953
      f+3     :     0.002133
      f-3     :     0.001153

  2 C s       :     3.208874  s :     3.208874
      pz      :     0.907165  p :     2.553317
      px      :     0.781923
      py      :     0.864230
      dz2     :     0.005580  d :     0.140051
      dxz     :     0.030112
      dyz     :     0.019978
      dx2y2   :     0.041957
      dxy     :     0.042424
      f0      :     0.001901  f :     0.010407
      f+1     :     0.000787
      f-1     :     0.000643
      f+2     :     0.001250
      f-2     :     0.000791
      f+3     :     0.003570
      f-3     :     0.001464

  3 C s       :     3.253342  s :     3.253342
      pz      :     0.999977  p :     2.886950
      px      :     0.906935
      py      :     0.980038
      dz2     :     0.004301  d :     0.086405
      dxz     :     0.023830
      dyz     :     0.004671
      dx2y2   :     0.033445
      dxy     :     0.020158
      f0      :     0.001538  f :     0.007280
      f+1     :     0.000605
      f-1     :     0.000674
      f+2     :     0.000225
      f-2     :     0.000953
      f+3     :     0.002133
      f-3     :     0.001153

  4 C s       :     3.148589  s :     3.148589
      pz      :     0.956546  p :     2.825787
      px      :     0.949966
      py      :     0.919275
      dz2     :     0.004508  d :     0.086707
      dxz     :     0.009042
      dyz     :     0.022153
      dx2y2   :     0.025099
      dxy     :     0.025905
      f0      :     0.001606  f :     0.007507
      f+1     :     0.000633
      f-1     :     0.000659
      f+2     :     0.000829
      f-2     :     0.000577
      f+3     :     0.002077
      f-3     :     0.001126

  5 C s       :     3.220037  s :     3.220037
      pz      :     1.010851  p :     2.902500
      px      :     0.959681
      py      :     0.931968
      dz2     :     0.003845  d :     0.086323
      dxz     :     0.009641
      dyz     :     0.017091
      dx2y2   :     0.025004
      dxy     :     0.030741
      f0      :     0.001549  f :     0.007356
      f+1     :     0.000648
      f-1     :     0.000672
      f+2     :     0.000877
      f-2     :     0.000360
      f+3     :     0.002174
      f-3     :     0.001076

  6 C s       :     3.229602  s :     3.229602
      pz      :     0.902522  p :     2.627596
      px      :     0.837820
      py      :     0.887254
      dz2     :     0.004118  d :     0.142406
      dxz     :     0.027336
      dyz     :     0.021896
      dx2y2   :     0.046955
      dxy     :     0.042101
      f0      :     0.001741  f :     0.010393
      f+1     :     0.000618
      f-1     :     0.000829
      f+2     :     0.000928
      f-2     :     0.001166
      f+3     :     0.003460
      f-3     :     0.001652

  7 C s       :     3.231832  s :     3.231832
      pz      :     0.943690  p :     2.480682
      px      :     0.818328
      py      :     0.718664
      dz2     :     0.004304  d :     0.150076
      dxz     :     0.021853
      dyz     :     0.023831
      dx2y2   :     0.047488
      dxy     :     0.052601
      f0      :     0.001979  f :     0.011279
      f+1     :     0.000675
      f-1     :     0.000743
      f+2     :     0.000983
      f-2     :     0.001073
      f+3     :     0.004169
      f-3     :     0.001659

  8 C s       :     3.230578  s :     3.230578
      pz      :     0.902523  p :     2.627054
      px      :     0.837843
      py      :     0.886688
      dz2     :     0.004118  d :     0.142490
      dxz     :     0.027338
      dyz     :     0.021895
      dx2y2   :     0.047003
      dxy     :     0.042136
      f0      :     0.001741  f :     0.010392
      f+1     :     0.000618
      f-1     :     0.000829
      f+2     :     0.000928
      f-2     :     0.001166
      f+3     :     0.003459
      f-3     :     0.001651

  9 C s       :     3.218833  s :     3.218833
      pz      :     1.010852  p :     2.902852
      px      :     0.959772
      py      :     0.932228
      dz2     :     0.003849  d :     0.086373
      dxz     :     0.009642
      dyz     :     0.017091
      dx2y2   :     0.024963
      dxy     :     0.030828
      f0      :     0.001549  f :     0.007356
      f+1     :     0.000647
      f-1     :     0.000672
      f+2     :     0.000876
      f-2     :     0.000360
      f+3     :     0.002175
      f-3     :     0.001076

 10 C s       :     3.137464  s :     3.137464
      pz      :     1.041116  p :     2.902971
      px      :     0.947551
      py      :     0.914304
      dz2     :     0.004054  d :     0.079673
      dxz     :     0.016054
      dyz     :     0.019122
      dx2y2   :     0.017157
      dxy     :     0.023287
      f0      :     0.000528  f :     0.005345
      f+1     :     0.000546
      f-1     :     0.000744
      f+2     :     0.000766
      f-2     :     0.000210
      f+3     :     0.001132
      f-3     :     0.001417

 11 C s       :     3.136890  s :     3.136890
      pz      :     1.041117  p :     2.903007
      px      :     0.947519
      py      :     0.914371
      dz2     :     0.004054  d :     0.079694
      dxz     :     0.016054
      dyz     :     0.019123
      dx2y2   :     0.017152
      dxy     :     0.023311
      f0      :     0.000528  f :     0.005344
      f+1     :     0.000546
      f-1     :     0.000744
      f+2     :     0.000766
      f-2     :     0.000210
      f+3     :     0.001133
      f-3     :     0.001416

 12 H s       :     0.863856  s :     0.863856
      pz      :     0.004586  p :     0.022069
      px      :     0.011680
      py      :     0.005804

 13 H s       :     0.867536  s :     0.867536
      pz      :     0.004739  p :     0.022002
      px      :     0.003445
      py      :     0.013818

 14 H s       :     0.867525  s :     0.867525
      pz      :     0.004739  p :     0.022002
      px      :     0.003445
      py      :     0.013818

 15 H s       :     0.863821  s :     0.863821
      pz      :     0.004586  p :     0.022067
      px      :     0.011679
      py      :     0.005802

 16 H s       :     0.865400  s :     0.865400
      pz      :     0.004733  p :     0.021966
      px      :     0.011051
      py      :     0.006182

 17 H s       :     0.865200  s :     0.865200
      pz      :     0.004733  p :     0.021963
      px      :     0.011050
      py      :     0.006180

 18 H s       :     0.873489  s :     0.873489
      pz      :     0.009668  p :     0.021512
      px      :     0.005460
      py      :     0.006383

 19 H s       :     0.873490  s :     0.873490
      pz      :     0.009664  p :     0.021512
      px      :     0.005462
      py      :     0.006385

 20 H s       :     0.873519  s :     0.873519
      pz      :     0.009664  p :     0.021511
      px      :     0.005462
      py      :     0.006385

 21 H s       :     0.873531  s :     0.873531
      pz      :     0.009668  p :     0.021512
      px      :     0.005460
      py      :     0.006384


------------------------
MULLIKEN OVERLAP CHARGES
------------------------
B(  0-C ,  1-C ) :   1.0431 B(  0-C ,  7-C ) :  -0.1625 B(  0-C ,  9-C ) :   0.8404 
B(  0-C , 12-H ) :   0.8813 B(  0-C , 13-H ) :  -0.0935 B(  0-C , 17-H ) :  -0.0996 
B(  1-C ,  2-C ) :   0.8712 B(  1-C ,  3-C ) :  -0.2654 B(  1-C ,  7-C ) :  -0.0722 
B(  1-C ,  8-C ) :  -0.1712 B(  1-C ,  9-C ) :   0.0571 B(  1-C , 12-H ) :  -0.1063 
B(  1-C , 13-H ) :   0.8700 B(  2-C ,  3-C ) :   0.8706 B(  2-C ,  5-C ) :  -0.0803 
B(  2-C ,  6-C ) :  -0.1417 B(  2-C ,  7-C ) :   0.9069 B(  2-C ,  8-C ) :  -0.1421 
B(  2-C ,  9-C ) :  -0.0798 B(  2-C , 13-H ) :  -0.1214 B(  2-C , 14-H ) :  -0.1212 
B(  3-C ,  4-C ) :   1.0427 B(  3-C ,  5-C ) :   0.0575 B(  3-C ,  6-C ) :  -0.1716 
B(  3-C ,  7-C ) :  -0.0721 B(  3-C , 14-H ) :   0.8697 B(  3-C , 15-H ) :  -0.1064 
B(  4-C ,  5-C ) :   0.8392 B(  4-C ,  7-C ) :  -0.1627 B(  4-C , 14-H ) :  -0.0934 
B(  4-C , 15-H ) :   0.8812 B(  4-C , 16-H ) :  -0.1002 B(  5-C ,  6-C ) :   0.9794 
B(  5-C ,  7-C ) :  -0.0793 B(  5-C , 11-C ) :  -0.1560 B(  5-C , 15-H ) :  -0.1233 
B(  5-C , 16-H ) :   0.8702 B(  6-C ,  7-C ) :   0.7894 B(  6-C ,  8-C ) :  -0.1745 
B(  6-C , 10-C ) :  -0.1251 B(  6-C , 11-C ) :   0.7334 B(  6-C , 16-H ) :  -0.1067 
B(  6-C , 20-H ) :  -0.0515 B(  6-C , 21-H ) :  -0.0512 B(  7-C ,  8-C ) :   0.7912 
B(  7-C ,  9-C ) :  -0.0805 B(  7-C , 10-C ) :  -0.1535 B(  7-C , 11-C ) :  -0.1539 
B(  8-C ,  9-C ) :   0.9813 B(  8-C , 10-C ) :   0.7323 B(  8-C , 11-C ) :  -0.1255 
B(  8-C , 17-H ) :  -0.1058 B(  8-C , 18-H ) :  -0.0511 B(  8-C , 19-H ) :  -0.0514 
B(  9-C , 10-C ) :  -0.1554 B(  9-C , 12-H ) :  -0.1234 B(  9-C , 17-H ) :   0.8691 
B( 10-C , 11-C ) :   0.8306 B( 10-C , 18-H ) :   0.7812 B( 10-C , 19-H ) :   0.7813 
B( 11-C , 20-H ) :   0.7809 B( 11-C , 21-H ) :   0.7807 B( 18-H , 19-H ) :  -0.0658 
B( 20-H , 21-H ) :  -0.0658 


                     *******************************
                     * LOEWDIN POPULATION ANALYSIS *
                     *******************************

----------------------
LOEWDIN ATOMIC CHARGES
----------------------
   0 C :   -0.133581
   1 C :   -0.109033
   2 C :   -0.095583
   3 C :   -0.109033
   4 C :   -0.133580
   5 C :   -0.122549
   6 C :   -0.092989
   7 C :   -0.040263
   8 C :   -0.092991
   9 C :   -0.122546
  10 C :   -0.177834
  11 C :   -0.177833
  12 H :    0.141727
  13 H :    0.142841
  14 H :    0.142840
  15 H :    0.141727
  16 H :    0.140895
  17 H :    0.140896
  18 H :    0.139226
  19 H :    0.139219
  20 H :    0.139219
  21 H :    0.139226

-------------------------------
LOEWDIN REDUCED ORBITAL CHARGES
-------------------------------
  0 C s       :     2.764897  s :     2.764897
      pz      :     0.880901  p :     2.937964
      px      :     1.013508
      py      :     1.043555
      dz2     :     0.024724  d :     0.388800
      dxz     :     0.025404
      dyz     :     0.074055
      dx2y2   :     0.124759
      dxy     :     0.139858
      f0      :     0.003011  f :     0.041920
      f+1     :     0.003379
      f-1     :     0.003982
      f+2     :     0.005498
      f-2     :     0.003620
      f+3     :     0.014629
      f-3     :     0.007801

  1 C s       :     2.756939  s :     2.756939
      pz      :     0.903316  p :     2.935529
      px      :     1.043570
      py      :     0.988643
      dz2     :     0.024615  d :     0.375204
      dxz     :     0.075680
      dyz     :     0.011778
      dx2y2   :     0.162165
      dxy     :     0.100966
      f0      :     0.003001  f :     0.041360
      f+1     :     0.004178
      f-1     :     0.003186
      f+2     :     0.001390
      f-2     :     0.006810
      f+3     :     0.014770
      f-3     :     0.008025

  2 C s       :     2.686910  s :     2.686910
      pz      :     0.825560  p :     2.829642
      px      :     1.004040
      py      :     1.000042
      dz2     :     0.032754  d :     0.520587
      dxz     :     0.087026
      dyz     :     0.064605
      dx2y2   :     0.168180
      dxy     :     0.168023
      f0      :     0.003940  f :     0.058443
      f+1     :     0.004294
      f-1     :     0.003914
      f+2     :     0.008103
      f-2     :     0.005788
      f+3     :     0.022816
      f-3     :     0.009589

  3 C s       :     2.756939  s :     2.756939
      pz      :     0.903316  p :     2.935530
      px      :     1.043571
      py      :     0.988643
      dz2     :     0.024615  d :     0.375204
      dxz     :     0.075680
      dyz     :     0.011777
      dx2y2   :     0.162166
      dxy     :     0.100966
      f0      :     0.003001  f :     0.041360
      f+1     :     0.004178
      f-1     :     0.003186
      f+2     :     0.001390
      f-2     :     0.006810
      f+3     :     0.014770
      f-3     :     0.008025

  4 C s       :     2.764896  s :     2.764896
      pz      :     0.880900  p :     2.937963
      px      :     1.013508
      py      :     1.043555
      dz2     :     0.024724  d :     0.388800
      dxz     :     0.025405
      dyz     :     0.074055
      dx2y2   :     0.124758
      dxy     :     0.139859
      f0      :     0.003011  f :     0.041920
      f+1     :     0.003379
      f-1     :     0.003982
      f+2     :     0.005498
      f-2     :     0.003620
      f+3     :     0.014628
      f-3     :     0.007801

  5 C s       :     2.757191  s :     2.757191
      pz      :     0.912910  p :     2.948362
      px      :     1.008338
      py      :     1.027114
      dz2     :     0.024448  d :     0.375015
      dxz     :     0.027375
      dyz     :     0.057835
      dx2y2   :     0.119057
      dxy     :     0.146301
      f0      :     0.002961  f :     0.041981
      f+1     :     0.003596
      f-1     :     0.003835
      f+2     :     0.006193
      f-2     :     0.002436
      f+3     :     0.015029
      f-3     :     0.007930

  6 C s       :     2.697840  s :     2.697840
      pz      :     0.814595  p :     2.813208
      px      :     1.028659
      py      :     0.969955
      dz2     :     0.032982  d :     0.522777
      dxz     :     0.087073
      dyz     :     0.067297
      dx2y2   :     0.172643
      dxy     :     0.162783
      f0      :     0.004116  f :     0.059163
      f+1     :     0.004268
      f-1     :     0.003690
      f+2     :     0.005502
      f-2     :     0.007984
      f+3     :     0.022262
      f-3     :     0.011340

  7 C s       :     2.663844  s :     2.663844
      pz      :     0.832444  p :     2.787396
      px      :     0.970402
      py      :     0.984550
      dz2     :     0.037274  d :     0.526144
      dxz     :     0.067068
      dyz     :     0.073838
      dx2y2   :     0.167109
      dxy     :     0.180855
      f0      :     0.003925  f :     0.062880
      f+1     :     0.003821
      f-1     :     0.004391
      f+2     :     0.006226
      f-2     :     0.007689
      f+3     :     0.026708
      f-3     :     0.010120

  8 C s       :     2.697842  s :     2.697842
      pz      :     0.814595  p :     2.813209
      px      :     1.028660
      py      :     0.969954
      dz2     :     0.032982  d :     0.522777
      dxz     :     0.087073
      dyz     :     0.067297
      dx2y2   :     0.172643
      dxy     :     0.162783
      f0      :     0.004116  f :     0.059163
      f+1     :     0.004268
      f-1     :     0.003690
      f+2     :     0.005502
      f-2     :     0.007984
      f+3     :     0.022262
      f-3     :     0.011340

  9 C s       :     2.757187  s :     2.757187
      pz      :     0.912911  p :     2.948362
      px      :     1.008337
      py      :     1.027114
      dz2     :     0.024448  d :     0.375016
      dxz     :     0.027375
      dyz     :     0.057835
      dx2y2   :     0.119056
      dxy     :     0.146302
      f0      :     0.002961  f :     0.041981
      f+1     :     0.003596
      f-1     :     0.003835
      f+2     :     0.006193
      f-2     :     0.002436
      f+3     :     0.015029
      f-3     :     0.007930

 10 C s       :     2.764957  s :     2.764957
      pz      :     1.035097  p :     3.015498
      px      :     0.988725
      py      :     0.991676
      dz2     :     0.037003  d :     0.359384
      dxz     :     0.066778
      dyz     :     0.080699
      dx2y2   :     0.087282
      dxy     :     0.087622
      f0      :     0.003569  f :     0.037994
      f+1     :     0.003560
      f-1     :     0.004022
      f+2     :     0.004934
      f-2     :     0.004247
      f+3     :     0.007537
      f-3     :     0.010125

 11 C s       :     2.764957  s :     2.764957
      pz      :     1.035097  p :     3.015497
      px      :     0.988724
      py      :     0.991675
      dz2     :     0.037003  d :     0.359385
      dxz     :     0.066778
      dyz     :     0.080699
      dx2y2   :     0.087281
      dxy     :     0.087624
      f0      :     0.003569  f :     0.037994
      f+1     :     0.003560
      f-1     :     0.004022
      f+2     :     0.004934
      f-2     :     0.004247
      f+3     :     0.007537
      f-3     :     0.010125

 12 H s       :     0.800417  s :     0.800417
      pz      :     0.013061  p :     0.057856
      px      :     0.028942
      py      :     0.015853

 13 H s       :     0.798712  s :     0.798712
      pz      :     0.013807  p :     0.058448
      px      :     0.010620
      py      :     0.034021

 14 H s       :     0.798712  s :     0.798712
      pz      :     0.013807  p :     0.058448
      px      :     0.010620
      py      :     0.034021

 15 H s       :     0.800417  s :     0.800417
      pz      :     0.013061  p :     0.057856
      px      :     0.028942
      py      :     0.015853

 16 H s       :     0.800624  s :     0.800624
      pz      :     0.013872  p :     0.058480
      px      :     0.027665
      py      :     0.016943

 17 H s       :     0.800624  s :     0.800624
      pz      :     0.013872  p :     0.058480
      px      :     0.027665
      py      :     0.016943

 18 H s       :     0.801950  s :     0.801950
      pz      :     0.027087  p :     0.058824
      px      :     0.015050
      py      :     0.016687

 19 H s       :     0.801957  s :     0.801957
      pz      :     0.027079  p :     0.058824
      px      :     0.015054
      py      :     0.016692

 20 H s       :     0.801957  s :     0.801957
      pz      :     0.027079  p :     0.058824
      px      :     0.015054
      py      :     0.016692

 21 H s       :     0.801951  s :     0.801951
      pz      :     0.027087  p :     0.058824
      px      :     0.015050
      py      :     0.016687


---------------------------------
LOEWDIN BOND ORDERS (THRESH 0.050000)
---------------------------------
B(  0-C ,  1-C ) :   1.6895 B(  0-C ,  2-C ) :   0.2297 B(  0-C ,  7-C ) :   0.0785 
B(  0-C ,  8-C ) :   0.2404 B(  0-C ,  9-C ) :   1.4599 B(  0-C , 12-H ) :   0.8307 
B(  0-C , 13-H ) :   0.0994 B(  0-C , 17-H ) :   0.0897 B(  1-C ,  2-C ) :   1.3592 
B(  1-C ,  3-C ) :   0.1791 B(  1-C ,  7-C ) :   0.2030 B(  1-C ,  8-C ) :   0.0981 
B(  1-C ,  9-C ) :   0.2260 B(  1-C , 12-H ) :   0.1013 B(  1-C , 13-H ) :   0.8275 
B(  2-C ,  3-C ) :   1.3592 B(  2-C ,  4-C ) :   0.2297 B(  2-C ,  5-C ) :   0.0722 
B(  2-C ,  6-C ) :   0.1778 B(  2-C ,  7-C ) :   1.2629 B(  2-C ,  8-C ) :   0.1778 
B(  2-C ,  9-C ) :   0.0722 B(  2-C , 13-H ) :   0.0881 B(  2-C , 14-H ) :   0.0881 
B(  3-C ,  4-C ) :   1.6895 B(  3-C ,  5-C ) :   0.2260 B(  3-C ,  6-C ) :   0.0981 
B(  3-C ,  7-C ) :   0.2030 B(  3-C , 14-H ) :   0.8275 B(  3-C , 15-H ) :   0.1013 
B(  4-C ,  5-C ) :   1.4599 B(  4-C ,  6-C ) :   0.2404 B(  4-C ,  7-C ) :   0.0785 
B(  4-C , 14-H ) :   0.0994 B(  4-C , 15-H ) :   0.8307 B(  4-C , 16-H ) :   0.0897 
B(  5-C ,  6-C ) :   1.6033 B(  5-C ,  7-C ) :   0.2231 B(  5-C , 11-C ) :   0.1527 
B(  5-C , 15-H ) :   0.0909 B(  5-C , 16-H ) :   0.8318 B(  6-C ,  7-C ) :   1.2513 
B(  6-C ,  8-C ) :   0.2123 B(  6-C , 10-C ) :   0.1483 B(  6-C , 11-C ) :   1.1171 
B(  6-C , 16-H ) :   0.0977 B(  6-C , 20-H ) :   0.0757 B(  6-C , 21-H ) :   0.0757 
B(  7-C ,  8-C ) :   1.2513 B(  7-C ,  9-C ) :   0.2231 B(  7-C , 10-C ) :   0.1812 
B(  7-C , 11-C ) :   0.1812 B(  8-C ,  9-C ) :   1.6033 B(  8-C , 10-C ) :   1.1171 
B(  8-C , 11-C ) :   0.1483 B(  8-C , 17-H ) :   0.0977 B(  8-C , 18-H ) :   0.0757 
B(  8-C , 19-H ) :   0.0757 B(  9-C , 10-C ) :   0.1527 B(  9-C , 12-H ) :   0.0909 
B(  9-C , 17-H ) :   0.8318 B( 10-C , 11-C ) :   1.1316 B( 10-C , 18-H ) :   0.8517 
B( 10-C , 19-H ) :   0.8517 B( 10-C , 20-H ) :   0.0652 B( 10-C , 21-H ) :   0.0652 
B( 11-C , 18-H ) :   0.0652 B( 11-C , 19-H ) :   0.0652 B( 11-C , 20-H ) :   0.8517 
B( 11-C , 21-H ) :   0.8517 

------------------------------------------
LOEWDIN REDUCED ORBITAL POPULATIONS PER MO
-------------------------------------------
THRESHOLD FOR PRINTING IS 0.1%%
                      0         1         2         3         4         5   
                 -10.28172 -10.28128 -10.28127 -10.28107 -10.28095 -10.27637
                   2.00000   2.00000   2.00000   2.00000   2.00000   2.00000
                  --------  --------  --------  --------  --------  --------
 0 C  s               0.0       0.0       0.0       0.0       0.0      47.3
 1 C  s               0.1       0.0       0.0       0.0       0.0       0.3
 1 C  dxy             0.1       0.0       0.0       0.0       0.0       0.1
 2 C  s              98.4       0.0       0.0       0.0       0.0       0.0
 3 C  s               0.1       0.0       0.0       0.0       0.0       0.3
 3 C  dxy             0.1       0.0       0.0       0.0       0.0       0.1
 4 C  s               0.0       0.0       0.0       0.0       0.0      50.7
 5 C  s               0.0       0.1       0.0       0.0       0.0       0.1
 5 C  dx2y2           0.0       0.0       0.0       0.0       0.0       0.1
 6 C  s               0.0      43.5      32.4      15.7       6.8       0.0
 7 C  px              0.0       0.2       0.0       0.0       0.0       0.0
 7 C  py              0.1       0.0       0.1       0.0       0.0       0.0
 7 C  dx2y2           0.2       0.0       0.0       0.0       0.0       0.0
 7 C  dxy             0.0       0.3       0.0       0.0       0.1       0.0
 8 C  s               0.0      41.3      34.6      15.8       6.8       0.0
 9 C  s               0.0       0.1       0.0       0.0       0.0       0.1
 9 C  dx2y2           0.0       0.0       0.0       0.0       0.0       0.1
10 C  s               0.0       6.5      16.2      33.8      42.8       0.0
11 C  s               0.0       7.1      15.6      33.7      42.9       0.0

                      6         7         8         9        10        11   
                 -10.27636 -10.27212 -10.27211 -10.27177 -10.27176 -10.26752
                   2.00000   2.00000   2.00000   2.00000   2.00000   2.00000
                  --------  --------  --------  --------  --------  --------
 0 C  s              50.7       0.3       0.2       0.1       0.2       0.0
 0 C  dx2y2           0.0       0.0       0.0       0.1       0.1       0.0
 0 C  dxy             0.0       0.1       0.1       0.0       0.0       0.0
 1 C  s               0.3      49.1      48.8       0.1       0.2       0.0
 1 C  dxy             0.1       0.0       0.0       0.0       0.0       0.0
 2 C  s               0.0       0.0       0.2       0.0       0.0       0.0
 2 C  px              0.0       0.2       0.0       0.0       0.0       0.0
 2 C  py              0.0       0.0       0.0       0.0       0.0       0.1
 2 C  dz2             0.0       0.0       0.1       0.0       0.0       0.1
 2 C  dx2y2           0.0       0.0       0.2       0.0       0.0       0.2
 2 C  dxy             0.0       0.3       0.0       0.0       0.0       0.0
 3 C  s               0.2      48.9      49.0       0.1       0.2       0.0
 3 C  dxy             0.1       0.0       0.0       0.0       0.0       0.0
 4 C  s              47.3       0.3       0.2       0.2       0.1       0.0
 4 C  dx2y2           0.0       0.0       0.0       0.1       0.1       0.0
 4 C  dxy             0.0       0.1       0.1       0.0       0.0       0.0
 5 C  s               0.1       0.1       0.2      50.6      47.4       0.0
 6 C  dxy             0.0       0.0       0.0       0.1       0.1       0.2
 7 C  s               0.0       0.0       0.0       0.0       0.0      98.4
 8 C  dxy             0.0       0.0       0.0       0.1       0.1       0.2
 9 C  s               0.1       0.1       0.2      47.5      50.6       0.0
 9 C  dx2y2           0.1       0.0       0.0       0.0       0.0       0.0

                     12        13        14        15        16        17   
                  -1.02803  -0.95749  -0.95435  -0.87398  -0.86123  -0.85055
                   2.00000   2.00000   2.00000   2.00000   2.00000   2.00000
                  --------  --------  --------  --------  --------  --------
 0 C  s               2.8       9.0       3.3       5.6       4.1       2.6
 0 C  px              1.0       0.6       1.0       0.8       0.6       0.1
 0 C  py              0.3       0.7       0.3       2.6       2.8       1.2
 0 C  dz2             0.2       0.4       0.1       0.1       0.1       0.0
 0 C  dx2y2           0.0       0.1       0.1       0.7       0.2       0.0
 0 C  dxy             0.0       0.0       0.2       0.0       0.4       0.3
 1 C  s               3.6       4.2       7.4       0.8       6.8       4.0
 1 C  px              0.3       1.2       0.3       5.9       1.2       0.4
 1 C  py              1.3       1.1       0.5       0.1       0.1       0.2
 1 C  dz2             0.2       0.2       0.3       0.0       0.1       0.0
 1 C  dx2y2           0.0       0.0       0.2       0.1       0.0       0.2
 1 C  dxy             0.0       0.2       0.0       1.0       0.1       0.2
 2 C  s               8.6       0.0       9.1       8.8       0.0       0.0
 2 C  px              0.0       6.2       0.0       0.0       4.7       0.0
 2 C  py              1.3       0.0       1.1       0.1       0.0       7.0
 2 C  dz2             0.6       0.0       0.4       0.1       0.0       0.0
 2 C  dx2y2           0.0       0.0       0.5       0.1       0.0       1.5
 2 C  dxy             0.0       0.0       0.0       0.0       1.0       0.0
 2 C  f-3             0.1       0.0       0.1       0.1       0.0       0.0
 3 C  s               3.6       4.2       7.4       0.8       6.8       4.0
 3 C  px              0.3       1.2       0.3       5.8       1.2       0.4
 3 C  py              1.3       1.1       0.5       0.1       0.1       0.2
 3 C  dz2             0.2       0.2       0.3       0.0       0.1       0.0
 3 C  dx2y2           0.0       0.0       0.2       0.1       0.0       0.2
 3 C  dxy             0.0       0.2       0.0       1.0       0.1       0.2
 4 C  s               2.8       9.0       3.3       5.6       4.1       2.6
 4 C  px              1.0       0.6       1.0       0.8       0.6       0.1
 4 C  py              0.3       0.7       0.3       2.6       2.8       1.2
 4 C  dz2             0.2       0.4       0.1       0.1       0.1       0.0
 4 C  dx2y2           0.0       0.1       0.1       0.7       0.2       0.0
 4 C  dxy             0.0       0.0       0.2       0.0       0.4       0.3
 5 C  s               3.9       9.6       0.1      10.6       1.8       0.1
 5 C  px              1.7       0.7       0.1       0.2       1.0       0.7
 5 C  py              0.0       0.6       1.9       0.4       4.0       0.5
 5 C  dz2             0.2       0.4       0.0       0.2       0.0       0.0
 5 C  dx2y2           0.0       0.1       0.1       0.2       0.4       0.6
 5 C  dxy             0.0       0.0       0.2       0.1       0.4       0.0
 6 C  s               9.8       5.1       2.7       0.6       7.0       1.2
 6 C  px              1.1       1.9       1.2       5.5       0.9       0.5
 6 C  py              0.4       0.8       3.4       0.3       0.5       5.3
 6 C  dz2             0.6       0.2       0.1       0.0       0.1       0.0
 6 C  dx2y2           0.0       0.0       0.0       0.2       0.0       0.8
 6 C  dxy             0.0       0.2       0.1       0.7       0.0       0.9
 7 C  s              15.1       0.0       0.1       2.4       0.0       8.8
 7 C  px              0.0       7.5       0.0       0.0       3.0       0.0
 7 C  py              0.1       0.0       9.9       1.5       0.0       0.0
 7 C  dz2             1.1       0.0       0.0       0.0       0.0       0.1
 7 C  dx2y2           0.0       0.0       0.1       1.7       0.0       0.4
 7 C  dxy             0.0       0.1       0.0       0.0       2.0       0.0
 7 C  f-3             0.2       0.0       0.0       0.0       0.0       0.1
 8 C  s               9.8       5.1       2.7       0.6       7.0       1.2
 8 C  px              1.1       1.9       1.2       5.5       0.9       0.5
 8 C  py              0.4       0.8       3.4       0.3       0.5       5.3
 8 C  dz2             0.6       0.2       0.1       0.0       0.1       0.0
 8 C  dx2y2           0.0       0.0       0.0       0.2       0.0       0.8
 8 C  dxy             0.0       0.2       0.1       0.7       0.0       0.9
 9 C  s               3.9       9.6       0.1      10.6       1.8       0.1
 9 C  px              1.7       0.7       0.1       0.2       1.0       0.7
 9 C  py              0.0       0.6       1.9       0.4       4.0       0.5
 9 C  dz2             0.2       0.4       0.0       0.2       0.0       0.0
 9 C  dx2y2           0.0       0.1       0.1       0.2       0.4       0.6
 9 C  dxy             0.0       0.0       0.2       0.1       0.4       0.0
10 C  s               4.1       0.4       8.7       0.5       2.9       9.2
10 C  px              0.3       0.5       1.0       0.5       2.2       1.0
10 C  py              1.6       0.4       0.5       0.1       0.7       1.6
10 C  dz2             0.2       0.0       0.2       0.0       0.0       0.0
10 C  dx2y2           0.0       0.1       0.0       0.0       0.5       0.7
10 C  dxy             0.0       0.1       0.0       0.1       0.2       0.0
11 C  s               4.1       0.4       8.7       0.5       2.9       9.2
11 C  px              0.3       0.5       1.0       0.5       2.2       1.0
11 C  py              1.6       0.4       0.5       0.1       0.7       1.6
11 C  dz2             0.2       0.0       0.2       0.0       0.0       0.0
11 C  dx2y2           0.0       0.1       0.0       0.0       0.5       0.7
11 C  dxy             0.0       0.1       0.0       0.1       0.2       0.0
12 H  s               0.3       1.4       0.5       1.4       1.1       0.8
12 H  px              0.0       0.1       0.0       0.1       0.1       0.1
13 H  s               0.5       0.5       1.2       0.2       1.5       1.3
13 H  py              0.0       0.0       0.1       0.0       0.2       0.1
14 H  s               0.5       0.5       1.2       0.2       1.5       1.3
14 H  py              0.0       0.0       0.1       0.0       0.2       0.1
15 H  s               0.3       1.4       0.5       1.4       1.1       0.8
15 H  px              0.0       0.1       0.0       0.1       0.1       0.1
16 H  s               0.5       1.4       0.0       2.5       0.5       0.0
16 H  px              0.0       0.1       0.0       0.2       0.1       0.0
17 H  s               0.5       1.4       0.0       2.5       0.5       0.0
17 H  px              0.0       0.1       0.0       0.2       0.1       0.0
18 H  s               0.6       0.1       1.5       0.1       0.8       2.7
18 H  pz              0.0       0.0       0.1       0.0       0.1       0.2
19 H  s               0.6       0.1       1.5       0.1       0.8       2.7
19 H  pz              0.0       0.0       0.1       0.0       0.1       0.2
20 H  s               0.6       0.1       1.5       0.1       0.8       2.7
20 H  pz              0.0       0.0       0.1       0.0       0.1       0.2
21 H  s               0.6       0.1       1.5       0.1       0.8       2.7
21 H  pz              0.0       0.0       0.1       0.0       0.1       0.2

                     18        19        20        21        22        23   
                  -0.77547  -0.74028  -0.71914  -0.69675  -0.62823  -0.61575
                   2.00000   2.00000   2.00000   2.00000   2.00000   2.00000
                  --------  --------  --------  --------  --------  --------
 0 C  s               0.5       3.9       3.3       0.8       2.0       0.1
 0 C  px              2.3       0.1       3.9       0.6       0.3       8.2
 0 C  py              5.0       3.7       0.0       1.5       0.0       1.9
 0 C  dx2y2           0.5       0.1       0.0       0.1       0.2       0.0
 0 C  dxy             0.1       0.0       0.0       0.1       0.9       0.1
 1 C  s               4.6       0.1       0.7       3.1       2.4       0.2
 1 C  px              0.0       8.8       1.9       0.1       1.0       5.6
 1 C  py              0.2       0.0       0.1       5.6       3.6       0.9
 1 C  dx2y2           0.0       0.0       0.3       0.0       0.4       0.2
 1 C  dxy             0.1       0.4       0.2       0.1       0.2       0.1
 2 C  s               0.0       4.6       0.0       1.2       0.0       1.2
 2 C  px              5.3       0.0       5.5       0.0       1.3       0.0
 2 C  py              0.0       1.2       0.0      13.1       0.0       3.0
 2 C  dx2y2           0.0       0.0       0.0       0.2       0.0       0.5
[...]
10 C  py              0.4       0.6       0.0       0.1       0.3       0.3
10 C  dz2             0.1       0.0       0.0       0.0       0.1       0.0
10 C  dx2y2           0.9       0.9       0.1       0.0       0.8       0.9
10 C  dxy             0.1       0.2       0.1       0.1       0.2       0.0
10 C  f+1             0.1       0.1       0.0       0.0       0.0       0.0
10 C  f-1             0.1       0.0       0.1       0.1       0.0       0.0
10 C  f+3             0.0       0.6       0.1       0.1       0.2       0.2
10 C  f-3             0.3       0.8       0.0       0.0       0.0       0.9
11 C  s               0.6       0.2       0.0       0.0       0.4       0.1
11 C  px              0.0       0.0       0.0       0.1       0.1       0.1
11 C  py              0.4       0.6       0.0       0.1       0.3       0.3
11 C  dz2             0.1       0.0       0.0       0.0       0.1       0.0
11 C  dx2y2           0.9       0.9       0.1       0.0       0.8       0.9
11 C  dxy             0.1       0.2       0.1       0.1       0.2       0.0
11 C  f+1             0.1       0.1       0.0       0.0       0.0       0.0
11 C  f-1             0.1       0.0       0.1       0.1       0.0       0.0
11 C  f+3             0.0       0.6       0.1       0.1       0.2       0.2
11 C  f-3             0.3       0.8       0.0       0.0       0.0       0.9
12 H  s               0.1       0.5       0.1       0.0       0.4       0.0
12 H  px              0.0       0.1       0.0       0.0       0.0       0.0
13 H  s               0.2       0.1       0.0       0.0       0.5       0.1
13 H  px              0.0       0.1       0.0       0.0       0.0       0.0
14 H  s               0.2       0.1       0.0       0.0       0.5       0.1
14 H  px              0.0       0.1       0.0       0.0       0.0       0.0
15 H  s               0.1       0.5       0.1       0.0       0.4       0.0
15 H  px              0.0       0.1       0.0       0.0       0.0       0.0
16 H  s               0.1       0.1       0.0       0.0       0.4       0.0
17 H  s               0.1       0.1       0.0       0.0       0.4       0.0

                    420       421       422       423       424       425   
                  22.02028  22.62356  22.63280  22.67672  22.78489  22.81015
                   0.00000   0.00000   0.00000   0.00000   0.00000   0.00000
                  --------  --------  --------  --------  --------  --------
 0 C  s               9.0       0.5       4.3      19.9      34.9      17.7
 1 C  s               5.7       0.0      13.2      12.7       0.7      15.6
 1 C  px              0.0       0.0       0.0       0.2       0.1       0.1
 2 C  s               6.1       0.6       0.0       0.0       7.8       0.0
 2 C  px              0.0       0.0       0.3       0.5       0.0       0.1
 2 C  py              0.0       0.0       0.0       0.0       0.1       0.0
 2 C  dxy             0.0       0.0       0.1       0.2       0.0       0.1
 3 C  s               5.7       0.0      13.2      12.7       0.7      15.6
 3 C  px              0.0       0.0       0.0       0.2       0.1       0.1
 4 C  s               9.0       0.5       4.3      19.9      34.9      17.7
 5 C  s               8.3       9.7       7.8       3.2       5.8       7.6
 5 C  py              0.0       0.1       0.0       0.1       0.1       0.0
 6 C  s              12.1       0.2       0.1       0.1       2.5       1.0
 6 C  px              0.0       0.1       0.0       0.1       0.0       0.1
 6 C  py              0.0       0.2       0.1       0.0       0.0       0.0
 6 C  dx2y2           0.0       0.1       0.0       0.0       0.0       0.0
 7 C  s              17.6       0.1       0.0       0.0       2.2       0.0
 8 C  s              12.1       0.2       0.1       0.1       2.5       1.0
 8 C  px              0.0       0.1       0.0       0.1       0.0       0.1
 8 C  py              0.0       0.2       0.1       0.0       0.0       0.0
 8 C  dx2y2           0.0       0.1       0.0       0.0       0.0       0.0
 9 C  s               8.3       9.7       7.8       3.2       5.8       7.6
 9 C  py              0.0       0.1       0.0       0.1       0.1       0.0
10 C  s               2.6      38.2      23.8      12.7       0.3       7.2
11 C  s               2.6      38.1      23.8      12.7       0.3       7.2

                    426       427       428       429       430       431   
                  22.92584  22.94741  23.08786  23.27866  23.57765  23.93587
                   0.00000   0.00000   0.00000   0.00000   0.00000   0.00000
                  --------  --------  --------  --------  --------  --------
 0 C  s               2.3       6.5       1.4       0.3       0.4       0.8
 1 C  s              11.1       6.7      29.5       0.4       0.7       1.3
 2 C  s               0.2       0.0       0.8      63.6       0.0      19.2
 2 C  px              0.0       0.1       0.0       0.0       0.0       0.0
 2 C  py              0.0       0.0       0.4       0.2       0.0       0.0
 2 C  dx2y2           0.0       0.0       0.4       0.1       0.0       0.1
 3 C  s              11.1       6.7      29.5       0.4       0.7       1.3
 4 C  s               2.3       6.5       1.4       0.3       0.4       0.8
 5 C  s              19.6      30.0       3.6       1.2       0.1       0.8
 6 C  s               5.9       0.4       2.5      13.9      47.0      12.4
 6 C  px              0.2       0.2       0.1       0.0       0.1       0.0
 6 C  py              0.0       0.0       0.0       0.1       0.1       0.0
 6 C  dxy             0.1       0.1       0.0       0.1       0.1       0.1
 7 C  s               5.6       0.0      21.9       2.1       0.0      48.8
 7 C  px              0.0       0.3       0.0       0.0       0.8       0.0
 7 C  py              0.1       0.0       0.1       0.7       0.0       0.0
 7 C  dx2y2           0.0       0.0       0.0       0.6       0.0       0.0
 7 C  dxy             0.0       0.0       0.0       0.0       0.7       0.0
 8 C  s               5.9       0.4       2.5      13.9      47.0      12.4
 8 C  px              0.2       0.2       0.1       0.0       0.1       0.0
 8 C  py              0.0       0.0       0.0       0.1       0.1       0.0
 8 C  dxy             0.1       0.1       0.0       0.1       0.1       0.1
 9 C  s              19.6      30.0       3.6       1.2       0.1       0.8
10 C  s               7.3       5.3       0.6       0.0       0.3       0.0
11 C  s               7.3       5.3       0.6       0.0       0.3       0.0



                      *****************************
                      * MAYER POPULATION ANALYSIS *
                      *****************************

  NA   - Mulliken gross atomic population
  ZA   - Total nuclear charge
  QA   - Mulliken gross atomic charge
  VA   - Mayer's total valence
  BVA  - Mayer's bonded valence
  FA   - Mayer's free valence

  ATOM       NA         ZA         QA         VA         BVA        FA
  0 C      6.0690     6.0000    -0.0690     3.8912     3.8912    -0.0000
  1 C      6.2339     6.0000    -0.2339     3.9295     3.9295    -0.0000
  2 C      5.9126     6.0000     0.0874     3.8141     3.8141     0.0000
  3 C      6.2340     6.0000    -0.2340     3.9294     3.9294     0.0000
  4 C      6.0686     6.0000    -0.0686     3.8903     3.8903     0.0000
  5 C      6.2162     6.0000    -0.2162     3.9554     3.9554     0.0000
  6 C      6.0100     6.0000    -0.0100     3.8023     3.8023    -0.0000
  7 C      5.8739     6.0000     0.1261     3.5915     3.5915     0.0000
  8 C      6.0105     6.0000    -0.0105     3.8029     3.8029     0.0000
  9 C      6.2154     6.0000    -0.2154     3.9555     3.9555     0.0000
 10 C      6.1255     6.0000    -0.1255     3.9793     3.9793     0.0000
 11 C      6.1249     6.0000    -0.1249     3.9790     3.9790     0.0000
 12 H      0.8859     1.0000     0.1141     0.9688     0.9688     0.0000
 13 H      0.8895     1.0000     0.1105     0.9751     0.9751    -0.0000
 14 H      0.8895     1.0000     0.1105     0.9751     0.9751     0.0000
 15 H      0.8859     1.0000     0.1141     0.9688     0.9688     0.0000
 16 H      0.8874     1.0000     0.1126     0.9741     0.9741     0.0000
 17 H      0.8872     1.0000     0.1128     0.9740     0.9740     0.0000
 18 H      0.8950     1.0000     0.1050     0.9688     0.9688     0.0000
 19 H      0.8950     1.0000     0.1050     0.9688     0.9688     0.0000
 20 H      0.8950     1.0000     0.1050     0.9688     0.9688     0.0000
 21 H      0.8950     1.0000     0.1050     0.9688     0.9688     0.0000

  Mayer bond orders larger than 0.100000
B(  0-C ,  1-C ) :   1.5583 B(  0-C ,  9-C ) :   1.2673 B(  0-C , 12-H ) :   0.9834 
B(  1-C ,  2-C ) :   1.2314 B(  1-C , 13-H ) :   0.9862 B(  2-C ,  3-C ) :   1.2315 
B(  2-C ,  7-C ) :   1.2843 B(  3-C ,  4-C ) :   1.5582 B(  3-C , 14-H ) :   0.9862 
B(  4-C ,  5-C ) :   1.2669 B(  4-C , 15-H ) :   0.9834 B(  5-C ,  6-C ) :   1.5355 
B(  5-C , 16-H ) :   0.9847 B(  6-C ,  7-C ) :   1.1926 B(  6-C , 11-C ) :   1.0157 
B(  7-C ,  8-C ) :   1.1929 B(  8-C ,  9-C ) :   1.5360 B(  8-C , 10-C ) :   1.0154 
B(  9-C , 17-H ) :   0.9841 B( 10-C , 11-C ) :   1.0832 B( 10-C , 18-H ) :   0.9475 
B( 10-C , 19-H ) :   0.9475 B( 11-C , 20-H ) :   0.9474 B( 11-C , 21-H ) :   0.9473 


-------
TIMINGS
-------

Total SCF time: 0 days 0 hours 3 min 28 sec 

Total time                  ....     208.528 sec
Sum of individual times     ....     205.269 sec  ( 98.4%)

SCF preparation             ....       0.072 sec  (  0.0%)
Fock matrix formation       ....     204.284 sec  ( 98.0%)
  Startup                   ....       0.007 sec  (  0.0% of F)
  Split-RI-J                ....       8.058 sec  (  3.9% of F)
  Chain of spheres X        ....     184.034 sec  ( 90.1% of F)
  XC integration            ....      15.376 sec  (  7.5% of F)
    Basis function eval.    ....       3.306 sec  ( 21.5% of XC)
    Density eval.           ....       3.761 sec  ( 24.5% of XC)
    XC-Functional eval.     ....       3.441 sec  ( 22.4% of XC)
    XC-Potential eval.      ....       4.742 sec  ( 30.8% of XC)
Diagonalization             ....       0.000 sec  (  0.0%)
Density matrix formation    ....       0.027 sec  (  0.0%)
Total Energy calculation    ....       0.006 sec  (  0.0%)
Population analysis         ....       0.342 sec  (  0.2%)
Orbital Transformation      ....       0.057 sec  (  0.0%)
Orbital Orthonormalization  ....       0.000 sec  (  0.0%)
DIIS solution               ....       0.190 sec  (  0.1%)
  MO trafo                  ....       0.000 sec  (  0.0 % of DIIS)
  Orb grad                  ....       0.000 sec  (  0.0 % of DIIS)
  Energy W gradient         ....       0.000 sec  (  0.0 % of DIIS)
  DIIS error                ....       0.030 sec  ( 15.7 % of DIIS)
  DIIS work                 ....       0.131 sec  ( 68.9 % of DIIS)
  Form Q                    ....       0.000 sec  (  0.0 % of DIIS)
  Form QpQm                 ....       0.000 sec  (  0.0 % of DIIS)
  Exp/Cayley                ....       0.000 sec  (  0.0 % of DIIS)
  Orb update                ....       0.000 sec  (  0.0 % of DIIS)
  Wake-sleep                ....       0.001 sec  (  0.6 % of DIIS)
SOSCF solution              ....       0.099 sec  (  0.0%)
  MO trafo                  ....       0.058 sec  ( 59.1 % of SOSCF)
  Orb grad                  ....       0.000 sec  (  0.4 % of SOSCF)
  Rot update                ....       0.001 sec  (  1.4 % of SOSCF)
  Step                      ....       0.039 sec  ( 38.9 % of SOSCF)
Grid generation             ....       0.192 sec  (  0.1%)
Finished LeanSCF after 208.5 sec

Maximum memory used throughout the entire LEANSCF-calculation: 73.2 MB
------------------   -----------------
gCP correction             0.011392336
------------------   -----------------

-------------------------   --------------------
FINAL SINGLE POINT ENERGY      -463.334267836873
-------------------------   --------------------


------------------------------------------------------------------------------
                              ORCA PROPERTY CALCULATIONS
------------------------------------------------------------------------------

GBWName                                 ... sp.gbw
Number of atoms                         ...     22
Number of basis functions               ...    432
Max core memory                         ...   1024 MB

Electric properties:
Dipole moment                           ... YES
Quadrupole moment                       ...  NO
Static polarizability (Dipole/Dipole)   ...  NO
Static polarizability (Dipole/Quad.)    ...  NO
Static polarizability (Quad./Quad.)     ...  NO
Static polarizability (Velocity)        ...  NO

Atomic electric properties:
Dipole moment                           ...  NO
Quadrupole moment                       ...  NO
Static polarizability                   ...  NO

Choice of electric origin               ... Center of mass
Position of electric origin             ...     0.000002     0.002378     0.000003

General magnetic properties:
Magnetizability                         ...  NO

EPR properties:
g-Tensor (aka g-matrix)                 ...  NO
Zero-Field splitting spin-orbit         ...  NO
Zero-field splitting spin-spin          ...  NO
Hyperfine couplings                     ...  NO (   0 nuclei)
Quadrupole couplings                    ...  NO (   0 nuclei)
Contact density                         ...  NO (   0 nuclei)

NMR properties:
Chemical shifts                         ...  NO (   0 nuclei)
Spin-rotation constants                 ...  NO (   0 nuclei)
Spin-spin couplings                     ...  NO (   0 nuclei,    0 pairs)

Choice of magnetic origin               ... GIAO
Position of magnetic origin             ...     0.000000     0.000000     0.000000

Properties with geometric perturbations:
SCF Hessian                             ...  NO
IR spectrum                             ...  NO
VCD spectrum                            ...  NO
X-ray spectroscopy properties:
SCF XES/XAS/RIXS spectra                ...  NO


-------------
DIPOLE MOMENT
-------------

Method             : SCF
Type of density    : Electron Density
Multiplicity       :   1
Irrep              :   0
Energy             :  -463.3456601731728028 Eh
Relativity type    : 
Basis              : AO
                                X                 Y                 Z
Electronic contribution:      0.000004937       3.199934415       0.000007909
Nuclear contribution   :     -0.000008684      -3.566217831      -0.000008580
                        -----------------------------------------
Total Dipole Moment    :     -0.000003747      -0.366283416      -0.000000671
                        -----------------------------------------
Magnitude (a.u.)       :      0.366283416
Magnitude (Debye)      :      0.931018454



--------------------
Rotational spectrum 
--------------------
 
Rotational constants in cm-1:             0.047189             0.039956             0.021811 
Rotational constants in MHz :          1414.695214          1197.850371           653.863382 

Dipole components along the rotational axes: 
x,y,z [a.u.] :     0.000003    -0.366283    -0.000000 
x,y,z [Debye]:     0.000008    -0.931018    -0.000000 

 

Dipole moment calculation done in   0.0 sec 

Maximum memory used throughout the entire PROP-calculation: 48.2 MB

--------------------------------
SUGGESTED CITATIONS FOR THIS RUN
--------------------------------

Below you find a list of papers that are relevant to this ORCA run
We neither can nor want to force you to cite these papers, but we appreciate if you do
You receive ORCA, which is the product of decades of hard work by many enthusiastic individuals, for free
The only thing we kindly ask in return is that you cite our papers,
We deeply appreciate it, if you show your appreciation for ORCA by not just citing the generic ORCA reference.

Please note that relegating all ORCA citations to the supporting information does *not* help us.
SI sections are not indexed - citations you put there will not count into any citation statistics
But we need these citations in order to attract the funding resources that allow us to do what we are doing

Therefore, if you are a happy ORCA user, please consider citing a few of the papers listed below in the main body of your paper

In addition to the list printed below, the program has created the file sp.bibtex that contains the list in bibtex format
You can import this file easily into all common literature databanks and citation aid programs


List of essential papers. We consider these as the minimum necessary citations

  1. Neese,F.
     Software update: the ORCA program system, version 5.0
     WIRES Comput. Molec. Sci., 2022 12(1)e1606
     doi.org/10.1002/wcms.1606

List of papers to cite with high priority. The work reported in these papers was absolutely
necessary for this run to complete.
Our perspective: the developers of density functionals and basis sets usually get cited in chemistry papers
Good! But without the algorithms to do something with them, the functionals or basis sets would not do anything.
Hence, in our opinion, the algorithm design and method developments papers are equally worthy of getting cited

  1. Neese,F.
     An improvement of the resolution of the identity approximation for the formation of the Coulomb matrix
     J. Comp. Chem., 2003 24(14)1740-1747
     doi.org/10.1002/jcc.10318
  2. Neese,F.; Wennmohs,F.; Hansen,A.; Becker,U.
     Efficient, approximate and parallel Hartree-Fock and hybrid DFT calculations. A 'chain-of-spheres' algorithm for the Hartree-Fock exchange
     Chem. Phys., 2009 356(1-3)98-109
     doi.org/10.1016/j.chemphys.2008.10.036
  3. Helmich-Paris,B.; de Souza,B.; Neese,F.; Izsák,R.
     An improved chain of spheres for exchange algorithm
     J. Chem. Phys., 2021 155 104109
     doi.org/doi: 10.1063/5.0058766.
  4. Neese,F.
     The SHARK Integral Generation and Digestion System
     J. Comp. Chem., 2022  1-16
     doi.org/10.1002/jcc.26942

List of suggested additional citations. These are papers that are important in the 'surrounding' of 
of this run, or papers that preceded the highly important papers. If you like your results we are grateful for a citation.

  1. Izsak,R.; Neese,F.
     An overlap fitted chain of spheres exchange method
     J. Chem. Phys., 2011 135 144105
     doi.org/10.1063/1.3646921
  2. Izsak,R.; Hansen,A.; Neese,F.
     The resolution of identity and chain of spheres approximations for the LPNO-CCSD singles Fock term
     Molec. Phys., 2012 110 2413-2417
     doi.org/10.1080/00268976.2012.687466
  3. Neese,F.
     The ORCA program system
     WIRES Comput. Molec. Sci., 2012 2(1)73-78
     doi.org/10.1002/wcms.81
  4. Izsak,R.; Neese,F.; Klopper,W.
     Robust fitting techniques in the chain of spheres approximation to the Fock exchange: The role of the complementary space
     J. Chem. Phys., 2013 139 
     doi.org/10.1063/1.4819264
  5. Neese,F.
     Software update: the ORCA program system, version 4.0
     WIRES Comput. Molec. Sci., 2018 8(1)1-6
     doi.org/10.1002/wcms.1327
  6. Neese,F.; Wennmohs,F.; Becker,U.; Riplinger,C.
     The ORCA quantum chemistry program package
     J. Chem. Phys., 2020 152 Art. No. L224108
     doi.org/10.1063/5.0004608

List of optional additional citations

  1. Neese,F.
     Approximate second-order SCF convergence for spin unrestricted wavefunctions
     Chem. Phys. Lett., 2000 325(1-3)93-98
     doi.org/10.1016/s0009-2614(00)00662-x

Timings for individual modules:

Sum of individual times          ...      210.826 sec (=   3.514 min)
Startup calculation              ...        2.092 sec (=   0.035 min)   1.0 %
SCF iterations                   ...      208.675 sec (=   3.478 min)  99.0 %
Property calculations            ...        0.058 sec (=   0.001 min)   0.0 %
                             ****ORCA TERMINATED NORMALLY****
TOTAL RUN TIME: 0 days 0 hours 3 minutes 30 seconds 881 msec
