
                                 *****************
                                 * O   R   C   A *
                                 *****************

                                            #,                                       
                                            ###                                      
                                            ####                                     
                                            #####                                    
                                            ######                                   
                                           ########,                                 
                                     ,,################,,,,,                         
                               ,,#################################,,                 
                          ,,##########################################,,             
                       ,#########################################, ''#####,          
                    ,#############################################,,   '####,        
                  ,##################################################,,,,####,       
                ,###########''''           ''''###############################       
              ,#####''   ,,,,##########,,,,          '''####'''          '####       
            ,##' ,,,,###########################,,,                        '##       
           ' ,,###''''                  '''############,,,                           
         ,,##''                                '''############,,,,        ,,,,,,###''
      ,#''                                            '''#######################'''  
     '                                                          ''''####''''         
             ,#######,   #######,   ,#######,      ##                                
            ,#'     '#,  ##    ##  ,#'     '#,    #''#        ,####,   ,####,        
            ##       ##  ##   ,#'  ##            #'  '#       #'       #'  '#        
            ##       ##  #######   ##           ,######,      #####,   #    #        
            '#,     ,#'  ##    ##  '#,     ,#' ,#      #,     #,   #   #,  ,#        
             '#######'   ##     ##  '#######'  #'      '#     '####' # '####'        



                #########################################################
                #                        -***-                          #
                #          Department of theory and spectroscopy        #
                #                                                       #
                #                      Frank Neese                      #
                #                                                       #
                #     Directorship, Architecture, Infrastructure        #
                #                    SHARK, DRIVERS                     #
                #        Core code/Algorithms in most modules           #
                #                                                       #
                #        Max Planck Institute fuer Kohlenforschung      #
                #                Kaiser Wilhelm Platz 1                 #
                #                 D-45470 Muelheim/Ruhr                 #
                #                      Germany                          #
                #                                                       #
                #                  All rights reserved                  #
                #                        -***-                          #
                #########################################################


                         Program Version 6.0.1  -  RELEASE   -


 With contributions from (in alphabetic order):
[Max-Planck-Institut fuer Kohlenforschung]                               
  Daniel Aravena         : Magnetic Suceptibility                        
  Michael Atanasov       : Ab Initio Ligand Field Theory (pilot matlab implementation)
  Alexander A. Auer      : GIAO ZORA, VPT2 properties, NMR spectrum      
  Ute Becker             : All parallelization in ORCA, NUMFREQ, NUMCALC 
  Giovanni Bistoni       : ED, misc. LED, open-shell LED, HFLD           
  Martin Brehm           : Molecular dynamics                            
  Dmytro Bykov           : pre 5.0 version of the SCF Hessian            
  Marcos Casanova-Páez   : Triplet and SCS-CIS(D). UHF-(DLPNO)-IP/EA/STEOM-CCSD. UHF-CVS-IP/STEOM-CCSD   
  Vijay G. Chilkuri      : MRCI spin determinant printing, contributions to CSF-ICE 
  Pauline Colinet        : FMM embedding                                 
  Dipayan Datta          : RHF DLPNO-CCSD density                        
  Achintya Kumar Dutta   : EOM-CC, STEOM-CC                              
  Nicolas Foglia         : Exact transition moments, OPA infrastructure, MCD improvements    
  Dmitry Ganyushin       : Spin-Orbit,Spin-Spin,Magnetic field MRCI      
  Miquel Garcia-Rates    : C-PCM and meta-GGA Hessian, CCSD/C-PCM, Gaussian charge scheme 
  Tiago L. C. Gouveia    : GS-ROHF, GS-ROCIS                             
  Yang Guo               : DLPNO-NEVPT2, F12-NEVPT2, CIM, IAO-localization        
  Andreas Hansen         : Spin unrestricted coupled pair/coupled cluster methods 
  Ingolf Harden          : AUTO-CI MPn and infrastructure                
  Benjamin Helmich-Paris : MC-RPA, TRAH-(SCF,CASSCF), AVAS, COSX integrals, SCF dyn. polar. 
  Lee Huntington         : MR-EOM, pCC                                   
  Robert Izsak           : Overlap fitted RIJCOSX, COSX-SCS-MP3, EOM     
  Riya Kayal             : Wick's Theorem for AUTO-CI, AUTO-CI UHF-CCSDT 
  Emily Kempfer          : AUTO-CI, RHF CISDT and CCSDT                  
  Christian Kollmar      : KDIIS, OOCD, Brueckner-CCSD(T), CCSD density, CASPT2, CASPT2-K, improved NEVPT2 
  Axel Koslowski         : Symmetry handling                             
  Simone Kossmann        : meta-GGA functionals, TD-DFT gradient, OOMP2, (MP2 Hessian; deprecated post 5.0) 
  Lucas Lang             : DCDCAS                                        
  Marvin Lechner         : AUTO-CI (C++ implementation), FIC-MRCC        
  Spencer Leger          : CASSCF response                               
  Dagmar Lenk            : GEPOL surface, SMD, ORCA-2-JSON               
  Dimitrios Liakos       : Extrapolation schemes; Compound Job, initial MDCI parallelization 
  Dimitrios Manganas     : Further ROCIS development; embedding schemes. LFT, Crystal Embedding 
  Dimitrios Pantazis     : SARC Basis sets                               
  Anastasios Papadopoulos: AUTO-CI, single reference methods and gradients 
  Taras Petrenko         : pre 6.0 DFT Hessian and TD-DFT gradient, (ASA, deprecated), ECA, 1-Electron XAS/XES, NRVS 
  Peter Pinski           : DLPNO-MP2, DLPNO-MP2 Gradient                 
  Christoph Reimann      : Effective Core Potentials                     
  Marius Retegan         : Local ZFS, SOC                                
  Christoph Riplinger    : Optimizer, TS searches, QM/MM, DLPNO-CCSD(T), (RO)-DLPNO pert. Triples 
  Michael Roemelt        : Original ROCIS implementation                 
  Masaaki Saitow         : Open-shell DLPNO-CCSD energy and density      
  Barbara Sandhoefer     : DKH picture change effects                    
  Kantharuban Sivalingam : CASSCF convergence/infrastructure, NEVPT2 and variants, FIC-MRCI 
  Bernardo de Souza      : ESD, SOC TD-DFT                               
  Georgi L. Stoychev     : AutoAux, RI-MP2 NMR, DLPNO-MP2 response, X2C  
  Van Anh Tran           : RI-MP2 g-tensors                              
  Willem Van den Heuvel  : Paramagnetic NMR                              
  Zikuan Wang            : NOTCH, Electric field optimization            
  Frank Wennmohs         : Technical directorship and infrastructure     
  Hang Xu                : AUTO-CI-Response properties                   
                                                                         
[FACCTs GmbH]                                                            
  Markus Bursch, Miquel Garcia-Rates, Christoph Riplinger, Bernardo de Souza, Georgi L. Stoychev 
                                                                 
  APM, Basis sets (HGBS, AHGBS, def-TZVP (Ac-Lr), def2-XVPD (La-Lu)), CI-OPT, improved COSX, DLPNO-Multilevel,           
  DOCKER, DRACO, updates on ESD, GOAT, IRC, LR-CPCM, MBIS, meta-GGA TD-DFT gradient, ML-optimized integration grids, 
  MM, NACMEs, nearIR, NEB, NEB-TS, NL-DFT gradient (VV10), 2- and 3-layer-ONIOM, interface openCOSMO-RS, QMMM,   
  Crystal-QMMM, SF, symmetry and pop. for TD-DFT, r2SCAN hybrids, SOLVATOR                                   
                                                                         
[Other institutions]                                                     
  V. Asgeirsson          : NEB                                           
  Christoph Bannwarth    : sTDA-DFT, sTD-DFT, PBEh-3c, B97-3c, D3        
  Sebastian Ehlert       : rSCAN, r2SCAN, r2SCAN-3c, D4, dhf basis sets  
  Marvin Friede          : D4 for Fr, Ra, Ac-Lr                          
  Lars Goerigk           : TD-DFT with DH, B97 family of functionals     
  Stefan Grimme          : VdW corrections, initial TS optimization, DFT functionals, gCP, sTDA/sTD-DF 
  Waldemar Hujo          : DFT-NL                                        
  H. Jonsson             : NEB                                           
  Holger Kruse           : gCP                                           
  Marcel Mueller         : wB97X-3c, vDZP basis set                      
  Hagen Neugebauer       : wr2SCAN                                       
  Tobias Risthaus        : range-separated hybrid DFT                    
  Lukas Wittmann         : regularized MP2, r2SCAN double-hybrids, wr2SCAN        
                                                                         
We gratefully acknowledge several colleagues who have allowed us to      
interface, adapt or use parts of their codes:                            
  Ed Valeev, F. Pavosevic, A. Kumar             : LibInt (2-el integral package), F12 methods 
  Garnet Chan, S. Sharma, J. Yang, R. Olivares  : DMRG                   
  Ulf Ekstrom                                   : XCFun DFT Library      
  Mihaly Kallay                                 : mrcc  (arbitrary order and MRCC methods)
  Frank Weinhold                                : gennbo (NPA and NBO analysis)           
  Simon Mueller                                 : openCOSMO-RS                            
  Christopher J. Cramer and Donald G. Truhlar   : smd solvation model                     
  S Lehtola, MJT Oliveira, MAL Marques          : LibXC Library                           
  Liviu Ungur et al                             : ANISO software                          


 Your calculation uses the libint2 library for the computation of 2-el integrals
 For citations please refer to: http://libint.valeyev.net

 Your ORCA version has been built with support for libXC version: 6.2.2
 For citations please refer to: https://libxc.gitlab.io

 This ORCA versions uses:
   CBLAS   interface :  Fast vector & matrix operations
   LAPACKE interface :  Fast linear algebra routines
   SCALAPACK package :  Parallel linear algebra routines
   Shared memory     :  Shared parallel matrices
   BLAS/LAPACK       :  OpenBLAS 0.3.27  USE64BITINT DYNAMIC_ARCH NO_AFFINITY Zen SINGLE_THREADED
        Core in use  :  Zen
   Copyright (c) 2011-2014, The OpenBLAS Project


Your calculation utilizes the geometrical counterpoise correction gCP
Please cite in your paper:
H.Kruse, S. Grimme J.Chem.Phys., 136, (2012), 154101 
   

Your calculation utilizes the atom-pairwise dispersion correction
based on EEQ partial charges (D4)


================================================================================

----- Orbital basis set information -----
Your calculation utilizes the basis: def2-mTZVPP
   Stefan Grimme, Andreas Hansen, Sebastian Ehlert, and Jan-Michael Mewes 
   J. Chem. Phys. 154, 064103 (2021). DOI: 10.1063/5.0040021

----- AuxJ basis set information -----
Your calculation utilizes the auxiliary basis: def2/J
   F. Weigend, Phys. Chem. Chem. Phys. 8, 1057 (2006).

================================================================================
                                        WARNINGS
                       Please study these warnings very carefully!
================================================================================

WARNING: Old DensityContainer found on disk!
         Will remove this file - 
         If you want to keep old densities, please start your calculation with a different basename. 



WARNING: SCAN, rSCAN, or r2SCAN functional requested.
  ===> : libXC variant has now been activated.



================================================================================
                                       INPUT FILE
================================================================================
NAME = sp.inp
|  1> ! r2scan-3c def2/J RI DEFGRID2 scfconv6 printgap
|  2> %output
|  3>     printlevel normal
|  4> end
|  5> * xyz 0 1
|  6> C -2.2240957684 0.3411048677 -0.6537048844
|  7> C -1.3060920638 0.4816618121 0.5617720483
|  8> C 0.0032102082 -0.2184876555 0.2813636392
|  9> O 0.1738154988 -1.4077525195 0.3239617265
| 10> O 0.9526475894 0.6658765137 -0.047853742
| 11> C 2.2403352267 0.1655037338 -0.3843148542
| 12> H -1.7820037565 0.8240208143 -1.5220822587
| 13> H -2.3826898471 -0.7100431709 -0.8819097117
| 14> H -3.186140711 0.8046219948 -0.4505989021
| 15> H -1.7702399287 0.0082536526 1.4275616611
| 16> H -1.1126038175 1.5326638714 0.7734002722
| 17> H 2.3095785999 -0.8904406701 -0.1163398453
| 18> H 2.9771934921 0.7483720859 0.166557662
| 19> H 2.3981692886 0.2856968326 -1.4571204274
| 20> *
| 21> 
| 22>                          ****END OF INPUT****
================================================================================

                       ****************************
                       * Single Point Calculation *
                       ****************************

---------------------------------
CARTESIAN COORDINATES (ANGSTROEM)
---------------------------------
  C     -2.224096    0.341105   -0.653705
  C     -1.306092    0.481662    0.561772
  C      0.003210   -0.218488    0.281364
  O      0.173815   -1.407753    0.323962
  O      0.952648    0.665877   -0.047854
  C      2.240335    0.165504   -0.384315
  H     -1.782004    0.824021   -1.522082
  H     -2.382690   -0.710043   -0.881910
  H     -3.186141    0.804622   -0.450599
  H     -1.770240    0.008254    1.427562
  H     -1.112604    1.532664    0.773400
  H      2.309579   -0.890441   -0.116340
  H      2.977193    0.748372    0.166558
  H      2.398169    0.285697   -1.457120

----------------------------
CARTESIAN COORDINATES (A.U.)
----------------------------
  NO LB      ZA    FRAG     MASS         X           Y           Z
   0 C     6.0000    0    12.011   -4.202932    0.644595   -1.235323
   1 C     6.0000    0    12.011   -2.468156    0.910209    1.061595
   2 C     6.0000    0    12.011    0.006066   -0.412882    0.531700
   3 O     8.0000    0    15.999    0.328464   -2.660267    0.612199
   4 O     8.0000    0    15.999    1.800243    1.258324   -0.090430
   5 C     6.0000    0    12.011    4.233620    0.312757   -0.726250
   6 H     1.0000    0     1.008   -3.367499    1.557174   -2.876319
   7 H     1.0000    0     1.008   -4.502631   -1.341787   -1.666568
   8 H     1.0000    0     1.008   -6.020933    1.520515   -0.851509
   9 H     1.0000    0     1.008   -3.345269    0.015597    2.697701
  10 H     1.0000    0     1.008   -2.102517    2.896315    1.461515
  11 H     1.0000    0     1.008    4.364471   -1.682689   -0.219850
  12 H     1.0000    0     1.008    5.626080    1.414218    0.314748
  13 H     1.0000    0     1.008    4.531883    0.539889   -2.753559

--------------------------------
INTERNAL COORDINATES (ANGSTROEM)
--------------------------------
 C      0   0   0     0.000000000000     0.00000000     0.00000000
 C      1   0   0     1.529663763774     0.00000000     0.00000000
 C      2   1   0     1.510996556031   109.26796167     0.00000000
 O      3   2   1     1.202194526259   125.08413241   282.50404814
 O      3   2   1     1.338624446463   110.73847492   101.37292131
 C      5   3   2     1.421871460485   117.90683869   181.91871523
 H      1   2   3     1.087535021350   110.46990145   297.62498440
 H      1   2   3     1.087263410611   110.06908058    57.70171654
 H      1   2   3     1.087028352318   110.08922962   177.63927405
 H      2   1   3     1.090477042218   109.60592926   241.39652618
 H      2   1   3     1.089417062130   110.46247458   120.17455166
 H      6   5   3     1.091615240941   109.86274665   348.16547037
 H      6   5   3     1.089107959879   107.73991790   227.70344739
 H      6   5   3     1.090994853326   108.96164126   108.49697730

---------------------------
INTERNAL COORDINATES (A.U.)
---------------------------
 C      0   0   0     0.000000000000     0.00000000     0.00000000
 C      1   0   0     2.890645590517     0.00000000     0.00000000
 C      2   1   0     2.855369680198   109.26796167     0.00000000
 O      3   2   1     2.271818414329   125.08413241   282.50404814
 O      3   2   1     2.529633599987   110.73847492   101.37292131
 C      5   3   2     2.686947657956   117.90683869   181.91871523
 H      1   2   3     2.055143351400   110.46990145   297.62498440
 H      1   2   3     2.054630081489   110.06908058    57.70171654
 H      1   2   3     2.054185885689   110.08922962   177.63927405
 H      2   1   3     2.060702965121   109.60592926   241.39652618
 H      2   1   3     2.058699893047   110.46247458   120.17455166
 H      6   5   3     2.062853848993   109.86274665   348.16547037
 H      6   5   3     2.058115774446   107.73991790   227.70344739
 H      6   5   3     2.061681486304   108.96164126   108.49697730

---------------------
BASIS SET INFORMATION
---------------------
There are 3 groups of distinct atoms

 Group   1 Type C   : 11s6p1d contracted to 5s3p1d pattern {62111/411/1}
 Group   2 Type O   : 11s6p2d contracted to 5s3p2d pattern {62111/411/11}
 Group   3 Type H   : 4s1p contracted to 2s1p pattern {31/1}

Atom   0C    basis set group =>   1
Atom   1C    basis set group =>   1
Atom   2C    basis set group =>   1
Atom   3O    basis set group =>   2
Atom   4O    basis set group =>   2
Atom   5C    basis set group =>   1
Atom   6H    basis set group =>   3
Atom   7H    basis set group =>   3
Atom   8H    basis set group =>   3
Atom   9H    basis set group =>   3
Atom  10H    basis set group =>   3
Atom  11H    basis set group =>   3
Atom  12H    basis set group =>   3
Atom  13H    basis set group =>   3
---------------------------------
AUXILIARY/J BASIS SET INFORMATION
---------------------------------
There are 3 groups of distinct atoms

 Group   1 Type C   : 12s5p4d2f1g contracted to 6s4p3d1f1g pattern {711111/2111/211/2/1}
 Group   2 Type O   : 12s5p4d2f1g contracted to 6s4p3d1f1g pattern {711111/2111/211/2/1}
 Group   3 Type H   : 5s2p1d contracted to 3s1p1d pattern {311/2/1}

Atom   0C    basis set group =>   1
Atom   1C    basis set group =>   1
Atom   2C    basis set group =>   1
Atom   3O    basis set group =>   2
Atom   4O    basis set group =>   2
Atom   5C    basis set group =>   1
Atom   6H    basis set group =>   3
Atom   7H    basis set group =>   3
Atom   8H    basis set group =>   3
Atom   9H    basis set group =>   3
Atom  10H    basis set group =>   3
Atom  11H    basis set group =>   3
Atom  12H    basis set group =>   3
Atom  13H    basis set group =>   3

Checking for AutoStart:
The File: sp.gbw exists
Trying to determine its content:
     ... Fine, the file contains calculation information
     ... Fine, the calculation information was read
     ... Fine, the file contains a basis set
     ... Fine, the basis set was read
     ... Fine, the file contains a geometry
     ... Fine, the geometry was read
     ... Fine, the file contains a set of orbitals
     ... Fine, the orbitals can be read
     => possible old guess file was deleted
     => GBW file was renamed to GES file
     => GES file is set as startup file
     => Guess is set to MORead
     ... now leaving AutoStart

------------------------------------------------------------------------------
                             ORCA STARTUP CALCULATIONS
                           -- RI-GTO INTEGRALS CHOSEN --
------------------------------------------------------------------------------
------------------------------------------------------------------------------
                   ___                                                        
                  /   \      - P O W E R E D   B Y -                         
                 /     \                                                     
                 |  |  |   _    _      __       _____    __    __             
                 |  |  |  | |  | |    /  \     |  _  \  |  |  /  |          
                  \  \/   | |  | |   /    \    | | | |  |  | /  /          
                 / \  \   | |__| |  /  /\  \   | |_| |  |  |/  /          
                |  |  |   |  __  | /  /__\  \  |    /   |      \           
                |  |  |   | |  | | |   __   |  |    \   |  |\   \          
                \     /   | |  | | |  |  |  |  | |\  \  |  | \   \       
                 \___/    |_|  |_| |__|  |__|  |_| \__\ |__|  \__/        
                                                                              
                      - O R C A' S   B I G   F R I E N D -                    
                                      &                                       
                       - I N T E G R A L  F E E D E R -                       
                                                                              
 v1 FN, 2020, v2 2021, v3 2022-2024                                           
------------------------------------------------------------------------------


----------------------
SHARK INTEGRAL PACKAGE
----------------------

Number of atoms                             ...     14
Number of basis functions                   ...    164
Number of shells                            ...     80
Maximum angular momentum                    ...      2
Integral batch strategy                     ... SHARK/LIBINT Hybrid
RI-J (if used) integral strategy            ... SPLIT-RIJ (Revised 2003 algorithm where possible)
Printlevel                                  ...      1
Contraction scheme used                     ... SEGMENTED contraction
Prescreening option                         ... SCHWARTZ
   Thresh                                   ... 1.000e-10
   Tcut                                     ... 1.000e-11
   Tpresel                                  ... 1.000e-11 
Coulomb Range Separation                    ... NOT USED
Exchange Range Separation                   ... NOT USED
Multipole approximations                    ... NOT USED
Finite Nucleus Model                        ... NOT USED
CABS basis                                  ... NOT available
Auxiliary Coulomb fitting basis             ... AVAILABLE
   # of basis functions in Aux-J            ...    382
   # of shells in Aux-J                     ...    130
   Maximum angular momentum in Aux-J        ...      4
Auxiliary J/K fitting basis                 ... NOT available
Auxiliary Correlation fitting basis         ... NOT available
Auxiliary 'external' fitting basis          ... NOT available

Checking pre-screening integrals            ... done (  0.0 sec) Dimension = 80
Check shell pair data                       ... done (  0.0 sec)
Shell pair information
Shell pair cut-off parameter TPreSel        ...   1.0e-11
Total number of shell pairs                 ...      3240
Shell pairs after pre-screening             ...      2986
Total number of primitive shell pairs       ...     11481
Primitive shell pairs kept                  ...      7807
          la=0 lb=0:    978 shell pairs
          la=1 lb=0:   1097 shell pairs
          la=1 lb=1:    325 shell pairs
          la=2 lb=0:    350 shell pairs
          la=2 lb=1:    200 shell pairs
          la=2 lb=2:     36 shell pairs

Calculating one electron integrals          ... done (  0.0 sec)
Calculating RI/J V-Matrix + Cholesky decomp.... done (  0.0 sec)
Calculating Nuclear repulsion               ... done (  0.0 sec) ENN=    246.787689678852 Eh

Diagonalization of the overlap matrix:
Smallest eigenvalue                        ... 2.696e-04
Time for diagonalization                   ...    0.003 sec
Threshold for overlap eigenvalues          ... 1.000e-07
Number of eigenvalues below threshold      ... 0
Time for construction of square roots      ...    0.001 sec
Total time needed                          ...    0.006 sec

-------------------
DFT GRID GENERATION
-------------------

General Integration Accuracy     IntAcc      ... 4.388
Radial Grid Type                 RadialGrid  ... OptM3 with GC (2021)
Angular Grid (max. ang.)         AngularGrid ... 4 (Lebedev-302)
Angular grid pruning method      GridPruning ... 4 (adaptive)
Weight generation scheme         WeightScheme... mBecke (2022)
Basis function cutoff            BFCut       ... 1.0000e-10
Integration weight cutoff        WCut        ... 1.0000e-14
Partially contracted basis set               ... off
Rotationally invariant grid construction     ... off
Angular grids for H and He will be reduced by one unit
Diffuse basis detected: some atoms will have their outermost
                        angular grid increased by 1.

Total number of grid points                  ...    62776
Total number of batches                      ...      988
Average number of points per batch           ...       63
Average number of grid points per atom       ...     4484
Initializing property integral containers    ... done (  0.0 sec)

SHARK setup successfully completed in   0.6 seconds

Maximum memory used throughout the entire STARTUP-calculation: 28.5 MB
-------------------------------------------------------------------------------
                                 ORCA GUESS
                   Start orbitals & Density for SCF / CASSCF
-------------------------------------------------------------------------------

------------
SCF SETTINGS
------------
Hamiltonian:
 Density Functional     Method          .... DFT(GTOs)
  Functional kind                       .... Exchange
  Functional name                       .... Re-regularized SCAN exchange by Furness et al
  Functional family                     .... MGGA
  Functional refs                              
    [ 0] J. W. Furness, A. D. Kaplan, J. Ning, J. P. Perdew, and J. Sun.,  J. Phys. Chem. Lett. 11, 8208-8215 (2020), doi: 10.1021/acs.jpclett.0c02405
    [ 1] J. W. Furness, A. D. Kaplan, J. Ning, J. P. Perdew, and J. Sun.,  J. Phys. Chem. Lett. 11, 9248-9248 (2020), doi: 10.1021/acs.jpclett.0c03077
  Functional external parameters        .... 6
    Parameter  0 _c1        =  6.670000e-01 : c1 parameter        
    Parameter  1 _c2        =  8.000000e-01 : c2 parameter        
    Parameter  2 _d         =  1.240000e+00 : d parameter         
    Parameter  3 _k1        =  6.500000e-02 : k1 parameter        
    Parameter  4 _eta       =  1.000000e-03 : eta parameter       
    Parameter  5 _dp2       =  3.610000e-01 : dp2 parameter       
  Functional kind                       .... Correlation
  Functional name                       .... Re-regularized SCAN correlation by Furness et al
  Functional family                     .... MGGA
  Functional refs                              
    [ 0] J. W. Furness, A. D. Kaplan, J. Ning, J. P. Perdew, and J. Sun.,  J. Phys. Chem. Lett. 11, 8208-8215 (2020), doi: 10.1021/acs.jpclett.0c02405
    [ 1] J. W. Furness, A. D. Kaplan, J. Ning, J. P. Perdew, and J. Sun.,  J. Phys. Chem. Lett. 11, 9248-9248 (2020), doi: 10.1021/acs.jpclett.0c03077
  Functional external parameters        .... 1
    Parameter  0 _eta       =  1.000000e-03 : Regularization parameter
 Gradients option       PostSCFGGA      .... off
 RI-approximation to the Coulomb term is turned on
   Number of AuxJ basis functions       .... 382


General Settings:
 Integral files         IntName         .... sp
 Hartree-Fock type      HFTyp           .... RHF
 Total Charge           Charge          ....    0
 Multiplicity           Mult            ....    1
 Number of Electrons    NEL             ....   48
 Basis Dimension        Dim             ....  164
 Nuclear Repulsion      ENuc            ....    246.7876896789 Eh

Convergence Acceleration:
 AO-DIIS                CNVDIIS         .... on
   Start iteration      DIISMaxIt       ....    12
   Startup error        DIISStart       ....  0.200000
   # of expansion vecs  DIISMaxEq       ....     5
   Bias factor          DIISBfac        ....   1.050
   Max. coefficient     DIISMaxC        ....  10.000
 MO-DIIS                CNVKDIIS        .... off
 Trust-Rad. Augm. Hess. CNVTRAH         .... auto
   Auto Start mean grad. ratio tolernc. ....  1.125000
   Auto Start start iteration           ....     1
   Auto Start num. interpolation iter.  ....    10
   Max. Number of Micro iterations      ....    24
   Max. Number of Macro iterations      .... Maxiter - #DIIS iter
   Number of Davidson start vectors     ....     2
   Converg. threshold    (grad. norm)   ....   3.330e-04
   Grad. Scal. Fac. for Micro threshold ....   0.100
   Minimum threshold for Micro iter.    ....   1.000e-02
   NR start threshold (gradient norm)   ....   1.000e-04
   Initial trust radius                 ....   0.400
   Minimum AH scaling param. (alpha)    ....   1.000
   Maximum AH scaling param. (alpha)    .... 1000.000
   Quad. conv. algorithm                .... NR
   White noise on init. David. guess    .... on
   Maximum white noise                  ....   0.010
   Pseudo random numbers                .... off
   Inactive MOs                         .... canonical
   Orbital update algorithm             .... Taylor
   Preconditioner                       .... Diag
   Full preconditioner red. dimension   ....   250
   COSX micro iterations for RIJONX calc.... off
 SOSCF                  CNVSOSCF        .... on
   Start iteration      SOSCFMaxIt      ....   150
   Startup grad/error   SOSCFStart      ....  0.003300
   Hessian update       SOSCFHessUp     .... L-BFGS
 Level Shifting         CNVShift        .... on
   Level shift para.    LevelShift      ....    0.2500
   Turn off err/grad.   ShiftErr        ....    0.0010
 Zerner damping         CNVZerner       .... off
 Static damping         CNVDamp         .... on
   Fraction old density DampFac         ....    0.7000
   Max. Damping (<1)    DampMax         ....    0.9800
   Min. Damping (>=0)   DampMin         ....    0.0000
   Turn off err/grad.   DampErr         ....    0.1000

SCF Procedure:
 Maximum # iterations   MaxIter         ....   125
 SCF integral mode      SCFMode         .... Direct
   Integral package                     .... SHARK and LIBINT hybrid scheme
 Reset frequency        DirectResetFreq ....    20
 Integral Threshold     Thresh          ....  1.000e-10 Eh
 Primitive CutOff       TCut            ....  1.000e-11 Eh

Convergence Tolerance:
 Convergence Check Mode ConvCheckMode   .... Total+1el-Energy
 Convergence forced     ConvForced      .... 0
 Energy Change          TolE            ....  1.000e-06 Eh
 1-El. energy change                    ....  1.000e-03 Eh
 Orbital Gradient       TolG            ....  3.330e-04
 Orbital Rotation angle TolX            ....  3.330e-04
 DIIS Error             TolErr          ....  1.000e-06

---------------------
INITIAL GUESS: MOREAD
---------------------
Guess MOs are being read from file: sp.ges
Input Geometry matches current geometry (good)
Atom 0: N(Shells)= 9 and 6 - projection required
Input basis set needs projection
NBasis(read)= 100
NBasis(calc)= 164
Basis set overlap was calculated
Using GuessMode=FMatrix for the initial guess
C*T matrix was formed
Effective Fockian was calculated
Effective Fockian was diagonalized
Initial density was built
                      ------------------
                      INITIAL GUESS DONE (   0.0 sec)
                      ------------------
             **** ENERGY FILE WAS UPDATED (sp.en.tmp) ****
Finished Guess after   0.1 sec
Maximum memory used throughout the entire GUESS-calculation: 11.5 MB

-------------------------------------------------------------------------------------------
                                      ORCA LEAN-SCF
                              memory conserving SCF solver
-------------------------------------------------------------------------------------------

----------------------------------------D-I-I-S--------------------------------------------
Iteration    Energy (Eh)           Delta-E    RMSDP     MaxDP     DIISErr   Damp  Time(sec)
-------------------------------------------------------------------------------------------
               ***  Starting incremental Fock matrix formation  ***
    1    -307.4827030508739654     0.00e+00  3.55e-03  1.18e-01  6.25e-01  0.700   1.4
    2    -307.5285723745898849    -4.59e-02  2.91e-03  8.86e-02  4.39e-01  0.700   1.2
    3    -307.5609861369875944    -3.24e-02  2.14e-03  6.29e-02  3.08e-01  0.700   1.1
    4    -307.5837418103751588    -2.28e-02  1.54e-03  4.44e-02  2.16e-01  0.700   1.1
                               ***Turning on AO-DIIS***
    5    -307.5997023419067773    -1.60e-02  1.11e-03  3.20e-02  1.51e-01  0.700   1.1
    6    -307.6108891057577921    -1.12e-02  7.91e-04  2.26e-02  1.06e-01  0.700   1.2
    7    -307.6187308984120818    -7.84e-03  5.58e-04  1.59e-02  7.40e-02  0.700   1.1
    8    -307.6242247121531364    -5.49e-03  1.31e-03  3.70e-02  5.18e-02  0.000   1.0
                              *** Initializing SOSCF ***
---------------------------------------S-O-S-C-F--------------------------------------
Iteration    Energy (Eh)           Delta-E    RMSDP     MaxDP     MaxGrad    Time(sec)
--------------------------------------------------------------------------------------
    9    -307.6370594262753002    -1.28e-02  8.11e-06  2.58e-04  6.91e-05     0.9
                  *** Gradient check signals convergence ***

               *****************************************************
               *                     SUCCESS                       *
               *           SCF CONVERGED AFTER   9 CYCLES          *
               *****************************************************

             **** ENERGY FILE WAS UPDATED (sp.en.tmp) ****

----------------
TOTAL SCF ENERGY
----------------

Total Energy       :       -307.63705942627530 Eh           -8371.22997 eV

Components:
Nuclear Repulsion  :        246.78768967885165 Eh            6715.43444 eV
Electronic Energy  :       -554.42474910512692 Eh          -15086.66441 eV
One Electron Energy:       -907.01622589068222 Eh          -24681.16627 eV
Two Electron Energy:        352.59147678555530 Eh            9594.50186 eV

Virial components:
Potential Energy   :       -614.07941378295607 Eh          -16709.95037 eV
Kinetic Energy     :        306.44235435668077 Eh            8338.72039 eV
Virial Ratio       :          2.00389862906550

DFT components:
N(Alpha)           :       24.000005096172 electrons
N(Beta)            :       24.000005096172 electrons
N(Total)           :       48.000010192343 electrons
E(X)               :      -40.238787579621 Eh       
E(C)               :       -1.538883721158 Eh       
E(XC)              :      -41.777671300780 Eh       

---------------
SCF CONVERGENCE
---------------

  Last Energy change         ...    1.2835e-02  Tolerance :   1.0000e-06
  Last MAX-Density change    ...    2.5781e-04  Tolerance :   1.0000e-05
  Last RMS-Density change    ...    8.1121e-06  Tolerance :   1.0000e-06
  Last DIIS Error            ...    6.9106e-05  Tolerance :   1.0000e-06
  Last Orbital Gradient      ...    6.9106e-05  Tolerance :   3.3300e-04
  Last Orbital Rotation      ...    6.9106e-05  Tolerance :   3.3300e-04


----------------
ORBITAL ENERGIES
----------------

  NO   OCC          E(Eh)            E(eV) 
   0   2.0000     -18.999240      -516.9956 
   1   2.0000     -18.931979      -515.1653 
   2   2.0000     -10.153737      -276.2972 
   3   2.0000     -10.083220      -274.3784 
   4   2.0000     -10.044658      -273.3290 
   5   2.0000     -10.031915      -272.9823 
   6   2.0000      -1.073442       -29.2098 
   7   2.0000      -0.983557       -26.7639 
   8   2.0000      -0.760864       -20.7042 
   9   2.0000      -0.694789       -18.9062 
  10   2.0000      -0.611463       -16.6387 
  11   2.0000      -0.532974       -14.5030 
  12   2.0000      -0.472250       -12.8506 
  13   2.0000      -0.451514       -12.2863 
  14   2.0000      -0.448629       -12.2078 
  15   2.0000      -0.412061       -11.2127 
  16   2.0000      -0.401974       -10.9383 
  17   2.0000      -0.380597       -10.3566 
  18   2.0000      -0.346611        -9.4318 
  19   2.0000      -0.334832        -9.1112 
  20   2.0000      -0.327067        -8.8999 
  21   2.0000      -0.315493        -8.5850 
  22   2.0000      -0.273481        -7.4418 
  23   2.0000      -0.240625        -6.5477 
  24   0.0000      -0.015206        -0.4138 
  25   0.0000       0.067791         1.8447 
  26   0.0000       0.099138         2.6977 
  27   0.0000       0.121868         3.3162 
  28   0.0000       0.128171         3.4877 
  29   0.0000       0.144215         3.9243 
  30   0.0000       0.158239         4.3059 
  31   0.0000       0.168390         4.5821 
  32   0.0000       0.173346         4.7170 
  33   0.0000       0.179258         4.8779 
  34   0.0000       0.180558         4.9132 
*Only the first 10 virtual orbitals were printed.

                    ********************************
                    * MULLIKEN POPULATION ANALYSIS *
                    ********************************

-----------------------
MULLIKEN ATOMIC CHARGES
-----------------------
   0 C :   -0.466626
   1 C :   -0.288793
   2 C :    0.423877
   3 O :   -0.430806
   4 O :   -0.193592
   5 C :   -0.307602
   6 H :    0.148910
   7 H :    0.166115
   8 H :    0.152743
   9 H :    0.158564
  10 H :    0.156573
  11 H :    0.186724
  12 H :    0.146594
  13 H :    0.147318
Sum of atomic charges:    0.0000000

--------------------------------
MULLIKEN REDUCED ORBITAL CHARGES
--------------------------------
  0 C s       :     3.322921  s :     3.322921
      pz      :     0.977609  p :     3.116810
      px      :     1.034254
      py      :     1.104947
      dz2     :     0.006341  d :     0.026895
      dxz     :     0.006345
      dyz     :     0.004478
      dx2y2   :     0.005819
      dxy     :     0.003913

  1 C s       :     3.213747  s :     3.213747
      pz      :     1.011243  p :     3.040327
      px      :     0.963583
      py      :     1.065501
      dz2     :     0.007778  d :     0.034719
      dxz     :     0.007142
      dyz     :     0.005344
      dx2y2   :     0.007320
      dxy     :     0.007135

  2 C s       :     3.126934  s :     3.126934
      pz      :     0.749969  p :     2.323791
      px      :     0.815472
      py      :     0.758350
      dz2     :     0.007477  d :     0.125398
      dxz     :     0.009212
      dyz     :     0.028408
      dx2y2   :     0.028517
      dxy     :     0.051784

  3 O s       :     3.837493  s :     3.837493
      pz      :     1.482655  p :     4.570675
      px      :     1.771077
      py      :     1.316943
      dz2     :     0.003384  d :     0.022638
      dxz     :     0.001400
      dyz     :     0.008720
      dx2y2   :     0.008616
      dxy     :     0.000518

  4 O s       :     3.703491  s :     3.703491
      pz      :     1.700251  p :     4.467994
      px      :     1.156018
      py      :     1.611725
      dz2     :     0.005723  d :     0.022108
      dxz     :     0.004086
      dyz     :     0.004645
      dx2y2   :     0.005584
      dxy     :     0.002069

  5 C s       :     3.319845  s :     3.319845
      pz      :     1.081825  p :     2.944105
      px      :     0.769408
      py      :     1.092872
      dz2     :     0.009552  d :     0.043651
      dxz     :     0.010058
      dyz     :     0.002918
      dx2y2   :     0.011321
      dxy     :     0.009803

  6 H s       :     0.832907  s :     0.832907
      pz      :     0.008409  p :     0.018183
      px      :     0.004691
      py      :     0.005084

  7 H s       :     0.815745  s :     0.815745
      pz      :     0.003870  p :     0.018140
      px      :     0.003656
      py      :     0.010614

  8 H s       :     0.828957  s :     0.828957
      pz      :     0.003780  p :     0.018299
      px      :     0.009497
      py      :     0.005023

  9 H s       :     0.823555  s :     0.823555
      pz      :     0.008429  p :     0.017881
      px      :     0.004736
      py      :     0.004716

 10 H s       :     0.825588  s :     0.825588
      pz      :     0.003647  p :     0.017839
      px      :     0.003479
      py      :     0.010713

 11 H s       :     0.794581  s :     0.794581
      pz      :     0.003943  p :     0.018694
      px      :     0.002764
      py      :     0.011987

 12 H s       :     0.835713  s :     0.835713
      pz      :     0.005511  p :     0.017693
      px      :     0.006576
      py      :     0.005606

 13 H s       :     0.835025  s :     0.835025
      pz      :     0.011351  p :     0.017657
      px      :     0.002639
      py      :     0.003668


------------------------
MULLIKEN OVERLAP CHARGES
------------------------
B(  0-C ,  1-C ) :   0.4992 B(  0-C ,  2-C ) :  -0.1167 B(  0-C ,  6-H ) :   0.8341 
B(  0-C ,  7-H ) :   0.8494 B(  0-C ,  8-H ) :   0.8151 B(  0-C ,  9-H ) :  -0.0529 
B(  1-C ,  2-C ) :   0.5478 B(  1-C ,  3-O ) :  -0.1297 B(  1-C ,  4-O ) :  -0.0894 
B(  1-C ,  6-H ) :  -0.0743 B(  1-C ,  7-H ) :  -0.0698 B(  1-C ,  8-H ) :  -0.0945 
B(  1-C ,  9-H ) :   0.8403 B(  1-C , 10-H ) :   0.8445 B(  2-C ,  3-O ) :   0.9929 
B(  2-C ,  4-O ) :   0.3598 B(  2-C ,  5-C ) :  -0.2311 B(  2-C ,  9-H ) :  -0.0735 
B(  2-C , 10-H ) :  -0.1211 B(  2-C , 11-H ) :  -0.0566 B(  3-O ,  4-O ) :  -0.2242 
B(  4-O ,  5-C ) :   0.3624 B(  4-O , 11-H ) :  -0.0596 B(  4-O , 12-H ) :  -0.0819 
B(  4-O , 13-H ) :  -0.0764 B(  5-C , 11-H ) :   0.8533 B(  5-C , 12-H ) :   0.7941 
B(  5-C , 13-H ) :   0.7910 


                     *******************************
                     * LOEWDIN POPULATION ANALYSIS *
                     *******************************

----------------------
LOEWDIN ATOMIC CHARGES
----------------------
   0 C :   -0.392517
   1 C :   -0.236885
   2 C :    0.355525
   3 O :   -0.428289
   4 O :   -0.605826
   5 C :   -0.049467
   6 H :    0.155541
   7 H :    0.161586
   8 H :    0.153176
   9 H :    0.175076
  10 H :    0.174034
  11 H :    0.193466
  12 H :    0.173193
  13 H :    0.171388

-------------------------------
LOEWDIN REDUCED ORBITAL CHARGES
-------------------------------
  0 C s       :     2.969339  s :     2.969339
      pz      :     1.091665  p :     3.360274
      px      :     1.106425
      py      :     1.162184
      dz2     :     0.014454  d :     0.062904
      dxz     :     0.015126
      dyz     :     0.010071
      dx2y2   :     0.014102
      dxy     :     0.009149

  1 C s       :     2.928082  s :     2.928082
      pz      :     1.099140  p :     3.235225
      px      :     1.026971
      py      :     1.109114
      dz2     :     0.015793  d :     0.073578
      dxz     :     0.016189
      dyz     :     0.010804
      dx2y2   :     0.016569
      dxy     :     0.014223

  2 C s       :     2.738889  s :     2.738889
      pz      :     0.720842  p :     2.632655
      px      :     0.927984
      py      :     0.983829
      dz2     :     0.019457  d :     0.272932
      dxz     :     0.016326
      dyz     :     0.054617
      dx2y2   :     0.066436
      dxy     :     0.116096

  3 O s       :     3.542291  s :     3.542291
      pz      :     1.460044  p :     4.664166
      px      :     1.717021
      py      :     1.487101
      dz2     :     0.027689  d :     0.221832
      dxz     :     0.009520
      dyz     :     0.045218
      dx2y2   :     0.068149
      dxy     :     0.071256

  4 O s       :     3.472034  s :     3.472034
      pz      :     1.686429  p :     4.668810
      px      :     1.351507
      py      :     1.630874
      dz2     :     0.062173  d :     0.464982
      dxz     :     0.102442
      dyz     :     0.038528
      dx2y2   :     0.136175
      dxy     :     0.125664

  5 C s       :     2.903680  s :     2.903680
      pz      :     1.091141  p :     3.040502
      px      :     0.859063
      py      :     1.090298
      dz2     :     0.024465  d :     0.105286
      dxz     :     0.023238
      dyz     :     0.005882
      dx2y2   :     0.027630
      dxy     :     0.024071

  6 H s       :     0.800979  s :     0.800979
      pz      :     0.020485  p :     0.043479
      px      :     0.011026
      py      :     0.011969

  7 H s       :     0.794527  s :     0.794527
      pz      :     0.008624  p :     0.043887
      px      :     0.008094
      py      :     0.027170

  8 H s       :     0.803285  s :     0.803285
      pz      :     0.008446  p :     0.043539
      px      :     0.023373
      py      :     0.011719

  9 H s       :     0.781469  s :     0.781469
      pz      :     0.020542  p :     0.043455
      px      :     0.011413
      py      :     0.011500

 10 H s       :     0.782141  s :     0.782141
      pz      :     0.008569  p :     0.043825
      px      :     0.008157
      py      :     0.027099

 11 H s       :     0.761038  s :     0.761038
      pz      :     0.009177  p :     0.045497
      px      :     0.006521
      py      :     0.029798

 12 H s       :     0.786553  s :     0.786553
      pz      :     0.012961  p :     0.040254
      px      :     0.013495
      py      :     0.013799

 13 H s       :     0.788215  s :     0.788215
      pz      :     0.026762  p :     0.040397
      px      :     0.005305
      py      :     0.008330


---------------------------------
LOEWDIN BOND ORDERS (THRESH 0.050000)
---------------------------------
B(  0-C ,  1-C ) :   1.1180 B(  0-C ,  2-C ) :   0.0795 B(  0-C ,  6-H ) :   0.9272 
B(  0-C ,  7-H ) :   0.9233 B(  0-C ,  8-H ) :   0.9272 B(  1-C ,  2-C ) :   0.9221 
B(  1-C ,  3-O ) :   0.1817 B(  1-C ,  4-O ) :   0.1854 B(  1-C ,  9-H ) :   0.8749 
B(  1-C , 10-H ) :   0.8717 B(  2-C ,  3-O ) :   2.2038 B(  2-C ,  4-O ) :   1.4323 
B(  2-C ,  5-C ) :   0.0867 B(  3-O ,  4-O ) :   0.4585 B(  3-O ,  5-C ) :   0.0767 
B(  4-O ,  5-C ) :   1.3649 B(  4-O , 11-H ) :   0.0956 B(  4-O , 12-H ) :   0.1008 
B(  4-O , 13-H ) :   0.1013 B(  5-C , 11-H ) :   0.8370 B(  5-C , 12-H ) :   0.8663 
B(  5-C , 13-H ) :   0.8655 

------------------------------------------
LOEWDIN REDUCED ORBITAL POPULATIONS PER MO
-------------------------------------------
THRESHOLD FOR PRINTING IS 0.1%%
                      0         1         2         3         4         5   
                 -18.99924 -18.93198 -10.15374 -10.08322 -10.04466 -10.03191
                   2.00000   2.00000   2.00000   2.00000   2.00000   2.00000
                  --------  --------  --------  --------  --------  --------
 0 C  s               0.0       0.0       0.0       0.0       0.0      99.7
 1 C  s               0.0       0.0       0.0       0.0      99.7       0.0
 2 C  s               0.0       0.0      98.9       0.0       0.0       0.0
 3 O  s               0.0      99.9       0.0       0.0       0.0       0.0
 3 O  py              0.0       0.0       0.2       0.0       0.0       0.0
 3 O  dx2y2           0.0       0.0       0.2       0.0       0.0       0.0
 4 O  s              99.9       0.0       0.0       0.0       0.0       0.0
 4 O  dx2y2           0.0       0.0       0.0       0.1       0.0       0.0
 4 O  dxy             0.0       0.0       0.2       0.1       0.0       0.0
 5 C  s               0.0       0.0       0.0      99.4       0.0       0.0

                      6         7         8         9        10        11   
                  -1.07344  -0.98356  -0.76086  -0.69479  -0.61146  -0.53297
                   2.00000   2.00000   2.00000   2.00000   2.00000   2.00000
                  --------  --------  --------  --------  --------  --------
 0 C  s               0.1       0.0      17.5      10.5      18.8       0.6
 0 C  pz              0.1       0.0       1.8       0.1       3.4       2.1
 0 C  px              0.2       0.0       1.3       0.0       2.2       0.0
 1 C  s               1.0       0.2      27.4       2.1       9.2       2.6
 1 C  pz              0.1       0.0       1.3       0.6       5.6       2.3
 1 C  px              1.7       0.1       0.1       3.7       4.4       1.8
 1 C  py              0.3       0.4       0.1       0.0       0.0       0.1
 1 C  dxz             0.0       0.0       0.0       0.1       0.1       0.0
 2 C  s              16.6       3.7       3.8       2.2       1.8       3.6
 2 C  pz              0.3       0.4       0.1       0.1       1.5       0.9
 2 C  px              4.3       1.1       7.1       1.2       5.2       1.8
 2 C  py              0.1      21.9       5.4       3.1       0.9       2.1
 2 C  dz2             0.5       0.1       0.0       0.0       0.0       0.0
 2 C  dx2y2           0.2       1.1       0.1       0.0       0.1       0.0
 2 C  dxy             0.3       0.6       0.0       0.2       0.2       0.0
 3 O  s              13.6      40.5       1.7       0.4       0.6       2.0
 3 O  pz              0.0       0.0       0.0       0.0       0.1       0.3
 3 O  px              0.0       0.2       0.2       0.0       0.5       0.8
 3 O  py              3.3       3.5       0.5       0.3       0.4       2.4
 3 O  dz2             0.4       0.0       0.1       0.0       0.1       0.1
 3 O  dx2y2           0.8       0.1       0.2       0.5       0.0       0.2
 3 O  dxy             0.1       0.2       0.5       0.0       0.3       0.1
 4 O  s              40.6      18.2       0.1       0.8       1.5       5.1
 4 O  pz              0.0       0.1       0.5       1.8       0.0       1.2
 4 O  px              0.1       0.6       6.3      20.4       0.1      15.5
 4 O  py              2.7       0.4       0.0       0.3       0.1       9.5
 4 O  dz2             0.4       0.1       0.0       0.2       0.2       0.3
 4 O  dxz             0.1       0.0       0.0       0.2       0.6       0.1
 4 O  dyz             0.1       0.1       0.0       0.1       0.0       0.0
 4 O  dx2y2           0.0       0.5       0.2       0.7       1.3       0.1
 4 O  dxy             0.2       0.6       0.3       1.1       0.0       0.2
 5 C  s               4.5       2.1       3.6      23.9       5.3       5.2
 5 C  pz              0.4       0.1       0.0       0.0       0.1       0.7
 5 C  px              4.9       1.4       0.2       0.4       1.7       9.5
 5 C  py              0.3       0.6       0.1       0.1       0.1       8.6
 5 C  dz2             0.1       0.0       0.0       0.0       0.0       0.1
 5 C  dx2y2           0.2       0.1       0.0       0.0       0.0       0.2
 5 C  dxy             0.1       0.1       0.0       0.0       0.0       0.4
 6 H  s               0.0       0.0       2.5       1.9       6.1       0.8
 6 H  pz              0.0       0.0       0.2       0.1       0.3       0.0
 6 H  px              0.0       0.0       0.0       0.0       0.1       0.0
 6 H  py              0.0       0.0       0.0       0.0       0.1       0.0
 7 H  s               0.0       0.0       2.5       2.0       5.8       0.4
 7 H  py              0.0       0.0       0.2       0.2       0.5       0.0
 8 H  s               0.0       0.0       2.5       2.2       6.5       0.2
 8 H  px              0.0       0.0       0.2       0.1       0.4       0.0
 9 H  s               0.1       0.0       3.9       0.5       3.5       2.8
 9 H  pz              0.0       0.0       0.2       0.0       0.1       0.1
 9 H  px              0.0       0.0       0.1       0.0       0.1       0.0
10 H  s               0.1       0.0       4.3       0.2       3.1       1.2
10 H  py              0.0       0.0       0.4       0.0       0.3       0.1
11 H  s               0.4       0.1       0.5       4.6       1.6       7.1
11 H  py              0.0       0.0       0.1       0.4       0.1       0.3
12 H  s               0.3       0.2       0.6       5.8       2.1       2.0
12 H  pz              0.0       0.0       0.0       0.1       0.0       0.1
12 H  px              0.0       0.0       0.0       0.2       0.0       0.0
12 H  py              0.0       0.0       0.0       0.1       0.1       0.1
13 H  s               0.3       0.2       0.6       5.5       2.0       3.4
13 H  pz              0.0       0.0       0.1       0.5       0.1       0.2

                     12        13        14        15        16        17   
                  -0.47225  -0.45151  -0.44863  -0.41206  -0.40197  -0.38060
                   2.00000   2.00000   2.00000   2.00000   2.00000   2.00000
                  --------  --------  --------  --------  --------  --------
 0 C  s               0.0       0.2       0.1       0.0       0.1       0.1
 0 C  pz              3.1       0.4       1.9       2.9       0.0      14.3
 0 C  px              1.9       1.8       0.0       8.9      11.6       0.1
 0 C  py              3.2       2.3       2.3      12.9       6.6       0.1
 0 C  dxz             0.0       0.0       0.0       0.0       0.1       0.1
 1 C  s               1.7       0.4       0.2       0.1       0.4       0.1
 1 C  pz              5.3       1.4       0.4       5.8       4.0       3.2
 1 C  px              7.1       0.2       2.9       2.6       0.2       8.3
 1 C  py              9.1       6.2       6.0      10.6       2.8       0.0
 1 C  dx2y2           0.0       0.0       0.0       0.1       0.0       0.0
 1 C  dxy             0.2       0.0       0.0       0.1       0.0       0.0
 2 C  s               1.6       1.0       0.7       0.3       0.8       0.2
 2 C  pz              1.2      11.1       1.5       0.3       1.7      11.5
 2 C  px             13.0       0.0       0.2       0.1       1.5       0.9
 2 C  py              0.1       0.3       2.8       2.4       2.9       0.8
 2 C  dx2y2           0.0       0.1       0.4       0.0       0.2       0.0
 2 C  dxy             0.0       0.0       0.0       0.3       0.0       0.1
 3 O  s               0.9       3.0       7.7       2.4       2.9       0.3
 3 O  pz              0.2       4.6       1.4       0.4       1.5      12.6
 3 O  px              9.5       0.4       0.1       0.0       0.1       0.0
 3 O  py              1.4       6.9      15.1       9.4      16.9       1.8
 3 O  dz2             0.0       0.1       0.1       0.0       0.1       0.0
 3 O  dxz             0.0       0.0       0.0       0.0       0.0       0.1
 3 O  dyz             0.0       0.7       0.2       0.0       0.1       0.6
 3 O  dx2y2           0.1       0.1       0.1       0.1       0.4       0.0
 3 O  dxy             1.3       0.0       0.0       0.0       0.0       0.0
 4 O  s               0.5       0.0       1.1       0.7       0.0       0.0
 4 O  pz              4.4      20.3       6.2       0.1       0.4       0.0
 4 O  px              0.1       3.9       3.1       5.9       0.8       1.9
 4 O  py              7.0       0.0      15.8       1.2       1.2       0.1
 4 O  dz2             0.0       0.0       0.0       0.3       0.3       0.4
 4 O  dxz             0.0       0.1       0.0       0.2       0.9       1.5
 4 O  dyz             0.0       0.7       0.0       0.0       0.0       0.0
 4 O  dx2y2           0.8       0.0       0.9       0.1       0.0       0.1
 4 O  dxy             1.0       0.1       0.0       0.0       0.5       0.7
 5 C  s               0.0       0.0       0.4       0.1       0.0       0.0
 5 C  pz              2.6      17.8       1.3       4.5      10.3       5.6
 5 C  px              0.1       0.9      10.1       1.5       1.1       7.4
 5 C  py              6.3       0.6       3.4       0.0       7.0       6.4
 5 C  dz2             0.0       0.0       0.0       0.1       0.2       0.0
 5 C  dxz             0.0       0.0       0.0       0.0       0.0       0.1
 5 C  dxy             0.0       0.0       0.0       0.0       0.0       0.1
 6 H  s               0.4       0.0       1.4       6.0       0.0       5.0
 6 H  pz              0.0       0.0       0.0       0.2       0.0       0.0
 7 H  s               1.1       1.5       0.2       5.0       1.3       0.3
 7 H  px              0.0       0.0       0.0       0.0       0.1       0.0
 7 H  py              0.0       0.1       0.0       0.1       0.0       0.0
 8 H  s               1.3       0.3       0.1       1.0       7.7       0.0
 8 H  pz              0.0       0.0       0.0       0.0       0.0       0.1
 8 H  px              0.1       0.0       0.0       0.0       0.1       0.0
 8 H  py              0.0       0.0       0.0       0.2       0.0       0.0
 9 H  s               2.7       0.4       2.4       5.8       0.1       0.0
 9 H  pz              0.0       0.0       0.1       0.1       0.0       0.0
 9 H  px              0.0       0.0       0.0       0.0       0.0       0.1
 9 H  py              0.2       0.0       0.0       0.0       0.0       0.0
10 H  s               5.3       2.5       1.8       3.7       0.8       0.1
10 H  px              0.1       0.0       0.0       0.0       0.0       0.1
10 H  py              0.2       0.1       0.0       0.1       0.0       0.0
11 H  s               2.6       0.0       0.1       0.0       4.7       1.4
11 H  py              0.1       0.0       0.0       0.0       0.1       0.0
12 H  s               0.2       3.3       6.3       0.0       0.1      10.6
12 H  px              0.0       0.1       0.0       0.0       0.0       0.1
13 H  s               1.3       5.4       0.0       2.6       6.4       1.6
13 H  pz              0.1       0.1       0.0       0.1       0.1       0.0

                     18        19        20        21        22        23   
                  -0.34661  -0.33483  -0.32707  -0.31549  -0.27348  -0.24062
                   2.00000   2.00000   2.00000   2.00000   2.00000   2.00000
                  --------  --------  --------  --------  --------  --------
 0 C  s               0.0       0.6       0.1       0.0       0.0       0.0
 0 C  pz              4.7      12.3       7.0       0.3       0.0       0.0
 0 C  px             13.0       8.7       1.4       3.4       0.0       0.6
 0 C  py             12.0       3.9      14.2       0.1       0.3       0.1
 0 C  dz2             0.1       0.1       0.2       0.1       0.0       0.0
 0 C  dxz             0.0       0.1       0.1       0.0       0.0       0.0
 0 C  dyz             0.0       0.0       0.4       0.0       0.0       0.0
 0 C  dx2y2           0.3       0.1       0.0       0.0       0.0       0.1
 0 C  dxy             0.3       0.0       0.0       0.0       0.0       0.0
 1 C  s               0.2       0.3       0.0       0.1       0.0       0.6
 1 C  pz              1.5      15.5       7.1       0.6       0.1       0.1
 1 C  px              1.8       5.1       1.6       5.4       0.1       4.3
 1 C  py              1.5       4.0      10.6       0.2       0.0       3.5
 1 C  dz2             0.1       0.1       0.3       0.1       0.0       0.0
 1 C  dxz             0.0       0.3       0.2       0.0       0.0       0.0
 1 C  dyz             0.0       0.0       0.3       0.0       0.0       0.0
 1 C  dx2y2           0.2       0.2       0.0       0.0       0.0       0.1
 1 C  dxy             0.3       0.0       0.0       0.0       0.0       0.0
 2 C  s               0.4       0.0       0.0       0.7       0.0       0.4
 2 C  pz              0.1       4.2       0.7       0.0       0.3       0.1
 2 C  px              7.6       0.7       0.2       0.2       0.0       1.3
 2 C  py              0.3       0.2       0.7       4.4       0.0       0.7
 2 C  dz2             0.0       0.0       0.0       0.0       0.1       0.0
 2 C  dxz             0.0       0.2       0.1       0.0       0.1       0.0
 2 C  dyz             0.0       0.4       0.0       0.0       1.6       0.5
 2 C  dx2y2           0.0       0.1       0.1       0.6       0.0       0.2
 2 C  dxy             0.0       0.0       0.1       0.1       0.3       3.6
 3 O  s               0.1       0.0       0.2       1.0       0.0       0.0
 3 O  pz              0.2      15.1       0.8       0.0      28.5       7.3
 3 O  px              6.5       1.3       0.1       0.1       4.4      61.7
 3 O  py              1.0       0.1       2.4       7.9       0.3       0.6
 3 O  dxz             0.0       0.0       0.1       0.0       0.0       0.0
 3 O  dyz             0.0       0.2       0.0       0.0       0.1       0.1
 3 O  dx2y2           0.0       0.0       0.0       0.6       0.0       0.0
 3 O  dxy             0.2       0.0       0.0       0.0       0.0       0.6
 4 O  s               0.2       0.0       0.1       4.3       0.0       0.4
 4 O  pz              0.6       3.6       1.2       0.0      43.9       0.0
 4 O  px              0.1       0.1       0.6       3.5       3.1       1.4
 4 O  py              1.1       0.1       3.1      32.4       0.1       6.4
 4 O  dz2             0.1       0.3       0.0       0.0       0.1       0.2
 4 O  dxz             0.1       0.2       0.3       0.4       0.3       0.1
 4 O  dyz             0.0       0.3       0.0       0.0       0.5       0.0
 4 O  dx2y2           0.0       0.0       0.0       1.7       0.0       0.1
 4 O  dxy             0.1       0.0       0.3       0.5       0.0       0.3
 5 C  s               0.0       0.0       0.0       0.3       0.0       0.2
 5 C  pz              2.0       3.7       0.5       0.0       4.9       0.0
 5 C  px              0.8       0.0       0.6       1.4       0.3       0.8
 5 C  py              7.0       0.2       1.5      11.7       0.1       0.5
 5 C  dz2             0.1       0.1       0.0       0.0       0.4       0.0
 5 C  dxz             0.0       0.1       0.0       0.0       0.6       0.0
 5 C  dx2y2           0.1       0.0       0.1       0.5       0.0       0.1
 5 C  dxy             0.1       0.0       0.1       0.2       0.0       0.0
 6 H  s               1.9       0.1      12.2       1.6       0.1       0.0
 6 H  py              0.2       0.0       0.0       0.0       0.0       0.0
 7 H  s               6.3       5.0       7.8       0.1       0.2       0.2
 7 H  pz              0.0       0.1       0.1       0.0       0.0       0.0
 7 H  px              0.1       0.0       0.0       0.0       0.0       0.0
 8 H  s              15.3       0.4       0.0       1.9       0.0       0.8
 8 H  pz              0.0       0.1       0.1       0.0       0.0       0.0
 8 H  px              0.2       0.0       0.0       0.0       0.0       0.0
 8 H  py              0.0       0.1       0.1       0.0       0.0       0.0
 9 H  s               1.3       0.8      12.2       2.3       0.1       0.0
10 H  s               1.7       6.1       6.4       0.2       0.0       1.5
10 H  pz              0.0       0.1       0.1       0.0       0.0       0.0
10 H  px              0.0       0.0       0.0       0.0       0.0       0.1
10 H  py              0.0       0.1       0.0       0.0       0.0       0.0
11 H  s               4.6       0.5       0.7       8.7       0.3       0.1
11 H  py              0.1       0.0       0.0       0.1       0.0       0.1
12 H  s               0.9       0.6       1.9       1.2       3.0       0.1
13 H  s               1.9       2.7       0.2       0.2       5.2       0.0
13 H  py              0.0       0.0       0.0       0.1       0.0       0.0

                     24        25        26        27        28        29   
                  -0.01521   0.06779   0.09914   0.12187   0.12817   0.14421
                   0.00000   0.00000   0.00000   0.00000   0.00000   0.00000
                  --------  --------  --------  --------  --------  --------
 0 C  s               2.3       4.1       2.7      28.1       5.0       0.0
 0 C  pz              1.7       1.9       0.2       1.0      11.5       3.7
 0 C  px              0.8       2.6       1.3       6.9       8.6       1.1
 0 C  py              0.2       0.1       0.1       0.8       0.0       5.0
 0 C  dz2             0.0       0.1       0.1       0.0       0.7       0.1
 0 C  dxz             0.0       0.4       0.1       0.0       0.8       0.0
 0 C  dyz             0.0       0.0       0.0       0.0       0.0       0.9
 0 C  dx2y2           0.1       0.0       0.0       0.1       0.0       0.0
 0 C  dxy             0.1       0.0       0.1       0.0       0.3       0.0
 1 C  s               0.1       8.8       2.2       2.9      11.4       3.7
 1 C  pz              0.2       1.2       0.6       2.2      13.8       2.5
 1 C  px              0.9       0.4       0.4       6.6       2.1       7.4
 1 C  py              0.0       0.3       0.5       0.6       0.7      10.5
 1 C  dz2             0.0       0.0       0.0       0.3       0.7       0.0
 1 C  dxz             1.8       0.0       0.1       0.2       0.1       0.1
 1 C  dx2y2           0.2       0.1       0.2       0.1       0.0       1.9
 1 C  dxy             0.0       0.0       0.0       0.0       0.0       1.3
 2 C  s               0.0       8.3       4.7       0.3       0.8       4.2
 2 C  pz             36.3       0.1       0.1       3.3       2.4       2.1
 2 C  px              2.8       1.6       0.2       2.3       0.9       0.9
 2 C  py              0.2       0.5       2.5       0.5       0.0       3.1
 2 C  dz2             0.0       1.1       0.3       0.0       0.3       0.7
 2 C  dxz             0.4       0.4       0.0       0.0       0.0       0.2
 2 C  dyz             0.7       0.0       0.0       0.0       0.0       0.0
 2 C  dx2y2           0.1       0.1       0.9       0.0       0.0       0.1
 3 O  s               0.0       1.3       1.4       0.0       0.0       0.3
 3 O  pz             21.3       0.0       0.0       0.5       0.0       0.4
 3 O  px              1.8       0.6       0.1       1.3       0.5       0.3
 3 O  py              0.1       0.2       0.4       0.0       0.0       0.1
 3 O  dz2             0.0       1.1       0.6       0.1       0.6       0.9
 3 O  dxz             0.4       0.2       0.3       0.0       0.3       1.2
 3 O  dyz             5.7       0.0       0.1       0.5       0.1       0.0
 3 O  dx2y2           0.1       0.1       0.1       0.0       0.4       1.6
 3 O  dxy             0.4       0.3       0.2       0.0       0.0       0.0
 4 O  s               0.0       9.2       1.7       0.6       0.3       0.0
 4 O  pz              9.3       0.1       0.5       0.1       0.2       0.0
 4 O  px              0.7       1.7       4.7       0.3       1.0       0.9
 4 O  py              0.0       1.5       0.9       0.0       0.3       2.6
 4 O  dz2             1.1       1.5       3.1       0.5       0.0       0.4
 4 O  dxz             3.1       0.5       1.5       0.2       0.1       0.0
 4 O  dyz             1.1       0.0       0.0       0.4       0.4       0.4
 4 O  dx2y2           0.2       0.1       2.8       0.3       0.2       1.5
 4 O  dxy             0.1       0.0       1.4       0.4       0.0       5.4
 5 C  s               0.0       3.3      22.8       6.6       8.4       0.1
 5 C  pz              0.1       1.9       1.0       0.5       0.9       0.3
 5 C  px              0.0      25.9      17.7       2.2       3.5       0.8
 5 C  py              0.0       3.9       2.9       0.7       2.5       8.2
 5 C  dz2             0.1       0.6       0.1       0.2       0.2       0.0
 5 C  dxz             0.2       0.5       0.1       0.0       0.1       0.0
 5 C  dx2y2           0.0       1.3       0.6       0.1       0.2       0.1
 5 C  dxy             0.0       0.7       0.2       0.1       0.3       0.3
 6 H  s               0.1       1.0       0.1       3.4       1.2       0.5
 6 H  pz              0.1       0.1       0.0       0.9       1.1       0.0
 6 H  px              0.0       0.4       0.1       0.4       0.1       0.0
 6 H  py              0.0       0.0       0.0       0.8       0.2       0.4
 7 H  s               0.1       0.4       0.5       5.0       0.3       0.1
 7 H  pz              0.1       0.0       0.0       0.0       0.1       0.7
 7 H  px              0.0       0.0       0.1       0.0       0.5       0.0
 7 H  py              0.0       0.2       0.2       2.5       0.2       0.1
 8 H  s               0.8       0.8       1.5       2.3       1.7       0.3
 8 H  pz              0.0       0.3       0.1       0.3       0.3       0.1
 8 H  px              0.2       0.0       0.1       1.3       0.0       0.0
 8 H  py              0.0       0.1       0.2       0.6       0.1       0.0
 9 H  s               1.7       1.1       0.4       0.6       1.1       0.9
 9 H  pz              0.0       0.4       0.0       0.0       2.0       0.0
 9 H  px              0.1       0.2       0.0       0.4       0.0       0.1
 9 H  py              0.0       0.0       0.0       0.2       0.0       1.9
10 H  s               0.4       0.5       1.2       0.9       0.2      11.3
10 H  pz              0.0       0.0       0.1       0.2       0.5       0.0
10 H  px              0.0       0.0       0.0       0.1       0.1       1.2
10 H  py              0.0       0.4       0.3       0.6       0.4       3.4
11 H  s               0.0       0.4       2.0       0.3       0.6       0.8
11 H  pz              0.0       0.2       0.0       0.1       0.1       0.0
11 H  px              0.0       0.7       0.3       0.1       0.1       0.1
11 H  py              0.0       0.0       1.1       0.1       0.2       0.3
12 H  s               0.4       0.6       2.6       1.8       2.5       1.1
12 H  pz              0.0       0.4       0.1       0.6       0.5       0.1
12 H  px              0.0       0.3       1.4       0.1       0.1       0.2
12 H  py              0.0       0.4       0.1       0.3       0.6       0.1
13 H  s               0.8       0.8       2.8       2.7       2.7       0.1
13 H  pz              0.0       0.2       1.2       0.9       1.2       0.0
13 H  px              0.0       0.9       0.5       0.1       0.1       0.0
13 H  py              0.0       0.1       0.0       0.0       0.1       0.0

                     30        31        32        33        34        35   
                   0.15824   0.16839   0.17335   0.17926   0.18056   0.18718
                   0.00000   0.00000   0.00000   0.00000   0.00000   0.00000
                  --------  --------  --------  --------  --------  --------
 0 C  s               0.0       0.7       0.7       0.1       0.1       0.5
 0 C  pz              2.8       2.5      10.3       1.4       2.9       4.6
 0 C  px              3.6       1.0       2.4      10.3       6.7       3.9
 0 C  py              7.7       5.6       1.3       6.5       0.1       5.5
 0 C  dz2             0.4       0.0       0.1       0.6       0.2       0.7
 0 C  dxz             0.4       0.6       1.0       0.0       0.1       0.1
 0 C  dyz             0.2       0.1       0.3       0.0       0.4       0.7
 0 C  dx2y2           0.2       0.7       0.1       1.2       0.1       0.1
 0 C  dxy             0.5       0.1       0.2       0.0       0.2       0.3
 1 C  s               0.5       0.1       1.8       0.4       0.1       0.3
 1 C  pz              5.5       0.5       0.8       7.3       1.8       0.0
 1 C  px              2.1       5.1       4.2       4.7       2.5       3.5
 1 C  py             12.1       9.4       0.8       3.4       1.6       3.8
 1 C  dz2             0.5       0.5       0.2       0.0       0.2       0.1
 1 C  dxz             0.5       0.0       0.1       0.2       0.0       0.1
 1 C  dyz             1.6       0.2       0.0       0.4       0.0       0.0
 1 C  dx2y2           0.0       0.4       0.4       0.2       0.0       0.0
 1 C  dxy             0.1       0.8       0.0       0.0       0.2       0.3
 2 C  s               0.1       1.1       2.8       0.3       0.2       0.8
 2 C  pz              7.1       3.6       3.7       2.6       4.3       1.2
 2 C  px              1.0       0.9       0.1       1.9       1.1       1.2
 2 C  py              1.3       8.5       2.0       6.3       0.4       0.1
 2 C  dz2             0.0       0.1       0.0       0.0       0.1       0.2
 2 C  dx2y2           0.2       0.6       0.1       0.1       0.0       0.0
 2 C  dxy             0.2       0.7       0.0       0.0       0.0       0.0
 3 O  s               0.2       1.7       0.4       1.1       0.1       0.5
 3 O  pz              1.1       0.2       0.1       1.2       1.3       0.2
 3 O  px              0.4       0.1       0.8       0.7       0.0       0.5
 3 O  py              1.1       0.5       0.1       1.3       0.1       0.6
 3 O  dz2             0.1       0.6       1.7       0.9       0.0       0.4
 3 O  dxz             0.0       0.4       0.4       1.3       1.4       0.2
 3 O  dyz             0.0       0.0       0.0       0.0       0.0       0.2
 3 O  dx2y2           0.9       0.6       0.0       0.5       0.0       0.0
 3 O  dxy             0.6       1.2       0.1       0.0       0.0       0.0
 4 O  s               0.1       0.0       0.2       0.2       0.1       0.2
 4 O  pz              0.1       0.1       0.5       1.5       1.0       0.2
 4 O  px              0.1       1.1       0.6       0.0       0.2       1.4
 4 O  py              0.2       0.0       0.9       0.1       0.1       0.1
 4 O  dz2             1.3       0.7       2.1       0.4       1.0       0.0
 4 O  dxz             0.1       1.2       0.7       0.0       1.5       0.6
 4 O  dyz             1.2       0.5       2.2       0.7       2.2       2.0
 4 O  dx2y2           0.2       0.6       0.1       0.1       0.5       0.2
 4 O  dxy             0.1       1.6       1.7       0.1       1.2       0.5
 5 C  s               0.8       0.1       0.6       0.2       0.3       0.3
 5 C  pz              1.6       5.5      14.6      14.9       6.8      16.6
 5 C  px              2.6       0.3       2.6       4.3       4.9       0.6
 5 C  py              2.1       4.3       8.3       1.8       6.5       0.8
 5 C  dz2             0.0       0.2       0.8       0.1       1.1       1.8
 5 C  dxz             0.1       0.0       0.3       0.0       0.6       0.1
 5 C  dyz             0.4       0.4       0.4       0.5       0.6       0.1
 5 C  dx2y2           0.2       0.6       0.8       0.0       0.0       0.0
 5 C  dxy             0.1       0.0       0.0       0.2       0.9       0.0
 6 H  s               2.4       3.8       4.7       0.7       4.9       8.7
 6 H  pz              1.1       0.2       0.2       0.4       0.8       1.6
 6 H  px              0.3       0.9       0.3       0.0       0.1       0.2
 6 H  py              0.0       0.0       0.1       0.5       0.6       0.2
 7 H  s               3.9       1.9       0.9       7.0       0.1       2.6
 7 H  pz              0.1       0.3       0.5       0.0       0.3       0.4
 7 H  px              0.3       0.0       0.0       0.0       0.2       0.3
 7 H  py              0.9       0.0       0.2       1.6       0.0       0.1
 8 H  s               1.3       1.2       1.1       2.1       3.2       1.9
 8 H  pz              0.2       0.3       0.5       0.1       0.0       0.0
 8 H  px              0.1       0.6       0.2       1.3       0.6       0.2
 8 H  py              0.0       0.2       0.3       0.1       0.5       1.2
 9 H  s              11.5       3.5       0.1       0.2       0.1       0.2
 9 H  pz              2.0       0.8       0.0       0.0       0.2       0.1
 9 H  px              0.4       0.4       0.4       0.6       0.0       0.0
 9 H  py              1.0       0.1       0.0       0.2       0.1       0.0
10 H  s               1.8       4.6       0.0       0.1       0.6       0.5
10 H  pz              1.2       0.1       0.0       0.1       0.0       0.0
10 H  px              0.0       0.7       0.0       0.0       0.1       0.3
10 H  py              0.6       1.7       0.0       0.0       0.1       0.0
11 H  s               3.3       6.1       9.6       0.4       0.3       1.2
11 H  pz              0.3       0.2       0.0       0.5       1.1       0.4
11 H  px              0.0       0.0       0.0       0.1       0.4       0.0
11 H  py              0.7       1.2       1.2       0.0       0.1       0.7
12 H  s               1.4       1.4       1.8       1.9      15.7       1.4
12 H  pz              0.1       0.4       0.9       0.1       0.3       0.2
12 H  px              0.0       0.2       0.1       0.0       2.2       0.6
12 H  py              0.1       0.1       0.3       0.0       2.6       0.5
13 H  s               0.1       1.2       1.3       1.1       7.5      15.3
13 H  pz              0.0       0.7       0.0       0.0       1.0       4.7
13 H  px              0.1       0.0       0.1       0.0       0.5       0.1
13 H  py              0.4       0.5       0.8       0.2       0.2       0.1

                     36        37        38        39        40        41   
                   0.19261   0.20676   0.21162   0.22874   0.24914   0.25660
                   0.00000   0.00000   0.00000   0.00000   0.00000   0.00000
                  --------  --------  --------  --------  --------  --------
 0 C  s               0.2       1.3       1.2       0.0       1.5       0.5
 0 C  pz             10.4       4.4      12.6       6.0       4.2       5.1
 0 C  px              3.3       5.1       5.0       2.7       9.8       0.3
 0 C  py              1.5       2.5       1.2      57.4       2.9       1.7
 0 C  dz2             0.1       0.1       0.6       0.2       0.2       0.1
 0 C  dxz             0.2       0.1       1.3       0.2       0.0       0.1
 0 C  dyz             0.0       0.2       0.1       0.1       0.0       0.3
 0 C  dx2y2           1.5       0.7       0.0       0.2       0.4       0.2
 0 C  dxy             0.8       0.0       0.4       0.0       0.4       0.1
 1 C  s               1.2       0.1       4.5       0.0       0.0       0.2
 1 C  pz              0.4       2.3      21.3       0.3       5.1      16.8
 1 C  px             10.9       0.9       1.6       0.4       7.5       4.4
 1 C  py              0.9       0.9       2.6       1.1       9.8      11.4
 1 C  dz2             0.9       0.1       0.0       0.3       1.1       0.1
 1 C  dxz             0.3       0.1       0.1       0.1       0.9       1.1
 1 C  dyz             0.0       0.0       0.0       0.3       0.0       1.0
 1 C  dx2y2           0.3       0.5       0.1       0.2       0.4       0.0
 1 C  dxy             0.6       0.3       0.2       0.1       0.0       0.0
 2 C  s               2.4       0.1       0.7       0.0       3.4       2.0
 2 C  pz              0.1       1.8       0.8       0.2       1.8       3.2
 2 C  px              4.8       0.2       1.0       0.7       0.0       1.9
 2 C  py              0.4       1.7       0.3       1.5       7.8       6.5
 2 C  dz2             0.0       0.1       0.0       0.0       0.2       0.7
 2 C  dxz             0.0       0.0       0.0       0.0       0.3       0.4
 2 C  dx2y2           0.2       0.0       0.0       0.3       0.4       0.1
 2 C  dxy             0.0       0.1       0.0       0.2       0.0       0.1
 3 O  s               0.2       0.4       0.1       0.4       2.2       0.1
 3 O  pz              0.0       0.0       0.1       0.0       1.5       0.1
 3 O  px              0.6       0.6       0.1       1.0       1.0       0.6
 3 O  py              0.3       1.3       0.2       0.4       0.3       1.7
 3 O  dz2             0.3       0.0       0.4       0.3       0.3       0.2
[...]
 5 C  pz              0.2       2.1       0.1       0.0       0.0       0.6
 5 C  px              0.2       0.1       0.1       0.0       0.0       6.7
 5 C  py              4.4       4.3       1.9       0.2       0.3       0.5
 5 C  dz2             2.2       6.2       1.2       0.0       0.4       3.2
 5 C  dxz             0.2       0.0       0.1       0.0       0.0       1.8
 5 C  dyz             2.3       1.2       0.8       0.2       0.0       0.2
 5 C  dx2y2           3.4       3.8       1.8       0.1       1.1       3.8
 5 C  dxy             0.4       0.1       0.7       0.1       1.7       4.4
 6 H  s               6.2       1.8       1.7       0.9       0.2       0.0
 6 H  pz              9.5       3.0       2.3       2.0       0.5       0.0
 6 H  px              2.6       1.2       0.6       0.1       0.0       0.0
 6 H  py              2.9       0.3       2.1       0.5       0.1       0.0
 7 H  s               1.5       4.6       3.1       1.3       0.0       0.0
 7 H  pz              0.6       0.6       0.0       0.3       0.0       0.0
 7 H  px              0.0       0.1       0.4       0.4       0.0       0.0
 7 H  py              3.4      10.8       7.9       2.8       0.0       0.0
 8 H  s               1.5       0.3       3.8       0.1       0.5       0.0
 8 H  pz              0.0       0.1       0.0       0.0       0.0       0.0
 8 H  px              2.1       1.1       7.4       0.0       1.1       0.0
 8 H  py              2.0       0.1       1.1       0.2       0.2       0.0
 9 H  s               0.4       0.8       1.0       6.8       0.6       0.0
 9 H  pz              0.4       1.1       1.9      10.8       1.0       0.0
 9 H  px              0.2       0.7       1.1       2.2       0.1       0.0
 9 H  py              0.1       0.1       0.7       2.0       0.1       0.0
10 H  s               0.2       0.8       1.1       6.7       0.1       0.0
10 H  pz              0.1       0.2       0.1       1.3       0.0       0.0
10 H  px              0.1       0.0       0.0       0.6       0.0       0.0
10 H  py              0.4       1.4       3.9      13.1       0.2       0.0
11 H  s               3.7       4.6       1.5       0.1       0.3       0.1
11 H  pz              0.5       0.3       0.3       0.0       0.3       0.0
11 H  px              0.1       0.2       0.0       0.0       1.1       0.1
11 H  py              8.6      11.4       3.4       0.2       0.6       0.1
12 H  s               1.1       0.2       0.7       0.1       0.2       0.4
12 H  pz              1.0       0.4       0.6       0.1       0.3       0.5
12 H  px              1.3       0.3       0.6       0.1       0.1       0.0
12 H  py              0.3       0.0       0.3       0.1       0.1       0.5
13 H  s               0.5       2.2       0.3       0.0       0.1       0.4
13 H  pz              1.1       5.1       0.7       0.0       0.2       0.7
13 H  px              0.0       0.1       0.0       0.0       0.0       0.2

                    156       157       158       159       160       161   
                   4.29187   4.44065  21.90083  21.95738  22.03392  22.26483
                   0.00000   0.00000   0.00000   0.00000   0.00000   0.00000
                  --------  --------  --------  --------  --------  --------
 0 C  s               0.0       0.0      86.7       8.2       0.5       4.3
 1 C  s               0.0       0.0       5.9      29.9      63.0       0.8
 1 C  px              0.1       0.0       0.0       0.0       0.0       0.0
 1 C  dx2y2           0.2       0.0       0.0       0.0       0.0       0.0
 1 C  dxy             0.3       0.0       0.0       0.0       0.0       0.0
 2 C  s               2.0       6.3       2.7       2.6       0.2      93.5
 2 C  pz              0.4       0.0       0.0       0.0       0.0       0.0
 2 C  px              3.5       0.2       0.0       0.0       0.0       0.0
 2 C  py              3.2       7.2       0.0       0.0       0.0       0.1
 2 C  dz2             0.9       1.7       0.0       0.0       0.0       0.0
 2 C  dxz             0.6       0.0       0.0       0.0       0.0       0.0
 2 C  dyz             1.1       0.0       0.0       0.0       0.0       0.0
 2 C  dx2y2           0.0       4.2       0.0       0.0       0.0       0.0
 2 C  dxy            10.9       0.2       0.0       0.0       0.0       0.0
 3 O  s               0.4      18.9       0.0       0.0       0.0       0.2
 3 O  px              0.5       0.5       0.0       0.0       0.0       0.0
 3 O  py              0.1      21.6       0.0       0.0       0.0       0.2
 3 O  dz2             0.1       8.4       0.0       0.0       0.0       0.0
 3 O  dxz             0.1       0.0       0.0       0.0       0.0       0.0
 3 O  dyz             0.1       0.1       0.0       0.0       0.0       0.0
 3 O  dx2y2           0.6      23.8       0.0       0.0       0.0       0.0
 3 O  dxy             1.9       2.1       0.0       0.0       0.0       0.0
 4 O  s               5.6       1.2       0.0       0.0       0.1       0.1
 4 O  pz              2.2       0.0       0.0       0.0       0.0       0.0
 4 O  px             24.2       0.3       0.0       0.0       0.0       0.1
 4 O  py              3.8       0.3       0.0       0.0       0.0       0.0
 4 O  dz2             1.4       0.6       0.0       0.0       0.0       0.0
 4 O  dxz             0.7       0.3       0.0       0.0       0.0       0.0
 4 O  dyz             2.6       0.0       0.0       0.0       0.0       0.0
 4 O  dx2y2           0.3       0.6       0.0       0.0       0.0       0.0
 4 O  dxy            24.9       0.1       0.0       0.0       0.0       0.0
 5 C  s               0.6       0.2       4.3      59.0      35.9       0.4
 5 C  px              1.6       0.2       0.0       0.0       0.0       0.0
 5 C  py              0.5       0.0       0.0       0.0       0.0       0.0
 5 C  dz2             0.2       0.0       0.0       0.0       0.0       0.0
 5 C  dxz             0.4       0.0       0.0       0.0       0.0       0.0
 5 C  dyz             0.1       0.0       0.0       0.0       0.0       0.0
 5 C  dx2y2           1.8       0.1       0.0       0.0       0.0       0.0
 5 C  dxy             0.7       0.2       0.0       0.0       0.0       0.0
11 H  s               0.2       0.0       0.0       0.0       0.0       0.0
11 H  py              0.2       0.0       0.0       0.0       0.0       0.0

                    162       163   
                  43.68043  43.70636
                   0.00000   0.00000
                  --------  --------
 3 O  s              99.9       0.0
 4 O  s               0.0      99.9


                      *****************************
                      * MAYER POPULATION ANALYSIS *
                      *****************************

  NA   - Mulliken gross atomic population
  ZA   - Total nuclear charge
  QA   - Mulliken gross atomic charge
  VA   - Mayer's total valence
  BVA  - Mayer's bonded valence
  FA   - Mayer's free valence

  ATOM       NA         ZA         QA         VA         BVA        FA
  0 C      6.4666     6.0000    -0.4666     3.8230     3.8230     0.0000
  1 C      6.2888     6.0000    -0.2888     3.7773     3.7773    -0.0000
  2 C      5.5761     6.0000     0.4239     3.7468     3.7468     0.0000
  3 O      8.4308     8.0000    -0.4308     1.9590     1.9590     0.0000
  4 O      8.1936     8.0000    -0.1936     1.9324     1.9324     0.0000
  5 C      6.3076     6.0000    -0.3076     3.7452     3.7452     0.0000
  6 H      0.8511     1.0000     0.1489     0.9636     0.9636     0.0000
  7 H      0.8339     1.0000     0.1661     0.9594     0.9594     0.0000
  8 H      0.8473     1.0000     0.1527     0.9607     0.9607     0.0000
  9 H      0.8414     1.0000     0.1586     0.9598     0.9598     0.0000
 10 H      0.8434     1.0000     0.1566     0.9617     0.9617    -0.0000
 11 H      0.8133     1.0000     0.1867     0.9596     0.9596    -0.0000
 12 H      0.8534     1.0000     0.1466     0.9581     0.9581    -0.0000
 13 H      0.8527     1.0000     0.1473     0.9576     0.9576     0.0000

  Mayer bond orders larger than 0.100000
B(  0-C ,  1-C ) :   0.9004 B(  0-C ,  6-H ) :   0.9755 B(  0-C ,  7-H ) :   0.9751 
B(  0-C ,  8-H ) :   0.9706 B(  1-C ,  2-C ) :   0.9596 B(  1-C ,  9-H ) :   0.9631 
B(  1-C , 10-H ) :   0.9754 B(  2-C ,  3-O ) :   1.8501 B(  2-C ,  4-O ) :   1.0394 
B(  4-O ,  5-C ) :   0.8482 B(  5-C , 11-H ) :   0.9674 B(  5-C , 12-H ) :   0.9674 
B(  5-C , 13-H ) :   0.9619 

-------
TIMINGS
-------

Total SCF time: 0 days 0 hours 0 min 10 sec 

Total time                  ....      10.222 sec
Sum of individual times     ....      10.190 sec  ( 99.7%)

SCF preparation             ....       0.058 sec  (  0.6%)
Fock matrix formation       ....       9.980 sec  ( 97.6%)
  Startup                   ....       0.002 sec  (  0.0% of F)
  Split-RI-J                ....       1.907 sec  ( 19.1% of F)
  XC integration            ....       8.048 sec  ( 80.6% of F)
    Basis function eval.    ....       1.490 sec  ( 18.5% of XC)
    Density eval.           ....       2.695 sec  ( 33.5% of XC)
    XC-Functional eval.     ....       1.181 sec  ( 14.7% of XC)
    XC-Potential eval.      ....       2.470 sec  ( 30.7% of XC)
Diagonalization             ....       0.000 sec  (  0.0%)
Density matrix formation    ....       0.012 sec  (  0.1%)
Total Energy calculation    ....       0.001 sec  (  0.0%)
Population analysis         ....       0.071 sec  (  0.7%)
Orbital Transformation      ....       0.010 sec  (  0.1%)
Orbital Orthonormalization  ....       0.000 sec  (  0.0%)
DIIS solution               ....       0.054 sec  (  0.5%)
  MO trafo                  ....       0.000 sec  (  0.0 % of DIIS)
  Orb grad                  ....       0.000 sec  (  0.0 % of DIIS)
  Energy W gradient         ....       0.000 sec  (  0.0 % of DIIS)
  DIIS error                ....       0.006 sec  ( 10.7 % of DIIS)
  DIIS work                 ....       0.043 sec  ( 79.2 % of DIIS)
  Form Q                    ....       0.000 sec  (  0.0 % of DIIS)
  Form QpQm                 ....       0.000 sec  (  0.0 % of DIIS)
  Exp/Cayley                ....       0.000 sec  (  0.0 % of DIIS)
  Orb update                ....       0.000 sec  (  0.0 % of DIIS)
  Wake-sleep                ....       0.001 sec  (  1.3 % of DIIS)
SOSCF solution              ....       0.003 sec  (  0.0%)
  MO trafo                  ....       0.003 sec  ( 98.6 % of SOSCF)
  Orb grad                  ....       0.000 sec  (  0.0 % of SOSCF)
  Rot update                ....       0.000 sec  (  0.0 % of SOSCF)
  Step                      ....       0.000 sec  (  0.0 % of SOSCF)
Finished LeanSCF after  10.2 sec

Maximum memory used throughout the entire LEANSCF-calculation: 17.2 MB


-------------------------------------------------------------------------------
                          DFT DISPERSION CORRECTION                            
                                                                               
                                DFTD4 V3.4.0                                   
-------------------------------------------------------------------------------
The R2SCAN3C composite method is recognized
Using three-body term ABC
Active option DFTDOPT                   ...         5   

-------------------------   ----------------
Dispersion correction           -0.002984254
-------------------------   ----------------

------------------   -----------------
gCP correction             0.009511416
------------------   -----------------

-------------------------   --------------------
FINAL SINGLE POINT ENERGY      -307.630532264643
-------------------------   --------------------


------------------------------------------------------------------------------
                              ORCA PROPERTY CALCULATIONS
------------------------------------------------------------------------------

GBWName                                 ... sp.gbw
Number of atoms                         ...     14
Number of basis functions               ...    164
Max core memory                         ...   1024 MB

Electric properties:
Dipole moment                           ... YES
Quadrupole moment                       ...  NO
Static polarizability (Dipole/Dipole)   ...  NO
Static polarizability (Dipole/Quad.)    ...  NO
Static polarizability (Quad./Quad.)     ...  NO
Static polarizability (Velocity)        ...  NO

Atomic electric properties:
Dipole moment                           ...  NO
Quadrupole moment                       ...  NO
Static polarizability                   ...  NO

Choice of electric origin               ... Center of mass
Position of electric origin             ...    -0.000015     0.000012    -0.000007

General magnetic properties:
Magnetizability                         ...  NO

EPR properties:
g-Tensor (aka g-matrix)                 ...  NO
Zero-Field splitting spin-orbit         ...  NO
Zero-field splitting spin-spin          ...  NO
Hyperfine couplings                     ...  NO (   0 nuclei)
Quadrupole couplings                    ...  NO (   0 nuclei)
Contact density                         ...  NO (   0 nuclei)

NMR properties:
Chemical shifts                         ...  NO (   0 nuclei)
Spin-rotation constants                 ...  NO (   0 nuclei)
Spin-spin couplings                     ...  NO (   0 nuclei,    0 pairs)

Choice of magnetic origin               ... GIAO
Position of magnetic origin             ...     0.000000     0.000000     0.000000

Properties with geometric perturbations:
SCF Hessian                             ...  NO
IR spectrum                             ...  NO
VCD spectrum                            ...  NO
X-ray spectroscopy properties:
SCF XES/XAS/RIXS spectra                ...  NO


-------------
DIPOLE MOMENT
-------------

Method             : SCF
Type of density    : Electron Density
Multiplicity       :   1
Irrep              :   0
Energy             :  -307.6370594262753002 Eh
Relativity type    : 
Basis              : AO
                                X                 Y                 Z
Electronic contribution:      2.460343686      -1.714751965       1.773694733
Nuclear contribution   :     -2.374444714       2.431190166      -1.929031595
                        -----------------------------------------
Total Dipole Moment    :      0.085898972       0.716438201      -0.155336862
                        -----------------------------------------
Magnitude (a.u.)       :      0.738100176
Magnitude (Debye)      :      1.876101551



--------------------
Rotational spectrum 
--------------------
 
Rotational constants in cm-1:             0.239133             0.077199             0.067160 
Rotational constants in MHz :          7169.037758          2314.353414          2013.410432 

Dipole components along the rotational axes: 
x,y,z [a.u.] :     0.043292     0.734840     0.054112 
x,y,z [Debye]:     0.110040     1.867814     0.137543 

 

Dipole moment calculation done in   0.0 sec 

Maximum memory used throughout the entire PROP-calculation: 9.9 MB

--------------------------------
SUGGESTED CITATIONS FOR THIS RUN
--------------------------------

Below you find a list of papers that are relevant to this ORCA run
We neither can nor want to force you to cite these papers, but we appreciate if you do
You receive ORCA, which is the product of decades of hard work by many enthusiastic individuals, for free
The only thing we kindly ask in return is that you cite our papers,
We deeply appreciate it, if you show your appreciation for ORCA by not just citing the generic ORCA reference.

Please note that relegating all ORCA citations to the supporting information does *not* help us.
SI sections are not indexed - citations you put there will not count into any citation statistics
But we need these citations in order to attract the funding resources that allow us to do what we are doing

Therefore, if you are a happy ORCA user, please consider citing a few of the papers listed below in the main body of your paper

In addition to the list printed below, the program has created the file sp.bibtex that contains the list in bibtex format
You can import this file easily into all common literature databanks and citation aid programs


List of essential papers. We consider these as the minimum necessary citations

  1. Neese,F.
     Software update: the ORCA program system, version 5.0
     WIRES Comput. Molec. Sci., 2022 12(1)e1606
     doi.org/10.1002/wcms.1606
  2. Grimme,S.; Hansen,A.; Ehlert,S.; Mewes,J.
     r2SCAN-3c: A 'Swiss army knife' composite electronic-structure method
     J. Chem. Phys., 2021 154 064103
     doi.org/10.1063/5.0040021

List of papers to cite with high priority. The work reported in these papers was absolutely
necessary for this run to complete.
Our perspective: the developers of density functionals and basis sets usually get cited in chemistry papers
Good! But without the algorithms to do something with them, the functionals or basis sets would not do anything.
Hence, in our opinion, the algorithm design and method developments papers are equally worthy of getting cited

  1. Neese,F.
     An improvement of the resolution of the identity approximation for the formation of the Coulomb matrix
     J. Comp. Chem., 2003 24(14)1740-1747
     doi.org/10.1002/jcc.10318
  2. Neese,F.
     The SHARK Integral Generation and Digestion System
     J. Comp. Chem., 2022  1-16
     doi.org/10.1002/jcc.26942
  3. Lehtola,S.; Steigemann,C.; Oliveira,M.; Marques,M.
     Recent developments in Libxc - A comprehensive library of functionals for density functional theory
     Software X, 2018 7 
     doi.org/10.1016/j.softx.2017.11.002
  4. Caldeweyher,E.; Bannwarth,C.; Grimme,S.
     Extension of the D3 dispersion coefficient model
     J. Chem. Phys., 2017 147 034112
     doi.org/10.1063/1.4993215
  5. Caldeweyher,E.; Ehlert,S.; Hansen,A.; Neugebauer,H.; Spicher,S.; Bannwarth,C.; Grimme,S.
     A generally applicable atomic-charge dependent London dispersion correction
     J. Chem. Phys., 2019 150 154122
     doi.org/10.1063/1.5090222
  6. Caldeweyher,E.; Mewes,J.; Ehlert,S.; Grimme,S.
     Extension and evaluation of the D4 London-dispersion model for periodic systems
     Phys. Chem. Chem. Phys., 2020 22(16)8499-8512
     doi.org/10.1039/D0CP00502A
  7. Wittmann,L.; Gordiy,I.; Friede,M.; Helmich-Paris,B.; Grimme,S.; Hansen,A.; Bursch,M.
     Extension of the D3 and D4 London Dispersion Corrections to the full Actinides Series
     Phys. Chem. Chem. Phys., 2024 26(32)21379-21394
     doi.org/https://doi.org/10.1039/D4CP01514B 

List of suggested additional citations. These are papers that are important in the 'surrounding' of 
of this run, or papers that preceded the highly important papers. If you like your results we are grateful for a citation.

  1. Neese,F.
     The ORCA program system
     WIRES Comput. Molec. Sci., 2012 2(1)73-78
     doi.org/10.1002/wcms.81
  2. Neese,F.
     Software update: the ORCA program system, version 4.0
     WIRES Comput. Molec. Sci., 2018 8(1)1-6
     doi.org/10.1002/wcms.1327
  3. Neese,F.; Wennmohs,F.; Becker,U.; Riplinger,C.
     The ORCA quantum chemistry program package
     J. Chem. Phys., 2020 152 Art. No. L224108
     doi.org/10.1063/5.0004608

List of optional additional citations

  1. Neese,F.
     Approximate second-order SCF convergence for spin unrestricted wavefunctions
     Chem. Phys. Lett., 2000 325(1-3)93-98
     doi.org/10.1016/s0009-2614(00)00662-x

Timings for individual modules:

Sum of individual times          ...       11.091 sec (=   0.185 min)
Startup calculation              ...        0.675 sec (=   0.011 min)   6.1 %
SCF iterations                   ...       10.372 sec (=   0.173 min)  93.5 %
Property calculations            ...        0.044 sec (=   0.001 min)   0.4 %
                             ****ORCA TERMINATED NORMALLY****
TOTAL RUN TIME: 0 days 0 hours 0 minutes 11 seconds 200 msec
