 Entering Gaussian System
 *********************************************
 Gaussian 98:
 frequency output generated by the xtb code
 *********************************************
                         Standard orientation:
 --------------------------------------------------------------------
  Center     Atomic     Atomic              Coordinates (Angstroms)
  Number     Number      Type              X           Y           Z
 --------------------------------------------------------------------
    1          6             0       -1.251071    0.304635   -0.017483
    2          6             0       -0.007699   -0.574836   -0.017629
    3          7             0        1.185321    0.257810   -0.016693
    4          1             0       -1.213138    0.992276   -0.857564
    5          1             0       -2.146607   -0.305964   -0.096810
    6          1             0       -1.305387    0.885227    0.901258
    7          1             0        0.016260   -1.176115   -0.931170
    8          1             0       -0.053011   -1.268799    0.840511
    9          1             0        1.209253    0.831020    0.820773
   10          1             0        2.021051   -0.316561   -0.023036
 --------------------------------------------------------------------
     1 basis functions        1 primitive gaussians
     1 alpha electrons        1 beta electrons

 Harmonic frequencies (cm**-1), IR intensities (km*mol⁻¹),
 Raman scattering activities (A**4/amu), Raman depolarization ratios,
 reduced masses (AMU), force constants (mDyne/A) and normal coordinates:
                      1                      2                      3
                        a                      a                      a 
 Frequencies --   216.5790               277.9028               392.5719
 Red. masses --     1.0874                 1.0884                 2.4801
 Frc consts  --     0.0000                 0.0000                 0.0000
 IR Inten    --     6.0209                45.8070                 4.7542
 Raman Activ --     0.0000                 0.0000                 0.0000
 Depolar     --     0.0000                 0.0000                 0.0000
 Atom AN      X      Y      Z        X      Y      Z        X      Y      Z
   1   6     0.02   0.01   0.03    -0.05  -0.02  -0.13     0.43   0.11   0.00
   2   6    -0.01  -0.03   0.17     0.00   0.03   0.22     0.00  -0.41   0.01
   3   7    -0.00  -0.03  -0.22    -0.04   0.09   0.02    -0.50   0.19   0.01
   4   1     0.30   0.32   0.28     0.10   0.03   0.00     0.29   0.02  -0.00
   5   1     0.02   0.05  -0.52     0.01  -0.02  -0.20    -0.02   0.24   0.02
   6   1    -0.29  -0.35   0.21    -0.15  -0.05  -0.02     0.27   0.06  -0.01
   7   1    -0.02  -0.07   0.09     0.01  -0.05   0.10     0.02  -0.11  -0.00
   8   1     0.02   0.05   0.10     0.00   0.06   0.11     0.02  -0.11   0.01
   9   1    -0.06   0.19  -0.19     0.35  -0.41   0.29    -0.21   0.00   0.04
  10   1    -0.00  -0.01   0.14    -0.00   0.04  -0.67    -0.00   0.24  -0.10
                      4                      5                      6
                        a                      a                      a 
 Frequencies --   830.6483               915.9867               953.9697
 Red. masses --     1.0874                 1.4299                 1.5771
 Frc consts  --     0.0000                 0.0000                 0.0000
 IR Inten    --    17.2991                88.5093                26.8561
 Raman Activ --     0.0000                 0.0000                 0.0000
 Depolar     --     0.0000                 0.0000                 0.0000
 Atom AN      X      Y      Z        X      Y      Z        X      Y      Z
   1   6    -0.01   0.02  -0.11     0.20   0.09  -0.09    -0.45   0.05  -0.07
   2   6     0.01  -0.02  -0.25     0.12   0.17   0.03     0.04  -0.30   0.02
   3   7     0.04   0.05   0.02    -0.28  -0.33   0.19     0.27   0.02   0.13
   4   1    -0.29   0.24   0.16    -0.28   0.11   0.04     0.02   0.10   0.05
   5   1    -0.02   0.01   0.15     0.23  -0.25   0.06    -0.34   0.34   0.05
   6   1     0.28  -0.25   0.16    -0.01  -0.12   0.06     0.17  -0.01   0.02
   7   1     0.13  -0.43   0.23     0.11   0.07  -0.01     0.20  -0.03  -0.02
   8   1    -0.13   0.39   0.26    -0.26  -0.01  -0.03    -0.03  -0.11  -0.03
   9   1    -0.11  -0.18   0.14     0.07   0.34  -0.27     0.16   0.29  -0.18
  10   1     0.00  -0.01   0.08     0.11   0.22  -0.33     0.21   0.23  -0.20
                      7                      8                      9
                        a                      a                      a 
 Frequencies --   993.6243              1135.0316              1148.3826
 Red. masses --     1.3413                 2.2469                 1.9962
 Frc consts  --     0.0000                 0.0000                 0.0000
 IR Inten    --     0.8125                11.0536                61.1933
 Raman Activ --     0.0000                 0.0000                 0.0000
 Depolar     --     0.0000                 0.0000                 0.0000
 Atom AN      X      Y      Z        X      Y      Z        X      Y      Z
   1   6    -0.15   0.33   0.11     0.24  -0.24   0.05     0.11   0.21  -0.18
   2   6     0.19  -0.24  -0.07    -0.56   0.04  -0.12    -0.21  -0.42   0.29
   3   7     0.13  -0.10  -0.03     0.34   0.13   0.11     0.17   0.31  -0.16
   4   1    -0.15  -0.02  -0.06     0.14  -0.11  -0.02    -0.34   0.15   0.03
   5   1     0.13  -0.16  -0.06     0.06  -0.05  -0.02     0.17  -0.19   0.09
   6   1    -0.37   0.16  -0.04     0.05  -0.04  -0.01    -0.03  -0.13   0.07
   7   1    -0.26  -0.14   0.02    -0.39  -0.06   0.02     0.06   0.13  -0.08
   8   1     0.07   0.01   0.04    -0.24   0.11   0.03    -0.22  -0.28  -0.10
   9   1    -0.37  -0.16   0.10     0.01   0.13  -0.05     0.15  -0.05   0.06
  10   1     0.31   0.38  -0.01     0.21   0.24  -0.11    -0.05  -0.09   0.14
                     10                     11                     12
                        a                      a                      a 
 Frequencies --  1226.3427              1279.0466              1361.3480
 Red. masses --     1.5318                 1.1324                 1.3409
 Frc consts  --     0.0000                 0.0000                 0.0000
 IR Inten    --     6.3945                 8.5008                13.6506
 Raman Activ --     0.0000                 0.0000                 0.0000
 Depolar     --     0.0000                 0.0000                 0.0000
 Atom AN      X      Y      Z        X      Y      Z        X      Y      Z
   1   6     0.04   0.17   0.29    -0.03  -0.10   0.18     0.02  -0.13   0.02
   2   6    -0.09  -0.26  -0.37     0.04   0.12   0.06     0.47  -0.09  -0.05
   3   7    -0.02   0.15   0.14     0.04  -0.04  -0.23    -0.07   0.14   0.05
   4   1     0.06  -0.16  -0.10     0.17  -0.11  -0.02    -0.11   0.06   0.06
   5   1     0.13  -0.12  -0.12    -0.04   0.04  -0.05    -0.15   0.19  -0.02
   6   1    -0.31   0.18  -0.05    -0.05   0.11  -0.04    -0.11   0.10  -0.08
   7   1     0.30  -0.28   0.06     0.47   0.09  -0.01    -0.55  -0.04  -0.02
   8   1    -0.06   0.13   0.06    -0.68  -0.00  -0.04    -0.49   0.03   0.01
   9   1     0.30   0.20  -0.10    -0.18  -0.20   0.10     0.14   0.08  -0.02
  10   1    -0.17  -0.20  -0.05     0.12   0.14   0.08    -0.15  -0.17   0.01
                     13                     14                     15
                        a                      a                      a 
 Frequencies --  1407.4386              1489.4225              1494.7542
 Red. masses --     1.2615                 1.0549                 1.0818
 Frc consts  --     0.0000                 0.0000                 0.0000
 IR Inten    --     9.0955                 1.6106                 2.6861
 Raman Activ --     0.0000                 0.0000                 0.0000
 Depolar     --     0.0000                 0.0000                 0.0000
 Atom AN      X      Y      Z        X      Y      Z        X      Y      Z
   1   6     0.38  -0.21   0.03    -0.04   0.00   0.21    -0.00   0.04  -0.00
   2   6    -0.16   0.03   0.02     0.00  -0.01   0.04     0.02  -0.26  -0.03
   3   7     0.02  -0.05  -0.01    -0.01  -0.01  -0.01    -0.04  -0.04   0.00
   4   1    -0.48   0.12   0.10    -0.38  -0.14  -0.11     0.02  -0.09  -0.08
   5   1    -0.25   0.42  -0.05     0.06   0.00  -0.71    -0.02   0.02   0.02
   6   1    -0.40   0.16  -0.14     0.49   0.13  -0.04    -0.02  -0.11   0.07
   7   1     0.19   0.05  -0.02    -0.03   0.03  -0.01     0.01   0.55  -0.37
   8   1     0.16   0.03   0.02     0.02  -0.00   0.01     0.01   0.53   0.42
   9   1    -0.07  -0.02   0.00     0.03  -0.01   0.01     0.05  -0.01   0.00
  10   1     0.04   0.04  -0.03     0.02   0.03   0.03     0.02   0.03   0.03
                     16                     17                     18
                        a                      a                      a 
 Frequencies --  1500.3977              1566.6533              2807.9410
 Red. masses --     1.0609                 1.0934                 1.0727
 Frc consts  --     0.0000                 0.0000                 0.0000
 IR Inten    --     1.9872                27.8494               124.9480
 Raman Activ --     0.0000                 0.0000                 0.0000
 Depolar     --     0.0000                 0.0000                 0.0000
 Atom AN      X      Y      Z        X      Y      Z        X      Y      Z
   1   6     0.10   0.19   0.02    -0.02   0.01   0.01    -0.00  -0.00   0.00
   2   6     0.05   0.08   0.02    -0.00  -0.06   0.07    -0.00   0.13  -0.22
   3   7     0.01   0.01   0.00     0.24   0.09   0.09     0.02   0.01  -0.01
   4   1    -0.12  -0.49  -0.41    -0.00   0.02   0.01    -0.00   0.02  -0.02
   5   1    -0.16   0.26  -0.00     0.03  -0.04  -0.04     0.01   0.01   0.00
   6   1    -0.13  -0.52   0.33     0.05   0.03  -0.01     0.00  -0.01  -0.01
   7   1    -0.03  -0.08   0.06     0.06   0.08  -0.04    -0.00   0.08   0.04
   8   1    -0.04  -0.09  -0.07    -0.04   0.01   0.03    -0.03  -0.59   0.76
   9   1    -0.05   0.00  -0.00    -0.66   0.13  -0.08     0.00  -0.01   0.00
  10   1    -0.02  -0.03  -0.03    -0.27  -0.38  -0.47    -0.00   0.00   0.01
                     19                     20                     21
                        a                      a                      a 
 Frequencies --  2958.3677              3028.1932              3042.7245
 Red. masses --     1.0664                 1.0772                 1.0672
 Frc consts  --     0.0000                 0.0000                 0.0000
 IR Inten    --    41.6724                46.7326                34.8282
 Raman Activ --     0.0000                 0.0000                 0.0000
 Depolar     --     0.0000                 0.0000                 0.0000
 Atom AN      X      Y      Z        X      Y      Z        X      Y      Z
   1   6     0.01   0.01   0.02     0.00   0.13   0.23     0.21   0.13   0.01
   2   6     0.01  -0.15  -0.19    -0.00   0.02   0.03     0.01   0.01   0.00
   3   7    -0.01  -0.01  -0.00     0.00  -0.00  -0.00     0.00  -0.00  -0.00
   4   1     0.00   0.01  -0.01     0.01   0.06  -0.02     0.03   0.04  -0.02
   5   1    -0.03  -0.02   0.00    -0.05  -0.02   0.03    -0.79  -0.55  -0.07
   6   1     0.01  -0.05  -0.08     0.04  -0.51  -0.81     0.03   0.05   0.05
   7   1    -0.02   0.51   0.81    -0.00  -0.05  -0.08     0.00  -0.01  -0.02
   8   1     0.01   0.03  -0.11     0.00   0.00  -0.00    -0.00  -0.01   0.01
   9   1    -0.00  -0.01  -0.01    -0.00   0.00   0.00    -0.00   0.00   0.00
  10   1    -0.00  -0.00   0.00    -0.00   0.00   0.00    -0.00   0.00  -0.00
                     22                     23                     24
                        a                      a                      a 
 Frequencies --  3053.7676              3383.7175              3417.5434
 Red. masses --     1.0697                 1.0464                 1.0900
 Frc consts  --     0.0000                 0.0000                 0.0000
 IR Inten    --    26.4964                12.5171                13.3484
 Raman Activ --     0.0000                 0.0000                 0.0000
 Depolar     --     0.0000                 0.0000                 0.0000
 Atom AN      X      Y      Z        X      Y      Z        X      Y      Z
   1   6     0.02   0.17  -0.18     0.00  -0.00  -0.00    -0.00  -0.00  -0.00
   2   6    -0.00   0.01  -0.01    -0.00   0.00  -0.01     0.00  -0.01  -0.00
   3   7     0.00  -0.00  -0.00    -0.12  -0.05  -0.15     0.17  -0.20  -0.12
   4   1    -0.04  -0.60   0.75     0.00  -0.00   0.00    -0.00   0.00  -0.00
   5   1    -0.02   0.00  -0.03     0.00   0.00   0.00     0.00   0.00   0.00
   6   1     0.01  -0.01  -0.09    -0.00   0.00   0.00    -0.00   0.00   0.01
   7   1    -0.00   0.00   0.00    -0.00   0.00   0.01    -0.00   0.00   0.01
   8   1    -0.00  -0.01   0.02     0.00   0.00   0.00    -0.00   0.00  -0.00
   9   1    -0.00   0.00   0.00    -0.01   0.49   0.65     0.03   0.29   0.44
  10   1    -0.00   0.00   0.00     0.44  -0.31  -0.05    -0.66   0.45   0.01
