
                                 *****************
                                 * O   R   C   A *
                                 *****************

                                            #,                                       
                                            ###                                      
                                            ####                                     
                                            #####                                    
                                            ######                                   
                                           ########,                                 
                                     ,,################,,,,,                         
                               ,,#################################,,                 
                          ,,##########################################,,             
                       ,#########################################, ''#####,          
                    ,#############################################,,   '####,        
                  ,##################################################,,,,####,       
                ,###########''''           ''''###############################       
              ,#####''   ,,,,##########,,,,          '''####'''          '####       
            ,##' ,,,,###########################,,,                        '##       
           ' ,,###''''                  '''############,,,                           
         ,,##''                                '''############,,,,        ,,,,,,###''
      ,#''                                            '''#######################'''  
     '                                                          ''''####''''         
             ,#######,   #######,   ,#######,      ##                                
            ,#'     '#,  ##    ##  ,#'     '#,    #''#        ,####,   ,####,        
            ##       ##  ##   ,#'  ##            #'  '#       #'       #'  '#        
            ##       ##  #######   ##           ,######,      #####,   #    #        
            '#,     ,#'  ##    ##  '#,     ,#' ,#      #,     #,   #   #,  ,#        
             '#######'   ##     ##  '#######'  #'      '#     '####' # '####'        



                #########################################################
                #                        -***-                          #
                #          Department of theory and spectroscopy        #
                #                                                       #
                #                      Frank Neese                      #
                #                                                       #
                #     Directorship, Architecture, Infrastructure        #
                #                    SHARK, DRIVERS                     #
                #        Core code/Algorithms in most modules           #
                #                                                       #
                #        Max Planck Institute fuer Kohlenforschung      #
                #                Kaiser Wilhelm Platz 1                 #
                #                 D-45470 Muelheim/Ruhr                 #
                #                      Germany                          #
                #                                                       #
                #                  All rights reserved                  #
                #                        -***-                          #
                #########################################################


                         Program Version 6.0.1  -  RELEASE   -


 With contributions from (in alphabetic order):
[Max-Planck-Institut fuer Kohlenforschung]                               
  Daniel Aravena         : Magnetic Suceptibility                        
  Michael Atanasov       : Ab Initio Ligand Field Theory (pilot matlab implementation)
  Alexander A. Auer      : GIAO ZORA, VPT2 properties, NMR spectrum      
  Ute Becker             : All parallelization in ORCA, NUMFREQ, NUMCALC 
  Giovanni Bistoni       : ED, misc. LED, open-shell LED, HFLD           
  Martin Brehm           : Molecular dynamics                            
  Dmytro Bykov           : pre 5.0 version of the SCF Hessian            
  Marcos Casanova-Páez   : Triplet and SCS-CIS(D). UHF-(DLPNO)-IP/EA/STEOM-CCSD. UHF-CVS-IP/STEOM-CCSD   
  Vijay G. Chilkuri      : MRCI spin determinant printing, contributions to CSF-ICE 
  Pauline Colinet        : FMM embedding                                 
  Dipayan Datta          : RHF DLPNO-CCSD density                        
  Achintya Kumar Dutta   : EOM-CC, STEOM-CC                              
  Nicolas Foglia         : Exact transition moments, OPA infrastructure, MCD improvements    
  Dmitry Ganyushin       : Spin-Orbit,Spin-Spin,Magnetic field MRCI      
  Miquel Garcia-Rates    : C-PCM and meta-GGA Hessian, CCSD/C-PCM, Gaussian charge scheme 
  Tiago L. C. Gouveia    : GS-ROHF, GS-ROCIS                             
  Yang Guo               : DLPNO-NEVPT2, F12-NEVPT2, CIM, IAO-localization        
  Andreas Hansen         : Spin unrestricted coupled pair/coupled cluster methods 
  Ingolf Harden          : AUTO-CI MPn and infrastructure                
  Benjamin Helmich-Paris : MC-RPA, TRAH-(SCF,CASSCF), AVAS, COSX integrals, SCF dyn. polar. 
  Lee Huntington         : MR-EOM, pCC                                   
  Robert Izsak           : Overlap fitted RIJCOSX, COSX-SCS-MP3, EOM     
  Riya Kayal             : Wick's Theorem for AUTO-CI, AUTO-CI UHF-CCSDT 
  Emily Kempfer          : AUTO-CI, RHF CISDT and CCSDT                  
  Christian Kollmar      : KDIIS, OOCD, Brueckner-CCSD(T), CCSD density, CASPT2, CASPT2-K, improved NEVPT2 
  Axel Koslowski         : Symmetry handling                             
  Simone Kossmann        : meta-GGA functionals, TD-DFT gradient, OOMP2, (MP2 Hessian; deprecated post 5.0) 
  Lucas Lang             : DCDCAS                                        
  Marvin Lechner         : AUTO-CI (C++ implementation), FIC-MRCC        
  Spencer Leger          : CASSCF response                               
  Dagmar Lenk            : GEPOL surface, SMD, ORCA-2-JSON               
  Dimitrios Liakos       : Extrapolation schemes; Compound Job, initial MDCI parallelization 
  Dimitrios Manganas     : Further ROCIS development; embedding schemes. LFT, Crystal Embedding 
  Dimitrios Pantazis     : SARC Basis sets                               
  Anastasios Papadopoulos: AUTO-CI, single reference methods and gradients 
  Taras Petrenko         : pre 6.0 DFT Hessian and TD-DFT gradient, (ASA, deprecated), ECA, 1-Electron XAS/XES, NRVS 
  Peter Pinski           : DLPNO-MP2, DLPNO-MP2 Gradient                 
  Christoph Reimann      : Effective Core Potentials                     
  Marius Retegan         : Local ZFS, SOC                                
  Christoph Riplinger    : Optimizer, TS searches, QM/MM, DLPNO-CCSD(T), (RO)-DLPNO pert. Triples 
  Michael Roemelt        : Original ROCIS implementation                 
  Masaaki Saitow         : Open-shell DLPNO-CCSD energy and density      
  Barbara Sandhoefer     : DKH picture change effects                    
  Kantharuban Sivalingam : CASSCF convergence/infrastructure, NEVPT2 and variants, FIC-MRCI 
  Bernardo de Souza      : ESD, SOC TD-DFT                               
  Georgi L. Stoychev     : AutoAux, RI-MP2 NMR, DLPNO-MP2 response, X2C  
  Van Anh Tran           : RI-MP2 g-tensors                              
  Willem Van den Heuvel  : Paramagnetic NMR                              
  Zikuan Wang            : NOTCH, Electric field optimization            
  Frank Wennmohs         : Technical directorship and infrastructure     
  Hang Xu                : AUTO-CI-Response properties                   
                                                                         
[FACCTs GmbH]                                                            
  Markus Bursch, Miquel Garcia-Rates, Christoph Riplinger, Bernardo de Souza, Georgi L. Stoychev 
                                                                 
  APM, Basis sets (HGBS, AHGBS, def-TZVP (Ac-Lr), def2-XVPD (La-Lu)), CI-OPT, improved COSX, DLPNO-Multilevel,           
  DOCKER, DRACO, updates on ESD, GOAT, IRC, LR-CPCM, MBIS, meta-GGA TD-DFT gradient, ML-optimized integration grids, 
  MM, NACMEs, nearIR, NEB, NEB-TS, NL-DFT gradient (VV10), 2- and 3-layer-ONIOM, interface openCOSMO-RS, QMMM,   
  Crystal-QMMM, SF, symmetry and pop. for TD-DFT, r2SCAN hybrids, SOLVATOR                                   
                                                                         
[Other institutions]                                                     
  V. Asgeirsson          : NEB                                           
  Christoph Bannwarth    : sTDA-DFT, sTD-DFT, PBEh-3c, B97-3c, D3        
  Sebastian Ehlert       : rSCAN, r2SCAN, r2SCAN-3c, D4, dhf basis sets  
  Marvin Friede          : D4 for Fr, Ra, Ac-Lr                          
  Lars Goerigk           : TD-DFT with DH, B97 family of functionals     
  Stefan Grimme          : VdW corrections, initial TS optimization, DFT functionals, gCP, sTDA/sTD-DF 
  Waldemar Hujo          : DFT-NL                                        
  H. Jonsson             : NEB                                           
  Holger Kruse           : gCP                                           
  Marcel Mueller         : wB97X-3c, vDZP basis set                      
  Hagen Neugebauer       : wr2SCAN                                       
  Tobias Risthaus        : range-separated hybrid DFT                    
  Lukas Wittmann         : regularized MP2, r2SCAN double-hybrids, wr2SCAN        
                                                                         
We gratefully acknowledge several colleagues who have allowed us to      
interface, adapt or use parts of their codes:                            
  Ed Valeev, F. Pavosevic, A. Kumar             : LibInt (2-el integral package), F12 methods 
  Garnet Chan, S. Sharma, J. Yang, R. Olivares  : DMRG                   
  Ulf Ekstrom                                   : XCFun DFT Library      
  Mihaly Kallay                                 : mrcc  (arbitrary order and MRCC methods)
  Frank Weinhold                                : gennbo (NPA and NBO analysis)           
  Simon Mueller                                 : openCOSMO-RS                            
  Christopher J. Cramer and Donald G. Truhlar   : smd solvation model                     
  S Lehtola, MJT Oliveira, MAL Marques          : LibXC Library                           
  Liviu Ungur et al                             : ANISO software                          


 Your calculation uses the libint2 library for the computation of 2-el integrals
 For citations please refer to: http://libint.valeyev.net

 Your ORCA version has been built with support for libXC version: 6.2.2
 For citations please refer to: https://libxc.gitlab.io

 This ORCA versions uses:
   CBLAS   interface :  Fast vector & matrix operations
   LAPACKE interface :  Fast linear algebra routines
   SCALAPACK package :  Parallel linear algebra routines
   Shared memory     :  Shared parallel matrices
   BLAS/LAPACK       :  OpenBLAS 0.3.27  USE64BITINT DYNAMIC_ARCH NO_AFFINITY Zen SINGLE_THREADED
        Core in use  :  Zen
   Copyright (c) 2011-2014, The OpenBLAS Project


Your calculation utilizes the geometrical counterpoise correction gCP
Please cite in your paper:
H.Kruse, S. Grimme J.Chem.Phys., 136, (2012), 154101 
   

Your calculation utilizes the atom-pairwise dispersion correction
based on EEQ partial charges (D4)


================================================================================

----- Orbital basis set information -----
Your calculation utilizes the basis: def2-mTZVPP
   Stefan Grimme, Andreas Hansen, Sebastian Ehlert, and Jan-Michael Mewes 
   J. Chem. Phys. 154, 064103 (2021). DOI: 10.1063/5.0040021

----- AuxJ basis set information -----
Your calculation utilizes the auxiliary basis: def2/J
   F. Weigend, Phys. Chem. Chem. Phys. 8, 1057 (2006).

================================================================================
                                        WARNINGS
                       Please study these warnings very carefully!
================================================================================

WARNING: Old DensityContainer found on disk!
         Will remove this file - 
         If you want to keep old densities, please start your calculation with a different basename. 



WARNING: SCAN, rSCAN, or r2SCAN functional requested.
  ===> : libXC variant has now been activated.



================================================================================
                                       INPUT FILE
================================================================================
NAME = sp.inp
|  1> ! r2scan-3c def2/J RI DEFGRID2 scfconv6 printgap
|  2> %output
|  3>     printlevel normal
|  4> end
|  5> * xyz 0 1
|  6> C -2.5227630795 0.7192137893 9.66927e-05
|  7> C -1.2176944124 -0.0196831318 -0.0014444429
|  8> C -1.1907471851 -1.4063127937 -0.0011416814
|  9> C 0.0064173631 -2.0967484947 0.0009405857
| 10> C 1.1993919094 -1.3974296318 0.0009660804
| 11> C 1.2119920772 -0.0112421975 -3.68199e-05
| 12> C -0.0062327372 0.6749744185 0.0003888322
| 13> O -0.0490098783 2.0421463403 0.0012518873
| 14> C 2.512372094 0.7465690785 -0.0015631471
| 15> H -3.1439817888 0.3916698401 -0.832040262
| 16> H -3.0659487474 0.5218942244 0.923666221
| 17> H -2.3514825913 1.7877414919 -0.083451921
| 18> H -2.1270502839 -1.9453213386 -0.0028310257
| 19> H 0.0119147323 -3.1762437563 0.0015034811
| 20> H 2.1380439761 -1.9325490412 0.0014837468
| 21> H 0.8511790463 2.3857416644 -0.0005175792
| 22> H 3.3476238421 0.051545197 -0.0086209832
| 23> H 2.5984200012 1.3815604499 -0.8858422879
| 24> H 2.6058280928 1.3728229123 0.8881558109
| 25> *
| 26> 
| 27>                          ****END OF INPUT****
================================================================================

                       ****************************
                       * Single Point Calculation *
                       ****************************

---------------------------------
CARTESIAN COORDINATES (ANGSTROEM)
---------------------------------
  C     -2.522763    0.719214    0.000097
  C     -1.217694   -0.019683   -0.001444
  C     -1.190747   -1.406313   -0.001142
  C      0.006417   -2.096748    0.000941
  C      1.199392   -1.397430    0.000966
  C      1.211992   -0.011242   -0.000037
  C     -0.006233    0.674974    0.000389
  O     -0.049010    2.042146    0.001252
  C      2.512372    0.746569   -0.001563
  H     -3.143982    0.391670   -0.832040
  H     -3.065949    0.521894    0.923666
  H     -2.351483    1.787741   -0.083452
  H     -2.127050   -1.945321   -0.002831
  H      0.011915   -3.176244    0.001503
  H      2.138044   -1.932549    0.001484
  H      0.851179    2.385742   -0.000518
  H      3.347624    0.051545   -0.008621
  H      2.598420    1.381560   -0.885842
  H      2.605828    1.372823    0.888156

----------------------------
CARTESIAN COORDINATES (A.U.)
----------------------------
  NO LB      ZA    FRAG     MASS         X           Y           Z
   0 C     6.0000    0    12.011   -4.767331    1.359117    0.000183
   1 C     6.0000    0    12.011   -2.301109   -0.037196   -0.002730
   2 C     6.0000    0    12.011   -2.250186   -2.657546   -0.002157
   3 C     6.0000    0    12.011    0.012127   -3.962280    0.001777
   4 C     6.0000    0    12.011    2.266522   -2.640759    0.001826
   5 C     6.0000    0    12.011    2.290333   -0.021245   -0.000070
   6 C     6.0000    0    12.011   -0.011778    1.275517    0.000735
   7 O     8.0000    0    15.999   -0.092615    3.859097    0.002366
   8 C     6.0000    0    12.011    4.747695    1.410811   -0.002954
   9 H     1.0000    0     1.008   -5.941265    0.740149   -1.572328
  10 H     1.0000    0     1.008   -5.793803    0.986237    1.745476
  11 H     1.0000    0     1.008   -4.443658    3.378342   -0.157701
  12 H     1.0000    0     1.008   -4.019543   -3.676125   -0.005350
  13 H     1.0000    0     1.008    0.022516   -6.002231    0.002841
  14 H     1.0000    0     1.008    4.040318   -3.651988    0.002804
  15 H     1.0000    0     1.008    1.608495    4.508398   -0.000978
  16 H     1.0000    0     1.008    6.326092    0.097406   -0.016291
  17 H     1.0000    0     1.008    4.910302    2.610771   -1.673999
  18 H     1.0000    0     1.008    4.924301    2.594259    1.678371

--------------------------------
INTERNAL COORDINATES (ANGSTROEM)
--------------------------------
 C      0   0   0     0.000000000000     0.00000000     0.00000000
 C      1   0   0     1.499725061788     0.00000000     0.00000000
 C      2   1   0     1.386891511253   120.63073379     0.00000000
 C      3   2   1     1.381994482087   121.08646481   180.16909526
 C      4   3   2     1.382835905224   119.64807470   359.91463483
 C      5   4   3     1.386245062407   120.89951428     0.04979156
 C      2   1   3     1.396492700863   120.65226706   180.17172445
 O      7   2   1     1.367841252640   118.03804349   359.88788510
 C      6   5   4     1.505080877495   120.75279664   180.06898713
 H      1   2   3     1.088875399125   110.33287670   305.32555179
 H      1   2   3     1.089479854843   110.21230860    64.50147858
 H      1   2   3     1.085388791039   110.34255322   184.68156076
 H      3   2   1     1.080368713996   118.81467660     0.18496441
 H      4   3   2     1.079509406043   120.26494680   179.97834119
 H      5   4   3     1.080472467310   119.93408357   180.06766318
 H      8   7   2     0.963535665000   109.09924036   180.18983221
 H      9   6   5     1.086624816397   110.00368578     0.38855188
 H      9   6   5     1.092047564413   111.20280269   119.76976154
 H      9   6   5     1.092029171902   111.21455298   240.98301838

---------------------------
INTERNAL COORDINATES (A.U.)
---------------------------
 C      0   0   0     0.000000000000     0.00000000     0.00000000
 C      1   0   0     2.834069642958     0.00000000     0.00000000
 C      2   1   0     2.620845133728   120.63073379     0.00000000
 C      3   2   1     2.611591089735   121.08646481   180.16909526
 C      4   3   2     2.613181149027   119.64807470   359.91463483
 C      5   4   3     2.619623522451   120.89951428     0.04979156
 C      2   1   3     2.638988752652   120.65226706   180.17172445
 O      7   2   1     2.584845362169   118.03804349   359.88788510
 C      6   5   4     2.844190667867   120.75279664   180.06898713
 H      1   2   3     2.057676298310   110.33287670   305.32555179
 H      1   2   3     2.058818554077   110.21230860    64.50147858
 H      1   2   3     2.051087563891   110.34255322   184.68156076
 H      3   2   1     2.041600993110   118.81467660     0.18496441
 H      4   3   2     2.039977136414   120.26494680   179.97834119
 H      5   4   3     2.041797058458   119.93408357   180.06766318
 H      8   7   2     1.820818527116   109.09924036   180.18983221
 H      9   6   5     2.053423313313   110.00368578     0.38855188
 H      9   6   5     2.063670821956   111.20280269   119.76976154
 H      9   6   5     2.063636065148   111.21455298   240.98301838

---------------------
BASIS SET INFORMATION
---------------------
There are 3 groups of distinct atoms

 Group   1 Type C   : 11s6p1d contracted to 5s3p1d pattern {62111/411/1}
 Group   2 Type O   : 11s6p2d contracted to 5s3p2d pattern {62111/411/11}
 Group   3 Type H   : 4s1p contracted to 2s1p pattern {31/1}

Atom   0C    basis set group =>   1
Atom   1C    basis set group =>   1
Atom   2C    basis set group =>   1
Atom   3C    basis set group =>   1
Atom   4C    basis set group =>   1
Atom   5C    basis set group =>   1
Atom   6C    basis set group =>   1
Atom   7O    basis set group =>   2
Atom   8C    basis set group =>   1
Atom   9H    basis set group =>   3
Atom  10H    basis set group =>   3
Atom  11H    basis set group =>   3
Atom  12H    basis set group =>   3
Atom  13H    basis set group =>   3
Atom  14H    basis set group =>   3
Atom  15H    basis set group =>   3
Atom  16H    basis set group =>   3
Atom  17H    basis set group =>   3
Atom  18H    basis set group =>   3
---------------------------------
AUXILIARY/J BASIS SET INFORMATION
---------------------------------
There are 3 groups of distinct atoms

 Group   1 Type C   : 12s5p4d2f1g contracted to 6s4p3d1f1g pattern {711111/2111/211/2/1}
 Group   2 Type O   : 12s5p4d2f1g contracted to 6s4p3d1f1g pattern {711111/2111/211/2/1}
 Group   3 Type H   : 5s2p1d contracted to 3s1p1d pattern {311/2/1}

Atom   0C    basis set group =>   1
Atom   1C    basis set group =>   1
Atom   2C    basis set group =>   1
Atom   3C    basis set group =>   1
Atom   4C    basis set group =>   1
Atom   5C    basis set group =>   1
Atom   6C    basis set group =>   1
Atom   7O    basis set group =>   2
Atom   8C    basis set group =>   1
Atom   9H    basis set group =>   3
Atom  10H    basis set group =>   3
Atom  11H    basis set group =>   3
Atom  12H    basis set group =>   3
Atom  13H    basis set group =>   3
Atom  14H    basis set group =>   3
Atom  15H    basis set group =>   3
Atom  16H    basis set group =>   3
Atom  17H    basis set group =>   3
Atom  18H    basis set group =>   3

Checking for AutoStart:
The File: sp.gbw exists
Trying to determine its content:
     ... Fine, the file contains calculation information
     ... Fine, the calculation information was read
     ... Fine, the file contains a basis set
     ... Fine, the basis set was read
     ... Fine, the file contains a geometry
     ... Fine, the geometry was read
     ... Fine, the file contains a set of orbitals
     ... Fine, the orbitals can be read
     => possible old guess file was deleted
     => GBW file was renamed to GES file
     => GES file is set as startup file
     => Guess is set to MORead
     ... now leaving AutoStart

------------------------------------------------------------------------------
                             ORCA STARTUP CALCULATIONS
                           -- RI-GTO INTEGRALS CHOSEN --
------------------------------------------------------------------------------
------------------------------------------------------------------------------
                   ___                                                        
                  /   \      - P O W E R E D   B Y -                         
                 /     \                                                     
                 |  |  |   _    _      __       _____    __    __             
                 |  |  |  | |  | |    /  \     |  _  \  |  |  /  |          
                  \  \/   | |  | |   /    \    | | | |  |  | /  /          
                 / \  \   | |__| |  /  /\  \   | |_| |  |  |/  /          
                |  |  |   |  __  | /  /__\  \  |    /   |      \           
                |  |  |   | |  | | |   __   |  |    \   |  |\   \          
                \     /   | |  | | |  |  |  |  | |\  \  |  | \   \       
                 \___/    |_|  |_| |__|  |__|  |_| \__\ |__|  \__/        
                                                                              
                      - O R C A' S   B I G   F R I E N D -                    
                                      &                                       
                       - I N T E G R A L  F E E D E R -                       
                                                                              
 v1 FN, 2020, v2 2021, v3 2022-2024                                           
------------------------------------------------------------------------------


----------------------
SHARK INTEGRAL PACKAGE
----------------------

Number of atoms                             ...     19
Number of basis functions                   ...    226
Number of shells                            ...    112
Maximum angular momentum                    ...      2
Integral batch strategy                     ... SHARK/LIBINT Hybrid
RI-J (if used) integral strategy            ... SPLIT-RIJ (Revised 2003 algorithm where possible)
Printlevel                                  ...      1
Contraction scheme used                     ... SEGMENTED contraction
Prescreening option                         ... SCHWARTZ
   Thresh                                   ... 1.000e-10
   Tcut                                     ... 1.000e-11
   Tpresel                                  ... 1.000e-11 
Coulomb Range Separation                    ... NOT USED
Exchange Range Separation                   ... NOT USED
Multipole approximations                    ... NOT USED
Finite Nucleus Model                        ... NOT USED
CABS basis                                  ... NOT available
Auxiliary Coulomb fitting basis             ... AVAILABLE
   # of basis functions in Aux-J            ...    551
   # of shells in Aux-J                     ...    185
   Maximum angular momentum in Aux-J        ...      4
Auxiliary J/K fitting basis                 ... NOT available
Auxiliary Correlation fitting basis         ... NOT available
Auxiliary 'external' fitting basis          ... NOT available

Checking pre-screening integrals            ... done (  0.0 sec) Dimension = 112
Check shell pair data                       ... done (  0.0 sec)
Shell pair information
Shell pair cut-off parameter TPreSel        ...   1.0e-11
Total number of shell pairs                 ...      6328
Shell pairs after pre-screening             ...      5638
Total number of primitive shell pairs       ...     23019
Primitive shell pairs kept                  ...     14456
          la=0 lb=0:   1863 shell pairs
          la=1 lb=0:   2147 shell pairs
          la=1 lb=1:    645 shell pairs
          la=2 lb=0:    588 shell pairs
          la=2 lb=1:    341 shell pairs
          la=2 lb=2:     54 shell pairs

Calculating one electron integrals          ... done (  0.0 sec)
Calculating RI/J V-Matrix + Cholesky decomp.... done (  0.0 sec)
Calculating Nuclear repulsion               ... done (  0.0 sec) ENN=    433.399027960186 Eh

Diagonalization of the overlap matrix:
Smallest eigenvalue                        ... 2.006e-05
Time for diagonalization                   ...    0.003 sec
Threshold for overlap eigenvalues          ... 1.000e-07
Number of eigenvalues below threshold      ... 0
Time for construction of square roots      ...    0.001 sec
Total time needed                          ...    0.005 sec

-------------------
DFT GRID GENERATION
-------------------

General Integration Accuracy     IntAcc      ... 4.388
Radial Grid Type                 RadialGrid  ... OptM3 with GC (2021)
Angular Grid (max. ang.)         AngularGrid ... 4 (Lebedev-302)
Angular grid pruning method      GridPruning ... 4 (adaptive)
Weight generation scheme         WeightScheme... mBecke (2022)
Basis function cutoff            BFCut       ... 1.0000e-10
Integration weight cutoff        WCut        ... 1.0000e-14
Partially contracted basis set               ... off
Rotationally invariant grid construction     ... off
Angular grids for H and He will be reduced by one unit
Diffuse basis detected: some atoms will have their outermost
                        angular grid increased by 1.

Total number of grid points                  ...    86377
Total number of batches                      ...     1360
Average number of points per batch           ...       63
Average number of grid points per atom       ...     4546
Initializing property integral containers    ... done (  0.0 sec)

SHARK setup successfully completed in   0.6 seconds

Maximum memory used throughout the entire STARTUP-calculation: 39.7 MB
-------------------------------------------------------------------------------
                                 ORCA GUESS
                   Start orbitals & Density for SCF / CASSCF
-------------------------------------------------------------------------------

------------
SCF SETTINGS
------------
Hamiltonian:
 Density Functional     Method          .... DFT(GTOs)
  Functional kind                       .... Exchange
  Functional name                       .... Re-regularized SCAN exchange by Furness et al
  Functional family                     .... MGGA
  Functional refs                              
    [ 0] J. W. Furness, A. D. Kaplan, J. Ning, J. P. Perdew, and J. Sun.,  J. Phys. Chem. Lett. 11, 8208-8215 (2020), doi: 10.1021/acs.jpclett.0c02405
    [ 1] J. W. Furness, A. D. Kaplan, J. Ning, J. P. Perdew, and J. Sun.,  J. Phys. Chem. Lett. 11, 9248-9248 (2020), doi: 10.1021/acs.jpclett.0c03077
  Functional external parameters        .... 6
    Parameter  0 _c1        =  6.670000e-01 : c1 parameter        
    Parameter  1 _c2        =  8.000000e-01 : c2 parameter        
    Parameter  2 _d         =  1.240000e+00 : d parameter         
    Parameter  3 _k1        =  6.500000e-02 : k1 parameter        
    Parameter  4 _eta       =  1.000000e-03 : eta parameter       
    Parameter  5 _dp2       =  3.610000e-01 : dp2 parameter       
  Functional kind                       .... Correlation
  Functional name                       .... Re-regularized SCAN correlation by Furness et al
  Functional family                     .... MGGA
  Functional refs                              
    [ 0] J. W. Furness, A. D. Kaplan, J. Ning, J. P. Perdew, and J. Sun.,  J. Phys. Chem. Lett. 11, 8208-8215 (2020), doi: 10.1021/acs.jpclett.0c02405
    [ 1] J. W. Furness, A. D. Kaplan, J. Ning, J. P. Perdew, and J. Sun.,  J. Phys. Chem. Lett. 11, 9248-9248 (2020), doi: 10.1021/acs.jpclett.0c03077
  Functional external parameters        .... 1
    Parameter  0 _eta       =  1.000000e-03 : Regularization parameter
 Gradients option       PostSCFGGA      .... off
 RI-approximation to the Coulomb term is turned on
   Number of AuxJ basis functions       .... 551


General Settings:
 Integral files         IntName         .... sp
 Hartree-Fock type      HFTyp           .... RHF
 Total Charge           Charge          ....    0
 Multiplicity           Mult            ....    1
 Number of Electrons    NEL             ....   66
 Basis Dimension        Dim             ....  226
 Nuclear Repulsion      ENuc            ....    433.3990279602 Eh

Convergence Acceleration:
 AO-DIIS                CNVDIIS         .... on
   Start iteration      DIISMaxIt       ....    12
   Startup error        DIISStart       ....  0.200000
   # of expansion vecs  DIISMaxEq       ....     5
   Bias factor          DIISBfac        ....   1.050
   Max. coefficient     DIISMaxC        ....  10.000
 MO-DIIS                CNVKDIIS        .... off
 Trust-Rad. Augm. Hess. CNVTRAH         .... auto
   Auto Start mean grad. ratio tolernc. ....  1.125000
   Auto Start start iteration           ....     1
   Auto Start num. interpolation iter.  ....    10
   Max. Number of Micro iterations      ....    24
   Max. Number of Macro iterations      .... Maxiter - #DIIS iter
   Number of Davidson start vectors     ....     2
   Converg. threshold    (grad. norm)   ....   3.330e-04
   Grad. Scal. Fac. for Micro threshold ....   0.100
   Minimum threshold for Micro iter.    ....   1.000e-02
   NR start threshold (gradient norm)   ....   1.000e-04
   Initial trust radius                 ....   0.400
   Minimum AH scaling param. (alpha)    ....   1.000
   Maximum AH scaling param. (alpha)    .... 1000.000
   Quad. conv. algorithm                .... NR
   White noise on init. David. guess    .... on
   Maximum white noise                  ....   0.010
   Pseudo random numbers                .... off
   Inactive MOs                         .... canonical
   Orbital update algorithm             .... Taylor
   Preconditioner                       .... Diag
   Full preconditioner red. dimension   ....   250
   COSX micro iterations for RIJONX calc.... off
 SOSCF                  CNVSOSCF        .... on
   Start iteration      SOSCFMaxIt      ....   150
   Startup grad/error   SOSCFStart      ....  0.003300
   Hessian update       SOSCFHessUp     .... L-BFGS
 Level Shifting         CNVShift        .... on
   Level shift para.    LevelShift      ....    0.2500
   Turn off err/grad.   ShiftErr        ....    0.0010
 Zerner damping         CNVZerner       .... off
 Static damping         CNVDamp         .... on
   Fraction old density DampFac         ....    0.7000
   Max. Damping (<1)    DampMax         ....    0.9800
   Min. Damping (>=0)   DampMin         ....    0.0000
   Turn off err/grad.   DampErr         ....    0.1000

SCF Procedure:
 Maximum # iterations   MaxIter         ....   125
 SCF integral mode      SCFMode         .... Direct
   Integral package                     .... SHARK and LIBINT hybrid scheme
 Reset frequency        DirectResetFreq ....    20
 Integral Threshold     Thresh          ....  1.000e-10 Eh
 Primitive CutOff       TCut            ....  1.000e-11 Eh

Convergence Tolerance:
 Convergence Check Mode ConvCheckMode   .... Total+1el-Energy
 Convergence forced     ConvForced      .... 0
 Energy Change          TolE            ....  1.000e-06 Eh
 1-El. energy change                    ....  1.000e-03 Eh
 Orbital Gradient       TolG            ....  3.330e-04
 Orbital Rotation angle TolX            ....  3.330e-04
 DIIS Error             TolErr          ....  1.000e-06

---------------------
INITIAL GUESS: MOREAD
---------------------
Guess MOs are being read from file: sp.ges
Input Geometry matches current geometry (good)
Atom 0: N(Shells)= 9 and 6 - projection required
Input basis set needs projection
NBasis(read)= 146
NBasis(calc)= 226
Basis set overlap was calculated
Using GuessMode=FMatrix for the initial guess
C*T matrix was formed
Effective Fockian was calculated
Effective Fockian was diagonalized
Initial density was built
                      ------------------
                      INITIAL GUESS DONE (   0.0 sec)
                      ------------------
             **** ENERGY FILE WAS UPDATED (sp.en.tmp) ****
Finished Guess after   0.0 sec
Maximum memory used throughout the entire GUESS-calculation: 16.9 MB

-------------------------------------------------------------------------------------------
                                      ORCA LEAN-SCF
                              memory conserving SCF solver
-------------------------------------------------------------------------------------------

----------------------------------------D-I-I-S--------------------------------------------
Iteration    Energy (Eh)           Delta-E    RMSDP     MaxDP     DIISErr   Damp  Time(sec)
-------------------------------------------------------------------------------------------
               ***  Starting incremental Fock matrix formation  ***
    1    -385.8161932437820951     0.00e+00  2.07e-02  8.61e-01  6.23e-01  0.700   1.4
    2    -385.8725971487755260    -5.64e-02  1.51e-02  6.14e-01  4.38e-01  0.700   1.2
    3    -385.9124500089322964    -3.99e-02  1.06e-02  4.27e-01  3.07e-01  0.700   1.2
    4    -385.9404240470012155    -2.80e-02  7.44e-03  2.98e-01  2.15e-01  0.700   1.2
                               ***Turning on AO-DIIS***
    5    -385.9600455950161404    -1.96e-02  5.20e-03  2.07e-01  1.51e-01  0.700   1.2
    6    -385.9738003756895068    -1.38e-02  3.64e-03  1.45e-01  1.05e-01  0.700   1.2
    7    -385.9834430520062369    -9.64e-03  2.55e-03  1.01e-01  7.37e-02  0.700   1.2
    8    -385.9901995885186352    -6.76e-03  5.93e-03  2.35e-01  5.16e-02  0.000   1.1
                              *** Initializing SOSCF ***
---------------------------------------S-O-S-C-F--------------------------------------
Iteration    Energy (Eh)           Delta-E    RMSDP     MaxDP     MaxGrad    Time(sec)
--------------------------------------------------------------------------------------
    9    -386.0059866578269521    -1.58e-02  1.27e-05  3.13e-04  1.50e-04     1.2
               *** Restarting incremental Fock matrix formation ***
   10    -386.0059867985715982    -1.41e-07  2.73e-05  9.85e-04  2.35e-05     1.4
                  *** Gradient check signals convergence ***

               *****************************************************
               *                     SUCCESS                       *
               *           SCF CONVERGED AFTER  10 CYCLES          *
               *****************************************************

             **** ENERGY FILE WAS UPDATED (sp.en.tmp) ****

----------------
TOTAL SCF ENERGY
----------------

Total Energy       :       -386.00598679857160 Eh          -10503.75690 eV

Components:
Nuclear Repulsion  :        433.39902796018566 Eh           11793.38712 eV
Electronic Energy  :       -819.40501475875726 Eh          -22297.14402 eV
One Electron Energy:      -1380.95293915247862 Eh          -37577.63988 eV
Two Electron Energy:        561.54792439372136 Eh           15280.49587 eV

Virial components:
Potential Energy   :       -770.44696755489815 Eh          -20964.92782 eV
Kinetic Energy     :        384.44098075632655 Eh           10461.17092 eV
Virial Ratio       :          2.00407086164219

DFT components:
N(Alpha)           :       33.000051178027 electrons
N(Beta)            :       33.000051178027 electrons
N(Total)           :       66.000102356053 electrons
E(X)               :      -53.532514787390 Eh       
E(C)               :       -2.122775898969 Eh       
E(XC)              :      -55.655290686358 Eh       

---------------
SCF CONVERGENCE
---------------

  Last Energy change         ...    1.4074e-07  Tolerance :   1.0000e-06
  Last MAX-Density change    ...    9.8468e-04  Tolerance :   1.0000e-05
  Last RMS-Density change    ...    2.7350e-05  Tolerance :   1.0000e-06
  Last DIIS Error            ...    1.4967e-04  Tolerance :   1.0000e-06
  Last Orbital Gradient      ...    2.3453e-05  Tolerance :   3.3300e-04
  Last Orbital Rotation      ...    9.5169e-05  Tolerance :   3.3300e-04


----------------
ORBITAL ENERGIES
----------------

  NO   OCC          E(Eh)            E(eV) 
   0   2.0000     -18.982724      -516.5462 
   1   2.0000     -10.087673      -274.4995 
   2   2.0000     -10.041427      -273.2411 
   3   2.0000     -10.040016      -273.2027 
   4   2.0000     -10.034404      -273.0500 
   5   2.0000     -10.026803      -272.8432 
   6   2.0000     -10.024349      -272.7764 
   7   2.0000     -10.021233      -272.6916 
   8   2.0000     -10.018523      -272.6179 
   9   2.0000      -1.027251       -27.9529 
  10   2.0000      -0.822189       -22.3729 
  11   2.0000      -0.754989       -20.5443 
  12   2.0000      -0.719323       -19.5738 
  13   2.0000      -0.665495       -18.1090 
  14   2.0000      -0.645766       -17.5722 
  15   2.0000      -0.574666       -15.6375 
  16   2.0000      -0.548542       -14.9266 
  17   2.0000      -0.507472       -13.8090 
  18   2.0000      -0.457468       -12.4483 
  19   2.0000      -0.433072       -11.7845 
  20   2.0000      -0.412561       -11.2263 
  21   2.0000      -0.392697       -10.6858 
  22   2.0000      -0.386695       -10.5225 
  23   2.0000      -0.379958       -10.3392 
  24   2.0000      -0.372025       -10.1233 
  25   2.0000      -0.356639        -9.7046 
  26   2.0000      -0.350906        -9.5486 
  27   2.0000      -0.344341        -9.3700 
  28   2.0000      -0.311695        -8.4817 
  29   2.0000      -0.305157        -8.3038 
  30   2.0000      -0.298893        -8.1333 
  31   2.0000      -0.219111        -5.9623 
  32   2.0000      -0.197708        -5.3799 
  33   0.0000      -0.024223        -0.6591 
  34   0.0000      -0.009848        -0.2680 
  35   0.0000       0.049130         1.3369 
  36   0.0000       0.084761         2.3065 
  37   0.0000       0.107755         2.9322 
  38   0.0000       0.114632         3.1193 
  39   0.0000       0.120254         3.2723 
  40   0.0000       0.134062         3.6480 
  41   0.0000       0.138433         3.7669 
  42   0.0000       0.146412         3.9841 
  43   0.0000       0.162036         4.4092 
*Only the first 10 virtual orbitals were printed.

                    ********************************
                    * MULLIKEN POPULATION ANALYSIS *
                    ********************************

-----------------------
MULLIKEN ATOMIC CHARGES
-----------------------
   0 C :   -0.569302
   1 C :    0.095763
   2 C :   -0.193192
   3 C :   -0.189041
   4 C :   -0.203900
   5 C :    0.081591
   6 C :    0.265108
   7 O :   -0.417260
   8 C :   -0.623685
   9 H :    0.154734
  10 H :    0.159938
  11 H :    0.182008
  12 H :    0.147142
  13 H :    0.142843
  14 H :    0.144457
  15 H :    0.323271
  16 H :    0.162071
  17 H :    0.168086
  18 H :    0.169367
Sum of atomic charges:   -0.0000000

--------------------------------
MULLIKEN REDUCED ORBITAL CHARGES
--------------------------------
  0 C s       :     3.388771  s :     3.388771
      pz      :     1.084418  p :     3.153423
      px      :     0.976811
      py      :     1.092194
      dz2     :     0.004893  d :     0.027108
      dxz     :     0.008090
      dyz     :     0.001902
      dx2y2   :     0.006772
      dxy     :     0.005451

  1 C s       :     3.112967  s :     3.112967
      pz      :     1.019194  p :     2.745035
      px      :     0.843555
      py      :     0.882286
      dz2     :     0.003658  d :     0.046235
      dxz     :     0.006807
      dyz     :     0.006441
      dx2y2   :     0.013950
      dxy     :     0.015380

  2 C s       :     3.192398  s :     3.192398
      pz      :     1.008819  p :     2.962746
      px      :     1.015781
      py      :     0.938146
      dz2     :     0.003301  d :     0.038048
      dxz     :     0.003533
      dyz     :     0.006255
      dx2y2   :     0.012293
      dxy     :     0.012665

  3 C s       :     3.191130  s :     3.191130
      pz      :     1.013040  p :     2.960073
      px      :     0.920140
      py      :     1.026892
      dz2     :     0.003311  d :     0.037838
      dxz     :     0.007253
      dyz     :     0.002336
      dx2y2   :     0.013276
      dxy     :     0.011663

  4 C s       :     3.163760  s :     3.163760
      pz      :     1.018294  p :     3.001899
      px      :     1.047200
      py      :     0.936405
      dz2     :     0.003327  d :     0.038242
      dxz     :     0.003501
      dyz     :     0.006517
      dx2y2   :     0.012390
      dxy     :     0.012506

  5 C s       :     3.081561  s :     3.081561
      pz      :     1.042054  p :     2.790965
      px      :     0.822747
      py      :     0.926164
      dz2     :     0.003673  d :     0.045882
      dxz     :     0.005912
      dyz     :     0.007054
      dx2y2   :     0.013614
      dxy     :     0.015630

  6 C s       :     3.156448  s :     3.156448
      pz      :     0.962852  p :     2.506676
      px      :     0.781163
      py      :     0.762661
      dz2     :     0.004867  d :     0.071768
      dxz     :     0.006828
      dyz     :     0.016171
      dx2y2   :     0.023077
      dxy     :     0.020826

  7 O s       :     3.756292  s :     3.756292
      pz      :     1.848236  p :     4.621295
      px      :     1.506551
      py      :     1.266508
      dz2     :     0.006084  d :     0.039672
      dxz     :     0.005463
      dyz     :     0.006744
      dx2y2   :     0.009725
      dxy     :     0.011657

  8 C s       :     3.431904  s :     3.431904
      pz      :     1.067222  p :     3.164187
      px      :     1.011289
      py      :     1.085676
      dz2     :     0.004813  d :     0.027594
      dxz     :     0.002823
      dyz     :     0.007847
      dx2y2   :     0.004436
      dxy     :     0.007675

  9 H s       :     0.826910  s :     0.826910
      pz      :     0.007982  p :     0.018357
      px      :     0.006111
      py      :     0.004263

 10 H s       :     0.821698  s :     0.821698
      pz      :     0.008901  p :     0.018364
      px      :     0.005534
      py      :     0.003929

 11 H s       :     0.799427  s :     0.799427
      pz      :     0.003697  p :     0.018564
      px      :     0.003807
      py      :     0.011061

 12 H s       :     0.833352  s :     0.833352
      pz      :     0.004279  p :     0.019506
      px      :     0.009820
      py      :     0.005407

 13 H s       :     0.837467  s :     0.837467
      pz      :     0.004475  p :     0.019691
      px      :     0.003131
      py      :     0.012084

 14 H s       :     0.835899  s :     0.835899
      pz      :     0.004391  p :     0.019644
      px      :     0.009839
      py      :     0.005413

 15 H s       :     0.632827  s :     0.632827
      pz      :     0.012446  p :     0.043901
      px      :     0.021566
      py      :     0.009889

 16 H s       :     0.819650  s :     0.819650
      pz      :     0.003701  p :     0.018278
      px      :     0.008040
      py      :     0.006537

 17 H s       :     0.813750  s :     0.813750
      pz      :     0.008428  p :     0.018165
      px      :     0.003690
      py      :     0.006046

 18 H s       :     0.812478  s :     0.812478
      pz      :     0.008477  p :     0.018155
      px      :     0.003695
      py      :     0.005983


------------------------
MULLIKEN OVERLAP CHARGES
------------------------
B(  0-C ,  1-C ) :   0.3032 B(  0-C ,  2-C ) :  -0.2187 B(  0-C ,  5-C ) :   0.0656 
B(  0-C ,  6-C ) :  -0.1529 B(  0-C ,  9-H ) :   0.8467 B(  0-C , 10-H ) :   0.8364 
B(  0-C , 11-H ) :   0.8698 B(  1-C ,  2-C ) :   0.5173 B(  1-C ,  4-C ) :  -0.3390 
B(  1-C ,  6-C ) :   0.7922 B(  1-C ,  7-O ) :  -0.1735 B(  1-C ,  9-H ) :  -0.1106 
B(  1-C , 10-H ) :  -0.0911 B(  1-C , 11-H ) :  -0.1328 B(  1-C , 12-H ) :  -0.0658 
B(  2-C ,  3-C ) :   0.8175 B(  2-C ,  5-C ) :  -0.3494 B(  2-C ,  6-C ) :   0.2561 
B(  2-C , 12-H ) :   0.7811 B(  3-C ,  4-C ) :   0.8371 B(  3-C ,  6-C ) :  -0.2560 
B(  3-C , 13-H ) :   0.7735 B(  4-C ,  5-C ) :   0.4658 B(  4-C ,  6-C ) :   0.2895 
B(  4-C ,  8-C ) :  -0.0860 B(  4-C , 14-H ) :   0.7472 B(  5-C ,  6-C ) :   0.4874 
B(  5-C ,  7-O ) :  -0.2490 B(  5-C ,  8-C ) :   0.1889 B(  5-C , 14-H ) :  -0.0522 
B(  5-C , 16-H ) :  -0.0592 B(  5-C , 17-H ) :  -0.1320 B(  5-C , 18-H ) :  -0.1344 
B(  6-C ,  7-O ) :   0.6483 B(  6-C ,  8-C ) :  -0.1172 B(  6-C , 15-H ) :  -0.0886 
B(  7-O , 15-H ) :   0.5983 B(  8-C , 16-H ) :   0.7830 B(  8-C , 17-H ) :   0.8731 
B(  8-C , 18-H ) :   0.8734 B( 17-H , 18-H ) :  -0.0743 


                     *******************************
                     * LOEWDIN POPULATION ANALYSIS *
                     *******************************

----------------------
LOEWDIN ATOMIC CHARGES
----------------------
   0 C :   -0.379213
   1 C :   -0.076526
   2 C :   -0.158235
   3 C :   -0.181799
   4 C :   -0.165823
   5 C :   -0.098161
   6 C :    0.192405
   7 O :   -0.519347
   8 C :   -0.393463
   9 H :    0.163796
  10 H :    0.165350
  11 H :    0.178235
  12 H :    0.169191
  13 H :    0.165922
  14 H :    0.166731
  15 H :    0.282291
  16 H :    0.167625
  17 H :    0.160391
  18 H :    0.160630

-------------------------------
LOEWDIN REDUCED ORBITAL CHARGES
-------------------------------
  0 C s       :     2.950250  s :     2.950250
      pz      :     1.153521  p :     3.366058
      px      :     1.072393
      py      :     1.140144
      dz2     :     0.011788  d :     0.062906
      dxz     :     0.019292
      dyz     :     0.003920
      dx2y2   :     0.015804
      dxy     :     0.012102

  1 C s       :     2.855585  s :     2.855585
      pz      :     0.993425  p :     3.126045
      px      :     1.053921
      py      :     1.078699
      dz2     :     0.006483  d :     0.094896
      dxz     :     0.011159
      dyz     :     0.011288
      dx2y2   :     0.032105
      dxy     :     0.033861

  2 C s       :     2.894569  s :     2.894569
      pz      :     0.995875  p :     3.180365
      px      :     1.101438
      py      :     1.083052
      dz2     :     0.005645  d :     0.083301
      dxz     :     0.005834
      dyz     :     0.011687
      dx2y2   :     0.029310
      dxy     :     0.030825

  3 C s       :     2.898188  s :     2.898188
      pz      :     1.006443  p :     3.200762
      px      :     1.096353
      py      :     1.097967
      dz2     :     0.005638  d :     0.082849
      dxz     :     0.013496
      dyz     :     0.003430
      dx2y2   :     0.032420
      dxy     :     0.027864

  4 C s       :     2.894615  s :     2.894615
      pz      :     1.003363  p :     3.187394
      px      :     1.105077
      py      :     1.078954
      dz2     :     0.005701  d :     0.083815
      dxz     :     0.005777
      dyz     :     0.012254
      dx2y2   :     0.029626
      dxy     :     0.030458

  5 C s       :     2.856854  s :     2.856854
      pz      :     1.017488  p :     3.146340
      px      :     1.044591
      py      :     1.084261
      dz2     :     0.006650  d :     0.094968
      dxz     :     0.010028
      dyz     :     0.012085
      dx2y2   :     0.031449
      dxy     :     0.034755

  6 C s       :     2.775529  s :     2.775529
      pz      :     0.931853  p :     2.875536
      px      :     1.063409
      py      :     0.880274
      dz2     :     0.010740  d :     0.156530
      dxz     :     0.012092
      dyz     :     0.031422
      dx2y2   :     0.052890
      dxy     :     0.049385

  7 O s       :     3.482368  s :     3.482368
      pz      :     1.813383  p :     4.751376
      px      :     1.523368
      py      :     1.414625
      dz2     :     0.034116  d :     0.285603
      dxz     :     0.006338
      dyz     :     0.067606
      dx2y2   :     0.089386
      dxy     :     0.088156

  8 C s       :     2.955931  s :     2.955931
      pz      :     1.144897  p :     3.373669
      px      :     1.087966
      py      :     1.140806
      dz2     :     0.011530  d :     0.063864
      dxz     :     0.004987
      dyz     :     0.019900
      dx2y2   :     0.009163
      dxy     :     0.018283

  9 H s       :     0.792623  s :     0.792623
      pz      :     0.019602  p :     0.043581
      px      :     0.014015
      py      :     0.009964

 10 H s       :     0.791005  s :     0.791005
      pz      :     0.022113  p :     0.043645
      px      :     0.012560
      py      :     0.008972

 11 H s       :     0.776323  s :     0.776323
      pz      :     0.008217  p :     0.045442
      px      :     0.008646
      py      :     0.028579

 12 H s       :     0.786412  s :     0.786412
      pz      :     0.009298  p :     0.044397
      px      :     0.022963
      py      :     0.012137

 13 H s       :     0.789313  s :     0.789313
      pz      :     0.009648  p :     0.044765
      px      :     0.007035
      py      :     0.028082

 14 H s       :     0.788704  s :     0.788704
      pz      :     0.009569  p :     0.044565
      px      :     0.022901
      py      :     0.012094

 15 H s       :     0.593876  s :     0.593876
      pz      :     0.031787  p :     0.123833
      px      :     0.066425
      py      :     0.025622

 16 H s       :     0.788912  s :     0.788912
      pz      :     0.007858  p :     0.043463
      px      :     0.019465
      py      :     0.016140

 17 H s       :     0.795909  s :     0.795909
      pz      :     0.021197  p :     0.043700
      px      :     0.008119
      py      :     0.014384

 18 H s       :     0.795657  s :     0.795657
      pz      :     0.021351  p :     0.043713
      px      :     0.008144
      py      :     0.014218


---------------------------------
LOEWDIN BOND ORDERS (THRESH 0.050000)
---------------------------------
B(  0-C ,  1-C ) :   1.0957 B(  0-C ,  2-C ) :   0.0871 B(  0-C ,  6-C ) :   0.0794 
B(  0-C ,  7-O ) :   0.0602 B(  0-C ,  9-H ) :   0.9134 B(  0-C , 10-H ) :   0.9119 
B(  0-C , 11-H ) :   0.8988 B(  1-C ,  2-C ) :   1.4469 B(  1-C ,  3-C ) :   0.0917 
B(  1-C ,  4-C ) :   0.1194 B(  1-C ,  5-C ) :   0.0891 B(  1-C ,  6-C ) :   1.2746 
B(  1-C ,  7-O ) :   0.2144 B(  1-C , 12-H ) :   0.0533 B(  2-C ,  3-C ) :   1.5067 
B(  2-C ,  4-C ) :   0.0901 B(  2-C ,  5-C ) :   0.1182 B(  2-C ,  6-C ) :   0.0923 
B(  2-C , 12-H ) :   0.8662 B(  2-C , 13-H ) :   0.0553 B(  3-C ,  4-C ) :   1.4945 
B(  3-C ,  5-C ) :   0.0927 B(  3-C ,  6-C ) :   0.1045 B(  3-C , 12-H ) :   0.0537 
B(  3-C , 13-H ) :   0.8732 B(  3-C , 14-H ) :   0.0538 B(  4-C ,  5-C ) :   1.4523 
B(  4-C ,  6-C ) :   0.0912 B(  4-C ,  8-C ) :   0.0885 B(  4-C , 13-H ) :   0.0553 
B(  4-C , 14-H ) :   0.8672 B(  5-C ,  6-C ) :   1.2700 B(  5-C ,  7-O ) :   0.2089 
B(  5-C ,  8-C ) :   1.0982 B(  5-C , 14-H ) :   0.0534 B(  6-C ,  7-O ) :   1.4679 
B(  6-C ,  8-C ) :   0.0791 B(  7-O , 15-H ) :   0.9426 B(  8-C , 16-H ) :   0.9110 
B(  8-C , 17-H ) :   0.9113 B(  8-C , 18-H ) :   0.9114 

------------------------------------------
LOEWDIN REDUCED ORBITAL POPULATIONS PER MO
-------------------------------------------
THRESHOLD FOR PRINTING IS 0.1%%
                      0         1         2         3         4         5   
                 -18.98272 -10.08767 -10.04143 -10.04002 -10.03440 -10.02680
                   2.00000   2.00000   2.00000   2.00000   2.00000   2.00000
                  --------  --------  --------  --------  --------  --------
 1 C  s               0.0       0.0       0.0       0.0      99.5       0.0
 2 C  py              0.0       0.0       0.0       0.0       0.1       0.0
 3 C  s               0.0       0.0       0.0       0.0       0.0       0.2
 3 C  px              0.0       0.0       0.0       0.0       0.0       0.1
 4 C  s               0.0       0.0       0.0       0.1       0.0      99.4
 4 C  py              0.0       0.0       0.0       0.1       0.0       0.0
 5 C  s               0.0       0.0       0.3      99.2       0.0       0.1
 5 C  py              0.0       0.0       0.0       0.0       0.0       0.1
 6 C  s               0.0      99.2       0.0       0.0       0.0       0.0
 6 C  px              0.0       0.0       0.0       0.1       0.1       0.0
 7 O  s              99.9       0.0       0.0       0.0       0.0       0.0
 7 O  py              0.0       0.1       0.0       0.0       0.0       0.0
 7 O  dx2y2           0.0       0.2       0.0       0.0       0.0       0.0
 8 C  s               0.0       0.0      99.4       0.3       0.0       0.0

                      6         7         8         9        10        11   
                 -10.02435 -10.02123 -10.01852  -1.02725  -0.82219  -0.75499
                   2.00000   2.00000   2.00000   2.00000   2.00000   2.00000
                  --------  --------  --------  --------  --------  --------
 0 C  s               0.0       0.0      99.7       0.1       2.1       8.4
 0 C  px              0.0       0.0       0.0       0.3       0.8       1.0
 0 C  py              0.0       0.0       0.0       0.0       0.4       0.5
 1 C  s               0.1       0.0       0.0       0.8      11.7      12.7
 1 C  px              0.0       0.0       0.1       0.7       0.9       1.5
 1 C  py              0.1       0.0       0.0       0.8       0.8       0.1
 1 C  dz2             0.0       0.0       0.0       0.0       0.1       0.1
 2 C  s              98.9       0.6       0.0       0.1      11.0       6.6
 2 C  px              0.0       0.1       0.0       0.0       1.7       0.3
 2 C  py              0.0       0.0       0.0       0.1       0.8       1.8
 2 C  dz2             0.0       0.0       0.0       0.0       0.1       0.1
 3 C  s               0.6      98.8       0.0       0.0      10.5       0.1
 3 C  px              0.1       0.0       0.0       0.0       0.0       3.2
 3 C  py              0.0       0.0       0.0       0.0       2.6       0.0
 3 C  dz2             0.0       0.0       0.0       0.0       0.1       0.0
 4 C  s               0.0       0.2       0.0       0.1      11.7       5.0
 4 C  px              0.0       0.1       0.0       0.0       1.6       0.7
 4 C  py              0.0       0.0       0.0       0.1       0.9       2.2
 4 C  dz2             0.0       0.0       0.0       0.0       0.1       0.0
 5 C  s               0.0       0.0       0.0       0.9      12.9      12.9
 5 C  px              0.0       0.0       0.0       0.7       0.7       3.0
 5 C  py              0.0       0.0       0.0       0.9       0.8       0.0
 5 C  dz2             0.0       0.0       0.0       0.0       0.1       0.1
 6 C  s               0.0       0.0       0.0       9.7       7.1       0.0
 6 C  px              0.0       0.0       0.0       0.0       0.0      10.6
 6 C  py              0.0       0.0       0.0       9.2       6.3       0.0
 6 C  dz2             0.0       0.0       0.0       0.4       0.1       0.0
 6 C  dx2y2           0.0       0.0       0.0       0.7       0.1       0.0
 6 C  dxy             0.0       0.0       0.0       0.0       0.0       0.1
 7 O  s               0.0       0.0       0.0      58.4       2.1       0.1
 7 O  px              0.0       0.0       0.0       1.3       0.2       0.6
 7 O  py              0.0       0.0       0.0       1.5       1.2       0.1
 7 O  dz2             0.0       0.0       0.0       0.2       0.2       0.0
 7 O  dx2y2           0.0       0.0       0.0       0.1       0.3       0.0
 7 O  dxy             0.0       0.0       0.0       0.0       0.0       0.5
 8 C  s               0.0       0.0       0.0       0.2       2.7      13.5
 8 C  px              0.0       0.0       0.0       0.4       0.9       0.9
 8 C  py              0.0       0.0       0.0       0.0       0.4       0.4
 9 H  s               0.0       0.0       0.0       0.0       0.2       1.2
10 H  s               0.0       0.0       0.0       0.0       0.2       1.2
11 H  s               0.0       0.0       0.0       0.0       0.2       1.2
11 H  py              0.0       0.0       0.0       0.0       0.0       0.1
12 H  s               0.0       0.0       0.0       0.0       1.0       1.0
13 H  s               0.0       0.0       0.0       0.0       0.9       0.0
14 H  s               0.0       0.0       0.0       0.0       1.1       0.8
15 H  s               0.0       0.0       0.0       9.9       0.5       0.1
15 H  px              0.0       0.0       0.0       1.8       0.1       0.0
15 H  py              0.0       0.0       0.0       0.4       0.0       0.0
16 H  s               0.0       0.0       0.0       0.0       0.4       2.2
16 H  px              0.0       0.0       0.0       0.0       0.0       0.1
17 H  s               0.0       0.0       0.0       0.0       0.3       2.0
17 H  pz              0.0       0.0       0.0       0.0       0.0       0.1
18 H  s               0.0       0.0       0.0       0.0       0.3       2.0
18 H  pz              0.0       0.0       0.0       0.0       0.0       0.1

                     12        13        14        15        16        17   
                  -0.71932  -0.66549  -0.64577  -0.57467  -0.54854  -0.50747
                   2.00000   2.00000   2.00000   2.00000   2.00000   2.00000
                  --------  --------  --------  --------  --------  --------
 0 C  s               7.1       6.0      18.0       0.0       4.7       0.1
 0 C  px              0.4       0.2       0.5       0.3       4.3       0.1
 0 C  py              0.0       0.1       0.4       0.9       0.8       0.1
 1 C  s               4.5       0.1       0.6       0.2       6.6       1.4
 1 C  px              0.3       8.4       5.4       1.1       0.6       2.8
 1 C  py              4.5       1.9       6.2       7.2       0.2       1.0
 1 C  dx2y2           0.1       0.1       0.1       0.0       0.1       0.2
 1 C  dxy             0.0       0.2       0.1       0.1       0.1       0.0
 2 C  s               3.8       5.2       8.8       1.8       0.1       5.0
 2 C  px              3.1       0.3       0.1       2.7       0.5       7.0
 2 C  py              4.6       0.4       0.1       2.8       8.6       2.8
 2 C  dx2y2           0.1       0.0       0.0       0.0       0.1       0.0
 3 C  s              18.3       1.9       0.1       6.9       3.0       1.3
 3 C  px              0.0       1.6      10.2       0.6       3.7       3.1
 3 C  py              0.4       0.1       0.0       2.5       1.3       0.1
 3 C  dz2             0.1       0.0       0.0       0.0       0.0       0.0
 3 C  dxy             0.0       0.0       0.3       0.0       0.0       0.0
 4 C  s               6.2       0.3      12.4       0.0       4.5       0.5
 4 C  px              2.7       0.0       0.4       0.9       3.8       7.0
 4 C  py              3.9       0.9       0.1       7.7       0.1       2.4
 4 C  dx2y2           0.1       0.0       0.0       0.1       0.0       0.1
 5 C  s               2.4       1.2       0.3       4.3       2.4       1.3
 5 C  px              0.2      11.0       0.1       0.4       3.6       4.2
 5 C  py              5.3       0.5       7.0       1.2       8.2       1.5
 5 C  dx2y2           0.1       0.0       0.2       0.0       0.0       0.1
 5 C  dxy             0.0       0.2       0.0       0.0       0.1       0.0
 6 C  s               4.5       9.5       1.1       1.9       1.0       0.1
 6 C  px              0.1       0.0       0.0       5.4      14.7       0.2
 6 C  py              0.7       1.1       0.3       4.3       0.0       9.9
 6 C  dx2y2           0.2       0.0       0.0       0.0       0.0       0.3
 6 C  dxy             0.0       0.0       0.0       0.0       0.2       0.2
 7 O  s               1.7       0.8       0.2       0.1       1.1       0.3
 7 O  px              0.4       1.0       0.1       9.3       1.6       8.5
 7 O  py              2.4       5.2       0.4      14.3       1.6      12.8
 7 O  dz2             0.3       0.0       0.0       0.0       0.1       0.2
 7 O  dx2y2           0.2       1.3       0.2       0.4       0.0       0.2
 7 O  dxy             0.0       0.0       0.1       0.0       0.9       0.2
 8 C  s               6.9      16.6       2.5       3.4       0.8       0.5
 8 C  px              0.2       0.8       0.1       2.3       3.5       0.7
 8 C  py              0.0       0.3       0.6       0.6       0.3       5.2
 9 H  s               1.1       1.5       4.3       0.1       2.4       0.0
 9 H  pz              0.1       0.1       0.2       0.0       0.1       0.0
 9 H  px              0.0       0.0       0.1       0.0       0.0       0.0
10 H  s               1.1       1.5       4.4       0.1       2.4       0.0
10 H  pz              0.1       0.1       0.3       0.0       0.1       0.0
11 H  s               1.3       1.0       4.7       0.2       1.8       0.0
11 H  py              0.1       0.1       0.4       0.0       0.1       0.0
12 H  s               0.5       1.6       1.9       0.9       0.3       7.7
12 H  px              0.0       0.1       0.1       0.0       0.0       0.3
12 H  py              0.0       0.0       0.0       0.1       0.0       0.1
13 H  s               2.9       0.5       0.0       3.8       2.0       0.4
13 H  py              0.3       0.0       0.0       0.3       0.1       0.0
14 H  s               0.9       0.0       3.5       0.0       4.0       1.4
14 H  px              0.1       0.0       0.2       0.0       0.2       0.0
15 H  s               0.9       1.7       0.0       5.5       0.0       5.5
15 H  px              0.2       0.2       0.0       0.5       0.0       0.2
16 H  s               1.1       4.3       0.4       1.5       1.8       0.0
16 H  px              0.1       0.2       0.0       0.0       0.1       0.0
16 H  py              0.0       0.2       0.0       0.1       0.0       0.0
17 H  s               1.3       4.3       0.8       1.4       0.2       1.3
17 H  pz              0.1       0.2       0.1       0.1       0.0       0.1
17 H  py              0.0       0.1       0.0       0.0       0.0       0.0
18 H  s               1.3       4.3       0.8       1.4       0.2       1.3
18 H  pz              0.1       0.2       0.1       0.1       0.0       0.1
18 H  py              0.0       0.1       0.0       0.0       0.0       0.0

                     18        19        20        21        22        23   
                  -0.45747  -0.43307  -0.41256  -0.39270  -0.38669  -0.37996
                   2.00000   2.00000   2.00000   2.00000   2.00000   2.00000
                  --------  --------  --------  --------  --------  --------
 0 C  s               0.3       0.1       0.0       0.1       0.0       0.0
 0 C  pz              0.0       0.0       4.2       0.0      33.2       0.0
 0 C  px              0.6       6.0       0.0       4.5       0.0       7.5
 0 C  py              6.4       0.4       0.0       4.1       0.0       4.8
 0 C  dz2             0.0       0.1       0.0       0.0       0.0       0.1
 0 C  dxz             0.0       0.0       0.0       0.0       0.1       0.0
 0 C  dyz             0.0       0.0       0.0       0.0       0.1       0.0
 0 C  dxy             0.1       0.0       0.0       0.1       0.0       0.0
 1 C  s               1.3       1.5       0.0       1.3       0.0       0.0
 1 C  pz              0.0       0.0       4.8       0.0      11.0       0.0
 1 C  px              3.7       0.3       0.0       7.5       0.0       0.6
 1 C  py              1.1       8.0       0.0       0.6       0.0       2.3
 1 C  dx2y2           0.0       0.1       0.0       0.1       0.0       0.0
 1 C  dxy             0.0       0.0       0.0       0.2       0.0       0.0
 2 C  s               0.1       0.4       0.0       0.8       0.0       0.2
 2 C  pz              0.0       0.0       1.4       0.0       2.7       0.0
 2 C  px              8.8       0.3       0.0       4.2       0.0       1.7
 2 C  py              2.5       4.8       0.0       6.2       0.0       2.2
 2 C  dx2y2           0.1       0.1       0.0       0.0       0.0       0.1
 2 C  dxy             0.0       0.0       0.0       0.4       0.0       0.0
 3 C  s               0.1       0.8       0.0       1.6       0.0       0.2
 3 C  pz              0.0       0.0       0.9       0.0       0.4       0.0
 3 C  px              8.3       3.2       0.0       0.7       0.0       0.1
 3 C  py              6.3      20.0       0.0       0.1       0.0       1.9
 3 C  dx2y2           0.0       0.1       0.0       0.2       0.0       0.1
 4 C  s               0.9       1.0       0.0       0.9       0.0       0.9
 4 C  pz              0.0       0.0       2.5       0.0       0.0       0.0
 4 C  px              2.2       5.8       0.0       7.6       0.0       0.3
 4 C  py             14.6       0.5       0.0       0.9       0.0       0.1
 4 C  dx2y2           0.0       0.2       0.0       0.0       0.0       0.0
 4 C  dxy             0.0       0.0       0.0       0.5       0.0       0.0
 5 C  s               0.2       1.5       0.0       1.7       0.0       0.1
 5 C  pz              0.0       0.0      12.7       0.0       0.5       0.0
 5 C  px              0.2       2.8       0.0       8.3       0.0       0.1
 5 C  py              7.2       0.1       0.0       0.9       0.0       0.2
 5 C  dxz             0.0       0.0       0.0       0.0       0.1       0.0
 5 C  dx2y2           0.0       0.1       0.0       0.0       0.0       0.3
 5 C  dxy             0.1       0.0       0.0       0.4       0.0       0.2
 6 C  s               0.5       0.2       0.0       2.8       0.0       0.6
 6 C  pz              0.0       0.0      10.8       0.0       2.9       0.0
 6 C  px              3.1       2.5       0.0       0.0       0.0       0.3
 6 C  py              0.6       3.4       0.0       2.9       0.0       0.2
 6 C  dx2y2           0.1       0.6       0.0       0.0       0.0       0.1
 7 O  s               1.9       0.1       0.0       0.4       0.0       0.1
 7 O  pz              0.0       0.0       8.7       0.0       2.8       0.0
 7 O  px              7.1       0.3       0.0       2.1       0.0       3.0
 7 O  py              3.1       8.6       0.0       0.3       0.0       1.1
 7 O  dz2             0.1       0.1       0.0       0.1       0.0       0.1
 7 O  dxz             0.0       0.0       0.1       0.0       0.1       0.0
 7 O  dyz             0.0       0.0       0.5       0.0       0.1       0.0
 7 O  dx2y2           0.0       0.0       0.0       0.1       0.0       0.5
 7 O  dxy             0.3       0.5       0.0       0.1       0.0       0.0
 8 C  s               0.1       0.1       0.0       0.2       0.0       0.0
 8 C  pz              0.0       0.0      31.7       0.0      15.6       0.0
 8 C  px              2.2       2.4       0.0      11.5       0.0       9.9
 8 C  py              2.0       5.2       0.0       2.7       0.0      24.0
 8 C  dz2             0.0       0.1       0.0       0.0       0.0       0.2
 8 C  dyz             0.0       0.0       0.2       0.0       0.2       0.0
 8 C  dxy             0.0       0.0       0.0       0.2       0.0       0.2
 9 H  s               0.0       1.3       0.9       0.4       8.3       2.8
 9 H  pz              0.0       0.1       0.0       0.0       0.0       0.1
 9 H  px              0.0       0.0       0.0       0.0       0.2       0.0
10 H  s               0.1       1.0       1.1       0.4      10.4       1.4
10 H  px              0.0       0.0       0.0       0.0       0.2       0.0
11 H  s               2.9       0.1       0.0       1.4       0.1       2.9
11 H  pz              0.0       0.0       0.0       0.0       0.2       0.0
12 H  s               0.8       0.3       0.0       7.5       0.0       2.6
12 H  px              0.0       0.0       0.0       0.2       0.0       0.1
13 H  s               2.0      10.4       0.0       0.4       0.0       1.7
13 H  py              0.1       0.3       0.0       0.0       0.0       0.0
14 H  s               5.3       0.3       0.0       7.4       0.0       0.0
14 H  px              0.3       0.0       0.0       0.1       0.0       0.0
15 H  s               0.3       1.1       0.0       0.7       0.0       0.1
15 H  pz              0.0       0.0       0.1       0.0       0.0       0.0
16 H  s               1.5       0.0       0.0       1.5       0.0      15.9
16 H  pz              0.0       0.0       0.2       0.0       0.1       0.0
16 H  px              0.0       0.0       0.0       0.0       0.0       0.2
17 H  s               0.1       1.3       9.1       0.7       4.8       3.6
17 H  pz              0.0       0.1       0.0       0.0       0.0       0.1
17 H  py              0.0       0.0       0.2       0.0       0.1       0.0
18 H  s               0.0       1.3       9.1       0.8       5.3       3.2
18 H  pz              0.0       0.1       0.0       0.0       0.0       0.1
18 H  py              0.0       0.0       0.2       0.0       0.1       0.0

                     24        25        26        27        28        29   
                  -0.37203  -0.35664  -0.35091  -0.34434  -0.31170  -0.30516
                   2.00000   2.00000   2.00000   2.00000   2.00000   2.00000
                  --------  --------  --------  --------  --------  --------
 0 C  s               0.1       0.3       0.0       0.0       0.0       0.0
 0 C  pz              0.0       0.0      15.5       0.0       0.0       2.2
 0 C  px              1.2       9.5       0.0       8.4       0.7       0.0
 0 C  py              7.3       0.6       0.0      18.3       7.3       0.0
 0 C  dz2             0.0       0.0       0.0       0.2       0.1       0.0
 0 C  dxz             0.0       0.0       0.2       0.0       0.0       0.1
 0 C  dx2y2           0.0       0.1       0.0       0.3       0.3       0.0
 1 C  s               0.0       0.2       0.0       0.0       0.1       0.0
 1 C  pz              0.0       0.0       0.2       0.0       0.0       3.3
 1 C  px              4.4       3.5       0.0       1.0       0.7       0.0
 1 C  py              1.3       8.0       0.0       0.5       9.0       0.0
 1 C  dxz             0.0       0.0       0.3       0.0       0.0       0.0
 1 C  dyz             0.0       0.0       0.0       0.0       0.0       0.2
 1 C  dx2y2           0.2       0.0       0.0       0.2       0.3       0.0
 1 C  dxy             0.1       0.1       0.0       0.1       0.1       0.0
 2 C  s               0.9       0.0       0.0       0.3       0.1       0.0
 2 C  pz              0.0       0.0       0.2       0.0       0.0      16.8
 2 C  px             12.6       1.2       0.0       2.5       0.9       0.0
 2 C  py              1.2       4.5       0.0       0.6       9.2       0.0
 2 C  dxz             0.0       0.0       0.0       0.0       0.0       0.1
 2 C  dx2y2           0.0       0.1       0.0       0.0       0.6       0.0
 2 C  dxy             0.0       0.1       0.0       0.1       0.1       0.0
 3 C  s               0.0       0.1       0.0       0.0       0.2       0.0
 3 C  pz              0.0       0.0       0.5       0.0       0.0      25.1
 3 C  px              4.0       2.3       0.1       4.8       1.2       0.0
 3 C  py              2.9       3.3       0.0       1.3      11.1       0.0
 3 C  dyz             0.0       0.0       0.0       0.0       0.0       0.1
 3 C  dx2y2           0.1       0.1       0.0       0.1       0.8       0.0
 3 C  dxy             0.5       0.0       0.0       0.0       0.1       0.0
 4 C  s               0.1       0.3       0.0       0.0       0.0       0.0
 4 C  pz              0.0       0.0       0.7       0.0       0.0      20.4
 4 C  px             10.5       0.1       0.0       3.2       2.4       0.0
 4 C  py              4.5       2.4       0.0       4.1       7.4       0.0
 4 C  dxz             0.0       0.0       0.0       0.0       0.0       0.1
 4 C  dx2y2           0.4       0.0       0.0       0.0       0.3       0.0
 5 C  s               0.4       0.4       0.0       0.0       0.1       0.0
 5 C  pz              0.0       0.0       1.3       0.0       0.0       5.5
 5 C  px              6.8       0.1       0.0       0.5       1.6       0.0
 5 C  py              4.6       2.9       0.0       4.1       6.4       0.0
 5 C  dxz             0.0       0.0       0.2       0.0       0.0       0.0
 5 C  dyz             0.0       0.0       0.0       0.0       0.0       0.2
 5 C  dx2y2           0.0       0.2       0.0       0.2       0.3       0.0
 5 C  dxy             0.0       0.0       0.0       0.0       0.2       0.0
 6 C  s               0.0       0.1       0.0       0.0       0.3       0.0
 6 C  pz              0.0       0.1      14.9       0.0       0.0       0.0
 6 C  px              0.4       0.1       0.0       4.0       2.0       0.0
 6 C  py              0.4       3.1       0.0       0.0       1.0       0.0
 6 C  dyz             0.0       0.0       0.2       0.0       0.0       0.5
 6 C  dx2y2           0.0       0.0       0.0       0.0       0.5       0.0
 6 C  dxy             0.5       0.3       0.0       0.0       0.0       0.0
 7 O  s               0.7       5.1       0.0       0.0       0.1       0.0
 7 O  pz              0.0       0.1      38.5       0.1       0.0      20.2
 7 O  px              2.7      30.0       0.1       0.1       0.4       0.0
 7 O  py              0.9      10.0       0.0       0.1       3.5       0.0
 7 O  dz2             0.1       0.1       0.0       0.1       0.0       0.0
 7 O  dyz             0.0       0.0       0.5       0.0       0.0       0.0
 7 O  dx2y2           0.2       0.1       0.0       0.1       0.3       0.0
 7 O  dxy             0.0       0.7       0.0       0.1       0.1       0.0
 8 C  s               0.1       0.1       0.0       0.0       0.3       0.0
 8 C  pz              0.0       0.0       7.6       0.0       0.0       0.9
 8 C  px              8.9       1.6       0.0       1.7       3.0       0.0
 8 C  py              0.3       0.0       0.0       9.8       4.5       0.0
 8 C  dz2             0.0       0.0       0.0       0.1       0.0       0.0
 8 C  dyz             0.0       0.0       0.1       0.0       0.0       0.1
 8 C  dx2y2           0.0       0.0       0.0       0.1       0.1       0.0
 8 C  dxy             0.1       0.0       0.0       0.1       0.0       0.0
 9 H  s               0.0       1.1       5.5       4.2       1.1       0.8
 9 H  pz              0.0       0.0       0.0       0.2       0.0       0.0
10 H  s               0.0       0.6       6.1       3.2       0.6       0.9
10 H  pz              0.0       0.0       0.0       0.1       0.0       0.0
11 H  s               2.8       0.4       0.0      12.1       4.9       0.0
11 H  py              0.1       0.0       0.0       0.2       0.1       0.0
12 H  s               4.6       0.0       0.0       1.2       4.1       0.0
12 H  pz              0.0       0.0       0.0       0.0       0.0       0.1
13 H  s               1.9       1.7       0.0       0.9       9.0       0.0
13 H  pz              0.0       0.0       0.0       0.0       0.0       0.2
14 H  s               8.0       0.2       0.0       0.2       0.0       0.0
14 H  pz              0.0       0.0       0.0       0.0       0.0       0.1
15 H  s               0.2       2.2       0.0       0.0       0.1       0.0
15 H  pz              0.0       0.0       0.6       0.0       0.0       0.4
15 H  py              0.0       0.4       0.0       0.0       0.1       0.0
16 H  s               1.6       0.5       0.0       5.8       0.1       0.0
16 H  py              0.1       0.0       0.0       0.0       0.0       0.0
17 H  s               0.3       0.0       3.0       1.6       0.9       0.7
18 H  s               0.2       0.0       2.7       2.0       0.8       0.7

                     30        31        32        33        34        35   
                  -0.29889  -0.21911  -0.19771  -0.02422  -0.00985   0.04913
                   2.00000   2.00000   2.00000   0.00000   0.00000   0.00000
                  --------  --------  --------  --------  --------  --------
 0 C  s               0.3       0.0       0.0       0.0       0.0       2.6
 0 C  pz              0.0       1.8       0.7       0.1       0.1       0.0
 0 C  px              7.4       0.0       0.0       0.0       0.0       0.2
 0 C  py              4.6       0.0       0.0       0.0       0.0       0.2
 0 C  dxz             0.0       0.3       0.2       0.8       0.2       0.0
 1 C  s               0.0       0.0       0.0       0.0       0.0       1.5
 1 C  pz              0.0      16.4      14.1      19.3       7.5       0.0
 1 C  px              9.2       0.0       0.0       0.0       0.0       0.4
 1 C  py              0.4       0.0       0.0       0.0       0.0       0.2
 1 C  dxz             0.0       0.0       0.2       0.0       0.5       0.0
 1 C  dyz             0.0       0.3       0.1       0.6       0.5       0.0
 1 C  dx2y2           0.1       0.0       0.0       0.0       0.0       0.2
 1 C  dxy             0.6       0.0       0.0       0.0       0.0       0.2
 2 C  s               0.1       0.0       0.0       0.0       0.0       0.2
 2 C  pz              0.0      27.2       1.5      24.1       6.6       0.0
 2 C  px              7.0       0.0       0.0       0.0       0.0       0.0
 2 C  py              0.9       0.0       0.0       0.0       0.0       0.4
 2 C  dxz             0.0       0.0       0.1       0.0       0.5       0.0
 2 C  dyz             0.0       0.1       0.4       0.4       0.6       0.0
 2 C  dxy             0.6       0.0       0.0       0.0       0.0       0.1
 3 C  s               0.0       0.0       0.0       0.0       0.0       0.7
 3 C  pz              0.0       0.5      22.9       0.3      29.9       0.0
 3 C  px              7.5       0.0       0.0       0.0       0.0       0.0
 3 C  py              1.0       0.0       0.0       0.0       0.0       0.2
 3 C  dxz             0.0       0.7       0.0       1.3       0.0       0.0
 3 C  dyz             0.0       0.0       0.0       0.0       0.3       0.0
[...]
 7 O  dxy             0.5       1.0       0.3       7.4       0.0       1.0
 8 C  s               0.3       0.1       0.1       0.1       0.0       0.0
 8 C  px              0.1       3.6       0.2       0.9       0.3       0.1
 8 C  py              2.7       4.5       1.0       0.6       0.1       0.1
 8 C  dz2             3.7       4.8       1.1       0.4       0.0       0.0
 8 C  dx2y2           1.9       0.5       0.2       0.7       0.0       0.1
 8 C  dxy             0.3       8.7       0.6       2.8       0.5       0.4
 9 H  s               2.3       0.3       2.0       0.2       0.0       0.0
 9 H  pz              3.8       0.5       3.4       0.5       0.0       0.0
 9 H  px              2.0       0.0       1.1       0.0       0.0       0.0
 9 H  py              0.6       0.0       0.0       0.0       0.0       0.0
10 H  s               0.1       0.3       1.7       0.1       0.0       0.0
10 H  pz              0.0       0.6       3.4       0.4       0.0       0.0
10 H  px              0.1       0.0       0.7       0.0       0.0       0.0
11 H  s               0.0       2.1       7.9       0.4       0.0       0.1
11 H  pz              0.0       0.0       0.1       0.0       0.0       0.0
11 H  px              0.0       0.5       0.5       0.5       0.0       0.0
11 H  py              0.1       4.9      19.1       0.7       0.0       0.1
12 H  s               2.5       0.9       0.0       0.2       2.8       0.5
12 H  px              6.5       2.5       0.1       0.3       4.0       0.7
12 H  py              1.3       0.4       0.0       0.3       2.0       0.2
13 H  s               0.1       0.1       0.1       0.0       4.1       0.4
13 H  px              0.1       0.0       0.0       0.1       0.0       0.0
13 H  py              0.5       0.2       0.3       0.1       8.5       0.7
14 H  s               3.6       0.4       0.0       0.1       2.8       0.5
14 H  px             10.1       1.0       0.0       0.1       4.2       0.7
14 H  py              2.3       0.2       0.0       0.2       1.9       0.2
15 H  s               0.0       0.0       0.1       0.0       0.0       1.3
15 H  px              0.0       0.7       0.0       0.4       0.0       1.5
15 H  py              0.0       0.6       0.0       1.3       0.0       0.4
16 H  s               1.1       6.5       0.8       1.4       0.2       0.0
16 H  px              1.5       9.6       1.1       1.0       0.2       0.0
16 H  py              1.0       5.6       0.5       2.1       0.1       0.0
17 H  s               0.6       1.1       0.3       0.2       0.0       0.0
17 H  pz              1.5       2.0       0.5       0.5       0.0       0.0
17 H  px              0.0       0.4       0.1       0.0       0.0       0.0
17 H  py              0.2       0.3       0.1       0.0       0.0       0.0
18 H  s               1.0       1.1       0.3       0.2       0.0       0.0
18 H  pz              2.3       2.0       0.6       0.5       0.0       0.0
18 H  px              0.0       0.4       0.1       0.0       0.0       0.0
18 H  py              0.4       0.3       0.1       0.0       0.0       0.0

                    216       217       218       219       220       221   
                   4.61599  21.38000  21.84789  21.91726  22.02712  22.07470
                   0.00000   0.00000   0.00000   0.00000   0.00000   0.00000
                  --------  --------  --------  --------  --------  --------
 0 C  s               0.0       0.6      11.0      18.0      18.1      48.5
 1 C  s               0.2      18.8      23.9       8.4       0.5       7.2
 1 C  px              0.1       0.0       0.1       0.0       0.1       0.1
 1 C  dxy             0.2       0.0       0.0       0.0       0.0       0.0
 2 C  s               0.0      13.9      11.6       5.6       5.0       6.7
 3 C  s               0.0      12.9       0.3      28.4       6.9       0.0
 4 C  s               0.0      16.3       7.7       9.4       1.0      10.0
 4 C  dxy             0.1       0.0       0.0       0.0       0.0       0.0
 5 C  s               0.1      21.4      25.3       2.8       5.4       5.8
 5 C  px              0.1       0.0       0.1       0.0       0.1       0.0
 5 C  dxy             0.3       0.0       0.0       0.0       0.0       0.0
 6 C  s               0.2      14.8       0.0      11.5      20.4       1.4
 6 C  px              0.3       0.0       0.1       0.0       0.0       0.1
 6 C  py              1.7       0.0       0.0       0.0       0.0       0.0
 6 C  dx2y2           2.5       0.0       0.0       0.0       0.0       0.0
 7 O  s               4.8       0.1       0.0       0.1       0.0       0.0
 7 O  px             14.8       0.0       0.0       0.0       0.0       0.0
 7 O  py              8.3       0.0       0.0       0.0       0.0       0.0
 7 O  dz2             3.8       0.0       0.0       0.0       0.0       0.0
 7 O  dx2y2          25.2       0.0       0.0       0.0       0.0       0.0
 7 O  dxy             8.5       0.0       0.0       0.0       0.0       0.0
 8 C  s               0.1       0.8      19.6      15.3      42.3      19.8
15 H  s              13.4       0.0       0.0       0.0       0.0       0.0
15 H  px             12.7       0.0       0.0       0.0       0.0       0.0
15 H  py              1.7       0.0       0.0       0.0       0.0       0.0

                    222       223       224       225   
                  22.19078  22.20513  22.35275  43.67624
                   0.00000   0.00000   0.00000   0.00000
                  --------  --------  --------  --------
 0 C  s               0.6       2.3       0.3       0.0
 1 C  s              11.8      12.8      16.3       0.0
 2 C  s              35.5       3.0      18.2       0.0
 3 C  s               1.0      33.1      16.9       0.0
 4 C  s              25.7      13.3      16.1       0.0
 5 C  s              22.5       2.8      13.7       0.0
 6 C  s               1.7      31.7      18.1       0.0
 7 O  s               0.0       0.0       0.0      99.9
 8 C  s               0.9       0.6       0.2       0.0


                      *****************************
                      * MAYER POPULATION ANALYSIS *
                      *****************************

  NA   - Mulliken gross atomic population
  ZA   - Total nuclear charge
  QA   - Mulliken gross atomic charge
  VA   - Mayer's total valence
  BVA  - Mayer's bonded valence
  FA   - Mayer's free valence

  ATOM       NA         ZA         QA         VA         BVA        FA
  0 C      6.5693     6.0000    -0.5693     3.7756     3.7756     0.0000
  1 C      5.9042     6.0000     0.0958     3.4764     3.4764    -0.0000
  2 C      6.1932     6.0000    -0.1932     3.8265     3.8265    -0.0000
  3 C      6.1890     6.0000    -0.1890     3.9011     3.9011    -0.0000
  4 C      6.2039     6.0000    -0.2039     3.8599     3.8599     0.0000
  5 C      5.9184     6.0000     0.0816     3.3302     3.3302    -0.0000
  6 C      5.7349     6.0000     0.2651     4.0668     4.0668    -0.0000
  7 O      8.4173     8.0000    -0.4173     2.0347     2.0347     0.0000
  8 C      6.6237     6.0000    -0.6237     3.7431     3.7431    -0.0000
  9 H      0.8453     1.0000     0.1547     0.9601     0.9601     0.0000
 10 H      0.8401     1.0000     0.1599     0.9585     0.9585     0.0000
 11 H      0.8180     1.0000     0.1820     0.9576     0.9576     0.0000
 12 H      0.8529     1.0000     0.1471     0.9702     0.9702     0.0000
 13 H      0.8572     1.0000     0.1428     0.9705     0.9705    -0.0000
 14 H      0.8555     1.0000     0.1445     0.9718     0.9718     0.0000
 15 H      0.6767     1.0000     0.3233     0.8911     0.8911     0.0000
 16 H      0.8379     1.0000     0.1621     0.9650     0.9650    -0.0000
 17 H      0.8319     1.0000     0.1681     0.9508     0.9508    -0.0000
 18 H      0.8306     1.0000     0.1694     0.9503     0.9503    -0.0000

  Mayer bond orders larger than 0.100000
B(  0-C ,  1-C ) :   0.7508 B(  0-C ,  9-H ) :   0.9823 B(  0-C , 10-H ) :   0.9760 
B(  0-C , 11-H ) :   0.9917 B(  1-C ,  2-C ) :   1.3565 B(  1-C ,  6-C ) :   1.4927 
B(  2-C ,  3-C ) :   1.4390 B(  2-C , 12-H ) :   0.9403 B(  3-C ,  4-C ) :   1.4470 
B(  3-C , 13-H ) :   0.9417 B(  4-C ,  5-C ) :   1.3512 B(  4-C , 14-H ) :   0.9279 
B(  5-C ,  6-C ) :   1.3850 B(  5-C ,  8-C ) :   0.7613 B(  6-C ,  7-O ) :   1.0298 
B(  7-O , 15-H ) :   0.8665 B(  8-C , 16-H ) :   0.9714 B(  8-C , 17-H ) :   0.9813 
B(  8-C , 18-H ) :   0.9810 

-------
TIMINGS
-------

Total SCF time: 0 days 0 hours 0 min 12 sec 

Total time                  ....      12.491 sec
Sum of individual times     ....      12.468 sec  ( 99.8%)

SCF preparation             ....       0.034 sec  (  0.3%)
Fock matrix formation       ....      12.228 sec  ( 97.9%)
  Startup                   ....       0.002 sec  (  0.0% of F)
  Split-RI-J                ....       2.745 sec  ( 22.4% of F)
  XC integration            ....       9.458 sec  ( 77.4% of F)
    Basis function eval.    ....       1.700 sec  ( 18.0% of XC)
    Density eval.           ....       3.220 sec  ( 34.0% of XC)
    XC-Functional eval.     ....       0.981 sec  ( 10.4% of XC)
    XC-Potential eval.      ....       3.401 sec  ( 36.0% of XC)
Diagonalization             ....       0.000 sec  (  0.0%)
Density matrix formation    ....       0.012 sec  (  0.1%)
Total Energy calculation    ....       0.002 sec  (  0.0%)
Population analysis         ....       0.096 sec  (  0.8%)
Orbital Transformation      ....       0.011 sec  (  0.1%)
Orbital Orthonormalization  ....       0.000 sec  (  0.0%)
DIIS solution               ....       0.075 sec  (  0.6%)
  MO trafo                  ....       0.000 sec  (  0.0 % of DIIS)
  Orb grad                  ....       0.000 sec  (  0.0 % of DIIS)
  Energy W gradient         ....       0.000 sec  (  0.0 % of DIIS)
  DIIS error                ....       0.013 sec  ( 17.2 % of DIIS)
  DIIS work                 ....       0.056 sec  ( 74.0 % of DIIS)
  Form Q                    ....       0.000 sec  (  0.0 % of DIIS)
  Form QpQm                 ....       0.000 sec  (  0.0 % of DIIS)
  Exp/Cayley                ....       0.000 sec  (  0.0 % of DIIS)
  Orb update                ....       0.000 sec  (  0.0 % of DIIS)
  Wake-sleep                ....       0.001 sec  (  0.9 % of DIIS)
SOSCF solution              ....       0.010 sec  (  0.1%)
  MO trafo                  ....       0.007 sec  ( 74.9 % of SOSCF)
  Orb grad                  ....       0.000 sec  (  0.4 % of SOSCF)
  Rot update                ....       0.000 sec  (  0.2 % of SOSCF)
  Step                      ....       0.002 sec  ( 24.2 % of SOSCF)
Finished LeanSCF after  12.5 sec

Maximum memory used throughout the entire LEANSCF-calculation: 26.0 MB


-------------------------------------------------------------------------------
                          DFT DISPERSION CORRECTION                            
                                                                               
                                DFTD4 V3.4.0                                   
-------------------------------------------------------------------------------
The R2SCAN3C composite method is recognized
Using three-body term ABC
Active option DFTDOPT                   ...         5   

-------------------------   ----------------
Dispersion correction           -0.006247469
-------------------------   ----------------

------------------   -----------------
gCP correction             0.007541589
------------------   -----------------

-------------------------   --------------------
FINAL SINGLE POINT ENERGY      -386.004692677883
-------------------------   --------------------


------------------------------------------------------------------------------
                              ORCA PROPERTY CALCULATIONS
------------------------------------------------------------------------------

GBWName                                 ... sp.gbw
Number of atoms                         ...     19
Number of basis functions               ...    226
Max core memory                         ...   1024 MB

Electric properties:
Dipole moment                           ... YES
Quadrupole moment                       ...  NO
Static polarizability (Dipole/Dipole)   ...  NO
Static polarizability (Dipole/Quad.)    ...  NO
Static polarizability (Quad./Quad.)     ...  NO
Static polarizability (Velocity)        ...  NO

Atomic electric properties:
Dipole moment                           ...  NO
Quadrupole moment                       ...  NO
Static polarizability                   ...  NO

Choice of electric origin               ... Center of mass
Position of electric origin             ...     0.000002    -0.000011    -0.000000

General magnetic properties:
Magnetizability                         ...  NO

EPR properties:
g-Tensor (aka g-matrix)                 ...  NO
Zero-Field splitting spin-orbit         ...  NO
Zero-field splitting spin-spin          ...  NO
Hyperfine couplings                     ...  NO (   0 nuclei)
Quadrupole couplings                    ...  NO (   0 nuclei)
Contact density                         ...  NO (   0 nuclei)

NMR properties:
Chemical shifts                         ...  NO (   0 nuclei)
Spin-rotation constants                 ...  NO (   0 nuclei)
Spin-spin couplings                     ...  NO (   0 nuclei,    0 pairs)

Choice of magnetic origin               ... GIAO
Position of magnetic origin             ...     0.000000     0.000000     0.000000

Properties with geometric perturbations:
SCF Hessian                             ...  NO
IR spectrum                             ...  NO
VCD spectrum                            ...  NO
X-ray spectroscopy properties:
SCF XES/XAS/RIXS spectra                ...  NO


-------------
DIPOLE MOMENT
-------------

Method             : SCF
Type of density    : Electron Density
Multiplicity       :   1
Irrep              :   0
Energy             :  -386.0059867985715982 Eh
Relativity type    : 
Basis              : AO
                                X                 Y                 Z
Electronic contribution:     -0.291234305      -0.652471580       0.000533961
Nuclear contribution   :      0.810363951       0.817258498       0.001430685
                        -----------------------------------------
Total Dipole Moment    :      0.519129646       0.164786918       0.001964646
                        -----------------------------------------
Magnitude (a.u.)       :      0.544659690
Magnitude (Debye)      :      1.384414910



--------------------
Rotational spectrum 
--------------------
 
Rotational constants in cm-1:             0.076903             0.059130             0.033851 
Rotational constants in MHz :          2305.481270          1772.680691          1014.820623 

Dipole components along the rotational axes: 
x,y,z [a.u.] :    -0.522398     0.154112     0.002009 
x,y,z [Debye]:    -1.327830     0.391723     0.005107 

 

Dipole moment calculation done in   0.0 sec 

Maximum memory used throughout the entire PROP-calculation: 15.5 MB

--------------------------------
SUGGESTED CITATIONS FOR THIS RUN
--------------------------------

Below you find a list of papers that are relevant to this ORCA run
We neither can nor want to force you to cite these papers, but we appreciate if you do
You receive ORCA, which is the product of decades of hard work by many enthusiastic individuals, for free
The only thing we kindly ask in return is that you cite our papers,
We deeply appreciate it, if you show your appreciation for ORCA by not just citing the generic ORCA reference.

Please note that relegating all ORCA citations to the supporting information does *not* help us.
SI sections are not indexed - citations you put there will not count into any citation statistics
But we need these citations in order to attract the funding resources that allow us to do what we are doing

Therefore, if you are a happy ORCA user, please consider citing a few of the papers listed below in the main body of your paper

In addition to the list printed below, the program has created the file sp.bibtex that contains the list in bibtex format
You can import this file easily into all common literature databanks and citation aid programs


List of essential papers. We consider these as the minimum necessary citations

  1. Neese,F.
     Software update: the ORCA program system, version 5.0
     WIRES Comput. Molec. Sci., 2022 12(1)e1606
     doi.org/10.1002/wcms.1606
  2. Grimme,S.; Hansen,A.; Ehlert,S.; Mewes,J.
     r2SCAN-3c: A 'Swiss army knife' composite electronic-structure method
     J. Chem. Phys., 2021 154 064103
     doi.org/10.1063/5.0040021

List of papers to cite with high priority. The work reported in these papers was absolutely
necessary for this run to complete.
Our perspective: the developers of density functionals and basis sets usually get cited in chemistry papers
Good! But without the algorithms to do something with them, the functionals or basis sets would not do anything.
Hence, in our opinion, the algorithm design and method developments papers are equally worthy of getting cited

  1. Neese,F.
     An improvement of the resolution of the identity approximation for the formation of the Coulomb matrix
     J. Comp. Chem., 2003 24(14)1740-1747
     doi.org/10.1002/jcc.10318
  2. Neese,F.
     The SHARK Integral Generation and Digestion System
     J. Comp. Chem., 2022  1-16
     doi.org/10.1002/jcc.26942
  3. Lehtola,S.; Steigemann,C.; Oliveira,M.; Marques,M.
     Recent developments in Libxc - A comprehensive library of functionals for density functional theory
     Software X, 2018 7 
     doi.org/10.1016/j.softx.2017.11.002
  4. Caldeweyher,E.; Bannwarth,C.; Grimme,S.
     Extension of the D3 dispersion coefficient model
     J. Chem. Phys., 2017 147 034112
     doi.org/10.1063/1.4993215
  5. Caldeweyher,E.; Ehlert,S.; Hansen,A.; Neugebauer,H.; Spicher,S.; Bannwarth,C.; Grimme,S.
     A generally applicable atomic-charge dependent London dispersion correction
     J. Chem. Phys., 2019 150 154122
     doi.org/10.1063/1.5090222
  6. Caldeweyher,E.; Mewes,J.; Ehlert,S.; Grimme,S.
     Extension and evaluation of the D4 London-dispersion model for periodic systems
     Phys. Chem. Chem. Phys., 2020 22(16)8499-8512
     doi.org/10.1039/D0CP00502A
  7. Wittmann,L.; Gordiy,I.; Friede,M.; Helmich-Paris,B.; Grimme,S.; Hansen,A.; Bursch,M.
     Extension of the D3 and D4 London Dispersion Corrections to the full Actinides Series
     Phys. Chem. Chem. Phys., 2024 26(32)21379-21394
     doi.org/https://doi.org/10.1039/D4CP01514B 

List of suggested additional citations. These are papers that are important in the 'surrounding' of 
of this run, or papers that preceded the highly important papers. If you like your results we are grateful for a citation.

  1. Neese,F.
     The ORCA program system
     WIRES Comput. Molec. Sci., 2012 2(1)73-78
     doi.org/10.1002/wcms.81
  2. Neese,F.
     Software update: the ORCA program system, version 4.0
     WIRES Comput. Molec. Sci., 2018 8(1)1-6
     doi.org/10.1002/wcms.1327
  3. Neese,F.; Wennmohs,F.; Becker,U.; Riplinger,C.
     The ORCA quantum chemistry program package
     J. Chem. Phys., 2020 152 Art. No. L224108
     doi.org/10.1063/5.0004608

List of optional additional citations

  1. Neese,F.
     Approximate second-order SCF convergence for spin unrestricted wavefunctions
     Chem. Phys. Lett., 2000 325(1-3)93-98
     doi.org/10.1016/s0009-2614(00)00662-x

Timings for individual modules:

Sum of individual times          ...       13.198 sec (=   0.220 min)
Startup calculation              ...        0.590 sec (=   0.010 min)   4.5 %
SCF iterations                   ...       12.568 sec (=   0.209 min)  95.2 %
Property calculations            ...        0.040 sec (=   0.001 min)   0.3 %
                             ****ORCA TERMINATED NORMALLY****
TOTAL RUN TIME: 0 days 0 hours 0 minutes 13 seconds 266 msec
