12
 energy: -1610.920448080302 gnorm: 0.029596964177 xtb: 6.7.1 (41059b4)
C           -0.92724089861088        1.04407530756266        0.00005322960002
C            0.43430397229245        1.30623076167883        0.00015741600007
C            1.36783657810612        0.28102234192453        0.00019875400009
C            0.91409033290506       -1.02920965125607        0.00026692670012
C           -0.44053084969521       -1.32507237598717        0.00009771910004
C           -1.34833719819748       -0.27700903792275       -0.00003357590001
Cl          -3.03367882944430       -0.62324333547618       -0.00004804590002
Cl           2.05656838601132       -2.31557613562609       -0.00011461280005
Cl           0.97706699393296        2.93881270190227       -0.00009253090004
H           -1.64289847532801        1.84968751411965        0.00008184790004
H            2.42344022227389        0.49777681322058        0.00004158480002
H           -0.78046651234585       -2.34767126424032        0.00002882420001
12
 energy: -1610.921250722433 gnorm: 0.018240780350 xtb: 6.7.1 (41059b4)
C           -0.93121406613497        1.04841561024659        0.00006361882559
C            0.43449211370873        1.30690190018382        0.00006323395669
C            1.37363871145848        0.28222890119026        0.00010023190966
C            0.91461154416210       -1.02968988637452        0.00004091687331
C           -0.44234435109047       -1.33063993484102        0.00006655771845
C           -1.34904907646628       -0.27716729683365        0.00008836489536
Cl          -3.04538812106349       -0.62567805701226       -0.00003407639562
Cl           2.06438596540551       -2.32461676045380        0.00004522975819
Cl           0.98091778234419        2.95016245013306        0.00002272028451
H           -1.64941896727339        1.85700804567583        0.00005361023598
H            2.43303788488045        0.49982245259453        0.00008575802608
H           -0.78351570596971       -2.35692374876570        0.00004135897083
12
 energy: -1610.921562509362 gnorm: 0.004903947866 xtb: 6.7.1 (41059b4)
C           -0.93407409941531        1.05156723464246        0.00004571914060
C            0.43382302596476        1.30486416753769        0.00004331087981
C            1.37788147221057        0.28309723198951        0.00002379421239
C            0.91324366085144       -1.02807483081127        0.00006190988816
C           -0.44366208146265       -1.33466334320553        0.00002936538042
C           -1.34698924885890       -0.27673672984090       -0.00001147003831
Cl          -3.05587893425218       -0.62792053596128        0.00005469957592
Cl           2.07137199454969       -2.33277879164023        0.00011576824644
Cl           0.98421982119347        2.96039999569868        0.00010871536489
H           -1.65320223008317        1.86139613986837        0.00005010622678
H            2.43875751427365        0.50105518318521        0.00007052530308
H           -0.78533718708455       -2.36238202129265        0.00004507318938
12
 energy: -1610.921580693611 gnorm: 0.001172949462 xtb: 6.7.1 (41059b4)
C           -0.93400856510488        1.05150140736121        0.00004004195554
C            0.43338635103056        1.30349063984531        0.00004793624647
C            1.37781045694753        0.28306903282769        0.00004975745917
C            0.91227798238049       -1.02701256449325        0.00003400862338
C           -0.44364026861816       -1.33457042475847        0.00003601953308
C           -1.34558706993599       -0.27644032966675        0.00005225826856
Cl          -3.05694826976772       -0.62816557700605        0.00002373136563
Cl           2.07211358794597       -2.33362602663204        0.00010925636348
Cl           0.98448544061468        2.96147273663883        0.00009411533529
H           -1.65265994063094        1.86086541279977        0.00004391146010
H            2.43804118861467        0.50089256824539        0.00006664661188
H           -0.78511718605077       -2.36165317593097        0.00003983494830
12
 energy: -1610.921582240550 gnorm: 0.000489737190 xtb: 6.7.1 (41059b4)
C           -0.93369451943717        1.05115955345321        0.00004646328001
C            0.43313371016150        1.30268565286416        0.00006574464227
C            1.37736172801254        0.28296920794660        0.00006844096410
C            0.91169397727181       -1.02639364248671        0.00008474055161
C           -0.44350541475779       -1.33413073539429        0.00004684792667
C           -1.34476419718953       -0.27626276693171        0.00001173274871
Cl          -3.05667010664202       -0.62811603947399        0.00002997547662
Cl           2.07197232139174       -2.33341818856667        0.00006235984389
Cl           0.98433748661426        2.96122416180072        0.00006528961036
H           -1.65189724689546        1.86006608585804        0.00004224802602
H            2.43697643183598        0.50064694532099        0.00007370547574
H           -0.78479046251497       -2.36060653837413        0.00003997060519
12
 energy: -1610.921582240550 gnorm: 0.000489737190 xtb: 6.7.1 (41059b4)
C           -0.93369451943717        1.05115955345321        0.00004646328001
C            0.43313371016150        1.30268565286416        0.00006574464227
C            1.37736172801254        0.28296920794660        0.00006844096410
C            0.91169397727181       -1.02639364248671        0.00008474055161
C           -0.44350541475779       -1.33413073539429        0.00004684792667
C           -1.34476419718953       -0.27626276693171        0.00001173274871
Cl          -3.05667010664202       -0.62811603947399        0.00002997547662
Cl           2.07197232139174       -2.33341818856667        0.00006235984389
Cl           0.98433748661426        2.96122416180072        0.00006528961036
H           -1.65189724689546        1.86006608585804        0.00004224802602
H            2.43697643183598        0.50064694532099        0.00007370547574
H           -0.78479046251497       -2.36060653837413        0.00003997060519
