
                                 *****************
                                 * O   R   C   A *
                                 *****************

                                            #,                                       
                                            ###                                      
                                            ####                                     
                                            #####                                    
                                            ######                                   
                                           ########,                                 
                                     ,,################,,,,,                         
                               ,,#################################,,                 
                          ,,##########################################,,             
                       ,#########################################, ''#####,          
                    ,#############################################,,   '####,        
                  ,##################################################,,,,####,       
                ,###########''''           ''''###############################       
              ,#####''   ,,,,##########,,,,          '''####'''          '####       
            ,##' ,,,,###########################,,,                        '##       
           ' ,,###''''                  '''############,,,                           
         ,,##''                                '''############,,,,        ,,,,,,###''
      ,#''                                            '''#######################'''  
     '                                                          ''''####''''         
             ,#######,   #######,   ,#######,      ##                                
            ,#'     '#,  ##    ##  ,#'     '#,    #''#        ,####,   ,####,        
            ##       ##  ##   ,#'  ##            #'  '#       #'       #'  '#        
            ##       ##  #######   ##           ,######,      #####,   #    #        
            '#,     ,#'  ##    ##  '#,     ,#' ,#      #,     #,   #   #,  ,#        
             '#######'   ##     ##  '#######'  #'      '#     '####' # '####'        



                #########################################################
                #                        -***-                          #
                #          Department of theory and spectroscopy        #
                #                                                       #
                #                      Frank Neese                      #
                #                                                       #
                #     Directorship, Architecture, Infrastructure        #
                #                    SHARK, DRIVERS                     #
                #        Core code/Algorithms in most modules           #
                #                                                       #
                #        Max Planck Institute fuer Kohlenforschung      #
                #                Kaiser Wilhelm Platz 1                 #
                #                 D-45470 Muelheim/Ruhr                 #
                #                      Germany                          #
                #                                                       #
                #                  All rights reserved                  #
                #                        -***-                          #
                #########################################################


                         Program Version 6.0.1  -  RELEASE   -


 With contributions from (in alphabetic order):
[Max-Planck-Institut fuer Kohlenforschung]                               
  Daniel Aravena         : Magnetic Suceptibility                        
  Michael Atanasov       : Ab Initio Ligand Field Theory (pilot matlab implementation)
  Alexander A. Auer      : GIAO ZORA, VPT2 properties, NMR spectrum      
  Ute Becker             : All parallelization in ORCA, NUMFREQ, NUMCALC 
  Giovanni Bistoni       : ED, misc. LED, open-shell LED, HFLD           
  Martin Brehm           : Molecular dynamics                            
  Dmytro Bykov           : pre 5.0 version of the SCF Hessian            
  Marcos Casanova-Páez   : Triplet and SCS-CIS(D). UHF-(DLPNO)-IP/EA/STEOM-CCSD. UHF-CVS-IP/STEOM-CCSD   
  Vijay G. Chilkuri      : MRCI spin determinant printing, contributions to CSF-ICE 
  Pauline Colinet        : FMM embedding                                 
  Dipayan Datta          : RHF DLPNO-CCSD density                        
  Achintya Kumar Dutta   : EOM-CC, STEOM-CC                              
  Nicolas Foglia         : Exact transition moments, OPA infrastructure, MCD improvements    
  Dmitry Ganyushin       : Spin-Orbit,Spin-Spin,Magnetic field MRCI      
  Miquel Garcia-Rates    : C-PCM and meta-GGA Hessian, CCSD/C-PCM, Gaussian charge scheme 
  Tiago L. C. Gouveia    : GS-ROHF, GS-ROCIS                             
  Yang Guo               : DLPNO-NEVPT2, F12-NEVPT2, CIM, IAO-localization        
  Andreas Hansen         : Spin unrestricted coupled pair/coupled cluster methods 
  Ingolf Harden          : AUTO-CI MPn and infrastructure                
  Benjamin Helmich-Paris : MC-RPA, TRAH-(SCF,CASSCF), AVAS, COSX integrals, SCF dyn. polar. 
  Lee Huntington         : MR-EOM, pCC                                   
  Robert Izsak           : Overlap fitted RIJCOSX, COSX-SCS-MP3, EOM     
  Riya Kayal             : Wick's Theorem for AUTO-CI, AUTO-CI UHF-CCSDT 
  Emily Kempfer          : AUTO-CI, RHF CISDT and CCSDT                  
  Christian Kollmar      : KDIIS, OOCD, Brueckner-CCSD(T), CCSD density, CASPT2, CASPT2-K, improved NEVPT2 
  Axel Koslowski         : Symmetry handling                             
  Simone Kossmann        : meta-GGA functionals, TD-DFT gradient, OOMP2, (MP2 Hessian; deprecated post 5.0) 
  Lucas Lang             : DCDCAS                                        
  Marvin Lechner         : AUTO-CI (C++ implementation), FIC-MRCC        
  Spencer Leger          : CASSCF response                               
  Dagmar Lenk            : GEPOL surface, SMD, ORCA-2-JSON               
  Dimitrios Liakos       : Extrapolation schemes; Compound Job, initial MDCI parallelization 
  Dimitrios Manganas     : Further ROCIS development; embedding schemes. LFT, Crystal Embedding 
  Dimitrios Pantazis     : SARC Basis sets                               
  Anastasios Papadopoulos: AUTO-CI, single reference methods and gradients 
  Taras Petrenko         : pre 6.0 DFT Hessian and TD-DFT gradient, (ASA, deprecated), ECA, 1-Electron XAS/XES, NRVS 
  Peter Pinski           : DLPNO-MP2, DLPNO-MP2 Gradient                 
  Christoph Reimann      : Effective Core Potentials                     
  Marius Retegan         : Local ZFS, SOC                                
  Christoph Riplinger    : Optimizer, TS searches, QM/MM, DLPNO-CCSD(T), (RO)-DLPNO pert. Triples 
  Michael Roemelt        : Original ROCIS implementation                 
  Masaaki Saitow         : Open-shell DLPNO-CCSD energy and density      
  Barbara Sandhoefer     : DKH picture change effects                    
  Kantharuban Sivalingam : CASSCF convergence/infrastructure, NEVPT2 and variants, FIC-MRCI 
  Bernardo de Souza      : ESD, SOC TD-DFT                               
  Georgi L. Stoychev     : AutoAux, RI-MP2 NMR, DLPNO-MP2 response, X2C  
  Van Anh Tran           : RI-MP2 g-tensors                              
  Willem Van den Heuvel  : Paramagnetic NMR                              
  Zikuan Wang            : NOTCH, Electric field optimization            
  Frank Wennmohs         : Technical directorship and infrastructure     
  Hang Xu                : AUTO-CI-Response properties                   
                                                                         
[FACCTs GmbH]                                                            
  Markus Bursch, Miquel Garcia-Rates, Christoph Riplinger, Bernardo de Souza, Georgi L. Stoychev 
                                                                 
  APM, Basis sets (HGBS, AHGBS, def-TZVP (Ac-Lr), def2-XVPD (La-Lu)), CI-OPT, improved COSX, DLPNO-Multilevel,           
  DOCKER, DRACO, updates on ESD, GOAT, IRC, LR-CPCM, MBIS, meta-GGA TD-DFT gradient, ML-optimized integration grids, 
  MM, NACMEs, nearIR, NEB, NEB-TS, NL-DFT gradient (VV10), 2- and 3-layer-ONIOM, interface openCOSMO-RS, QMMM,   
  Crystal-QMMM, SF, symmetry and pop. for TD-DFT, r2SCAN hybrids, SOLVATOR                                   
                                                                         
[Other institutions]                                                     
  V. Asgeirsson          : NEB                                           
  Christoph Bannwarth    : sTDA-DFT, sTD-DFT, PBEh-3c, B97-3c, D3        
  Sebastian Ehlert       : rSCAN, r2SCAN, r2SCAN-3c, D4, dhf basis sets  
  Marvin Friede          : D4 for Fr, Ra, Ac-Lr                          
  Lars Goerigk           : TD-DFT with DH, B97 family of functionals     
  Stefan Grimme          : VdW corrections, initial TS optimization, DFT functionals, gCP, sTDA/sTD-DF 
  Waldemar Hujo          : DFT-NL                                        
  H. Jonsson             : NEB                                           
  Holger Kruse           : gCP                                           
  Marcel Mueller         : wB97X-3c, vDZP basis set                      
  Hagen Neugebauer       : wr2SCAN                                       
  Tobias Risthaus        : range-separated hybrid DFT                    
  Lukas Wittmann         : regularized MP2, r2SCAN double-hybrids, wr2SCAN        
                                                                         
We gratefully acknowledge several colleagues who have allowed us to      
interface, adapt or use parts of their codes:                            
  Ed Valeev, F. Pavosevic, A. Kumar             : LibInt (2-el integral package), F12 methods 
  Garnet Chan, S. Sharma, J. Yang, R. Olivares  : DMRG                   
  Ulf Ekstrom                                   : XCFun DFT Library      
  Mihaly Kallay                                 : mrcc  (arbitrary order and MRCC methods)
  Frank Weinhold                                : gennbo (NPA and NBO analysis)           
  Simon Mueller                                 : openCOSMO-RS                            
  Christopher J. Cramer and Donald G. Truhlar   : smd solvation model                     
  S Lehtola, MJT Oliveira, MAL Marques          : LibXC Library                           
  Liviu Ungur et al                             : ANISO software                          


 Your calculation uses the libint2 library for the computation of 2-el integrals
 For citations please refer to: http://libint.valeyev.net

 Your ORCA version has been built with support for libXC version: 6.2.2
 For citations please refer to: https://libxc.gitlab.io

 This ORCA versions uses:
   CBLAS   interface :  Fast vector & matrix operations
   LAPACKE interface :  Fast linear algebra routines
   SCALAPACK package :  Parallel linear algebra routines
   Shared memory     :  Shared parallel matrices
   BLAS/LAPACK       :  OpenBLAS 0.3.27  USE64BITINT DYNAMIC_ARCH NO_AFFINITY Zen SINGLE_THREADED
        Core in use  :  Zen
   Copyright (c) 2011-2014, The OpenBLAS Project


Your calculation utilizes the geometrical counterpoise correction gCP
Please cite in your paper:
H.Kruse, S. Grimme J.Chem.Phys., 136, (2012), 154101 
   

Your calculation utilizes the DFT-NL dispersion correction.
Cite in your paper:
Vydrov, O. A.; Van Voorhis, T. J. Chem. Phys. 2010, 133, 244103
Hujo, W.; Grimme, S. J. Chem. Theory Comput. 2011, 7, 3866 
   

================================================================================

----- Orbital basis set information -----
Your calculation utilizes the basis: def2-TZVP
   F. Weigend and R. Ahlrichs, Phys. Chem. Chem. Phys. 7, 3297 (2005).

----- AuxJ basis set information -----
Your calculation utilizes the auxiliary basis: def2/J
   F. Weigend, Phys. Chem. Chem. Phys. 8, 1057 (2006).

================================================================================
                                        WARNINGS
                       Please study these warnings very carefully!
================================================================================


================================================================================
                                       INPUT FILE
================================================================================
NAME = sp.inp
|  1> ! wb97x-v def2-tzvp def2/J RIJCOSX DEFGRID2 scfconv7 GCP(DFT/TZ) printgap
|  2> %output
|  3>     printlevel normal
|  4> end
|  5> * xyz 0 1
|  6> C -2.585686803540608 0.6022930363630673 0.0010818188832652737
|  7> C -1.231784575392635 -0.05858550964095281 9.325705516576075e-05
|  8> C -1.1509485218423718 -1.455066853586913 0.0002677975422482952
|  9> C 0.07915564488621352 -2.0991754155764863 -0.00039339636000951836
| 10> C 1.2525537352347105 -1.3555763680035482 -0.00038182646821649307
| 11> C 1.1737046488027596 0.034255201682263356 -0.00021201205264754166
| 12> C -0.05595544692244863 0.7062855053763374 -0.0012377934772232156
| 13> C -0.04386014473239057 2.209371909499403 -0.001613241522186932
| 14> O 2.2976833325481363 0.8232857198274786 0.0015606819939241068
| 15> H -2.7315738210068554 1.225290648975056 -0.888215381724185
| 16> H -3.378233485811744 -0.14899224703221328 0.015707238343264575
| 17> H -2.7198358927794275 1.2478760117443775 0.8757767953777665
| 18> H -2.0656771269099456 -2.0394606022139254 0.001145552845392098
| 19> H 0.12870575197379192 -3.183350566625025 -0.0003589406710909851
| 20> H 2.222236792140373 -1.8481988255998802 -4.745522464969555e-05
| 21> H 0.4550156556528111 2.5945017574570413 0.8945794305960691
| 22> H 0.5218112203756881 2.592453016744705 -0.8574790032272755
| 23> H -1.0497157041459173 2.626661387617536 -0.039988280800098606
| 24> H 3.075388819314206 0.25447513308826386 0.0007013097987407675
| 25> *
| 26> 
| 27>                          ****END OF INPUT****
================================================================================

                       ****************************
                       * Single Point Calculation *
                       ****************************

---------------------------------
CARTESIAN COORDINATES (ANGSTROEM)
---------------------------------
  C     -2.585687    0.602293    0.001082
  C     -1.231785   -0.058586    0.000093
  C     -1.150949   -1.455067    0.000268
  C      0.079156   -2.099175   -0.000393
  C      1.252554   -1.355576   -0.000382
  C      1.173705    0.034255   -0.000212
  C     -0.055955    0.706286   -0.001238
  C     -0.043860    2.209372   -0.001613
  O      2.297683    0.823286    0.001561
  H     -2.731574    1.225291   -0.888215
  H     -3.378233   -0.148992    0.015707
  H     -2.719836    1.247876    0.875777
  H     -2.065677   -2.039461    0.001146
  H      0.128706   -3.183351   -0.000359
  H      2.222237   -1.848199   -0.000047
  H      0.455016    2.594502    0.894579
  H      0.521811    2.592453   -0.857479
  H     -1.049716    2.626661   -0.039988
  H      3.075389    0.254475    0.000701

----------------------------
CARTESIAN COORDINATES (A.U.)
----------------------------
  NO LB      ZA    FRAG     MASS         X           Y           Z
   0 C     6.0000    0    12.011   -4.886240    1.138169    0.002044
   1 C     6.0000    0    12.011   -2.327736   -0.110711    0.000176
   2 C     6.0000    0    12.011   -2.174978   -2.749678    0.000506
   3 C     6.0000    0    12.011    0.149582   -3.966867   -0.000743
   4 C     6.0000    0    12.011    2.366984   -2.561668   -0.000722
   5 C     6.0000    0    12.011    2.217980    0.064733   -0.000401
   6 C     6.0000    0    12.011   -0.105740    1.334686   -0.002339
   7 C     6.0000    0    12.011   -0.082884    4.175108   -0.003049
   8 O     8.0000    0    15.999    4.341992    1.555785    0.002949
   9 H     1.0000    0     1.008   -5.161926    2.315464   -1.678484
  10 H     1.0000    0     1.008   -6.383936   -0.281555    0.029682
  11 H     1.0000    0     1.008   -5.139745    2.358144    1.654978
  12 H     1.0000    0     1.008   -3.903564   -3.854022    0.002165
  13 H     1.0000    0     1.008    0.243219   -6.015661   -0.000678
  14 H     1.0000    0     1.008    4.199419   -3.492590   -0.000090
  15 H     1.0000    0     1.008    0.859855    4.902898    1.690510
  16 H     1.0000    0     1.008    0.986080    4.899026   -1.620400
  17 H     1.0000    0     1.008   -1.983675    4.963671   -0.075567
  18 H     1.0000    0     1.008    5.811643    0.480888    0.001325

--------------------------------
INTERNAL COORDINATES (ANGSTROEM)
--------------------------------
 C      0   0   0     0.000000000000     0.00000000     0.00000000
 C      1   0   0     1.506589749470     0.00000000     0.00000000
 C      2   1   0     1.398819016888   119.33121837     0.00000000
 C      3   2   1     1.388536113253   120.95039672   180.01104037
 C      4   3   2     1.389173359275   119.99947423     0.04100000
 C      5   4   3     1.392066449335   119.11594465   359.97595533
 C      6   5   4     1.401317141952   121.90441561   359.94289745
 C      7   6   5     1.503135115535   118.19631492   180.02809658
 O      6   5   4     1.373280882603   121.82167844   179.91394745
 H      1   2   3     1.095563123783   111.62801082   240.83427525
 H      1   2   3     1.092141805591   110.51123671     0.77584893
 H      1   2   3     1.095383338448   111.66079950   120.77285427
 H      3   2   1     1.085470057080   119.26043344     0.00000000
 H      4   3   2     1.085306856355   120.25427150   180.00667780
 H      5   4   3     1.087640670618   120.70531080   179.94801778
 H      8   7   6     1.095610957209   110.79153919   298.98800887
 H      8   7   6     1.095098822066   110.74163955    56.71955666
 H      8   7   6     1.089655247586   112.05670342   177.86803414
 H      9   6   5     0.963520651700   108.74955363     0.11674214

---------------------------
INTERNAL COORDINATES (A.U.)
---------------------------
 C      0   0   0     0.000000000000     0.00000000     0.00000000
 C      1   0   0     2.847042022671     0.00000000     0.00000000
 C      2   1   0     2.643384852839   119.33121837     0.00000000
 C      3   2   1     2.623952981108   120.95039672   180.01104037
 C      4   3   2     2.625157201569   119.99947423     0.04100000
 C      5   4   3     2.630624349463   119.11594465   359.97595533
 C      6   5   4     2.648105625059   121.90441561   359.94289745
 C      7   6   5     2.840513710642   118.19631492   180.02809658
 O      6   5   4     2.595124773069   121.82167844   179.91394745
 H      1   2   3     2.070314266374   111.62801082   240.83427525
 H      1   2   3     2.063848911973   110.51123671     0.77584893
 H      1   2   3     2.069974521328   111.66079950   120.77285427
 H      3   2   1     2.051241134453   119.26043344     0.00000000
 H      4   3   2     2.050932729778   120.25427150   180.00667780
 H      5   4   3     2.055342999582   120.70531080   179.94801778
 H      8   7   6     2.070404658448   110.79153919   298.98800887
 H      8   7   6     2.069436863285   110.74163955    56.71955666
 H      8   7   6     2.059149998327   112.05670342   177.86803414
 H      9   6   5     1.820790156091   108.74955363     0.11674214

---------------------
BASIS SET INFORMATION
---------------------
There are 3 groups of distinct atoms

 Group   1 Type C   : 11s6p2d1f contracted to 5s3p2d1f pattern {62111/411/11/1}
 Group   2 Type O   : 11s6p2d1f contracted to 5s3p2d1f pattern {62111/411/11/1}
 Group   3 Type H   : 5s1p contracted to 3s1p pattern {311/1}

Atom   0C    basis set group =>   1
Atom   1C    basis set group =>   1
Atom   2C    basis set group =>   1
Atom   3C    basis set group =>   1
Atom   4C    basis set group =>   1
Atom   5C    basis set group =>   1
Atom   6C    basis set group =>   1
Atom   7C    basis set group =>   1
Atom   8O    basis set group =>   2
Atom   9H    basis set group =>   3
Atom  10H    basis set group =>   3
Atom  11H    basis set group =>   3
Atom  12H    basis set group =>   3
Atom  13H    basis set group =>   3
Atom  14H    basis set group =>   3
Atom  15H    basis set group =>   3
Atom  16H    basis set group =>   3
Atom  17H    basis set group =>   3
Atom  18H    basis set group =>   3
---------------------------------
AUXILIARY/J BASIS SET INFORMATION
---------------------------------
There are 3 groups of distinct atoms

 Group   1 Type C   : 12s5p4d2f1g contracted to 6s4p3d1f1g pattern {711111/2111/211/2/1}
 Group   2 Type O   : 12s5p4d2f1g contracted to 6s4p3d1f1g pattern {711111/2111/211/2/1}
 Group   3 Type H   : 5s2p1d contracted to 3s1p1d pattern {311/2/1}

Atom   0C    basis set group =>   1
Atom   1C    basis set group =>   1
Atom   2C    basis set group =>   1
Atom   3C    basis set group =>   1
Atom   4C    basis set group =>   1
Atom   5C    basis set group =>   1
Atom   6C    basis set group =>   1
Atom   7C    basis set group =>   1
Atom   8O    basis set group =>   2
Atom   9H    basis set group =>   3
Atom  10H    basis set group =>   3
Atom  11H    basis set group =>   3
Atom  12H    basis set group =>   3
Atom  13H    basis set group =>   3
Atom  14H    basis set group =>   3
Atom  15H    basis set group =>   3
Atom  16H    basis set group =>   3
Atom  17H    basis set group =>   3
Atom  18H    basis set group =>   3

Checking for AutoStart:
The File: sp.gbw exists
Trying to determine its content:
     ... Fine, the file contains calculation information
     ... Fine, the calculation information was read
     ... Fine, the file contains a basis set
     ... Fine, the basis set was read
     ... Fine, the file contains a geometry
     ... Fine, the geometry was read
     ... Fine, the file contains a set of orbitals
     ... Fine, the orbitals can be read
     => possible old guess file was deleted
     => GBW file was renamed to GES file
     => GES file is set as startup file
     => Guess is set to MORead
     ... now leaving AutoStart

------------------------------------------------------------------------------
                             ORCA STARTUP CALCULATIONS
                           -- RI-GTO INTEGRALS CHOSEN --
------------------------------------------------------------------------------
------------------------------------------------------------------------------
                   ___                                                        
                  /   \      - P O W E R E D   B Y -                         
                 /     \                                                     
                 |  |  |   _    _      __       _____    __    __             
                 |  |  |  | |  | |    /  \     |  _  \  |  |  /  |          
                  \  \/   | |  | |   /    \    | | | |  |  | /  /          
                 / \  \   | |__| |  /  /\  \   | |_| |  |  |/  /          
                |  |  |   |  __  | /  /__\  \  |    /   |      \           
                |  |  |   | |  | | |   __   |  |    \   |  |\   \          
                \     /   | |  | | |  |  |  |  | |\  \  |  | \   \       
                 \___/    |_|  |_| |__|  |__|  |_| \__\ |__|  \__/        
                                                                              
                      - O R C A' S   B I G   F R I E N D -                    
                                      &                                       
                       - I N T E G R A L  F E E D E R -                       
                                                                              
 v1 FN, 2020, v2 2021, v3 2022-2024                                           
------------------------------------------------------------------------------


----------------------
SHARK INTEGRAL PACKAGE
----------------------

Number of atoms                             ...     19
Number of basis functions                   ...    339
Number of shells                            ...    139
Maximum angular momentum                    ...      3
Integral batch strategy                     ... SHARK/LIBINT Hybrid
RI-J (if used) integral strategy            ... SPLIT-RIJ (Revised 2003 algorithm where possible)
Printlevel                                  ...      1
Contraction scheme used                     ... SEGMENTED contraction
Prescreening option                         ... SCHWARTZ
   Thresh                                   ... 3.000e-11
   Tcut                                     ... 1.000e-12
   Tpresel                                  ... 1.000e-12 
Coulomb Range Separation                    ... NOT USED
Exchange Range Separation                   ... Long Range
   Mu parameter                             ... 3.000e-01
   Scaling (regular/separated)              ... 1.670e-01 8.330e-01
Multipole approximations                    ... NOT USED
Finite Nucleus Model                        ... NOT USED
CABS basis                                  ... NOT available
Auxiliary Coulomb fitting basis             ... AVAILABLE
   # of basis functions in Aux-J            ...    551
   # of shells in Aux-J                     ...    185
   Maximum angular momentum in Aux-J        ...      4
Auxiliary J/K fitting basis                 ... NOT available
Auxiliary Correlation fitting basis         ... NOT available
Auxiliary 'external' fitting basis          ... NOT available

Checking pre-screening integrals            ... done (  0.0 sec) Dimension = 139
Check shell pair data                       ... done (  0.0 sec)
Shell pair information
Shell pair cut-off parameter TPreSel        ...   1.0e-12
Total number of shell pairs                 ...      9730
Shell pairs after pre-screening             ...      8889
Total number of primitive shell pairs       ...     29148
Primitive shell pairs kept                  ...     19915
          la=0 lb=0:   2486 shell pairs
          la=1 lb=0:   2539 shell pairs
          la=1 lb=1:    663 shell pairs
          la=2 lb=0:   1259 shell pairs
          la=2 lb=1:    636 shell pairs
          la=2 lb=2:    164 shell pairs
          la=3 lb=0:    616 shell pairs
          la=3 lb=1:    323 shell pairs
          la=3 lb=2:    159 shell pairs
          la=3 lb=3:     44 shell pairs

Calculating one electron integrals          ... done (  0.0 sec)
Calculating RI/J V-Matrix + Cholesky decomp.... done (  0.0 sec)
Calculating Nuclear repulsion               ... done (  0.0 sec) ENN=    431.341348005757 Eh

Diagonalization of the overlap matrix:
Smallest eigenvalue                        ... 6.944e-06
Time for diagonalization                   ...    0.008 sec
Threshold for overlap eigenvalues          ... 1.000e-07
Number of eigenvalues below threshold      ... 0
Time for construction of square roots      ...    0.004 sec
Total time needed                          ...    0.013 sec

-------------------
DFT GRID GENERATION
-------------------

General Integration Accuracy     IntAcc      ... 4.388
Radial Grid Type                 RadialGrid  ... OptM3 with GC (2021)
Angular Grid (max. ang.)         AngularGrid ... 4 (Lebedev-302)
Angular grid pruning method      GridPruning ... 4 (adaptive)
Weight generation scheme         WeightScheme... mBecke (2022)
Basis function cutoff            BFCut       ... 1.0000e-11
Integration weight cutoff        WCut        ... 1.0000e-14
Partially contracted basis set               ... off
Rotationally invariant grid construction     ... off
Angular grids for H and He will be reduced by one unit

Total number of grid points                  ...    86116
Total number of batches                      ...     1356
Average number of points per batch           ...       63
Average number of grid points per atom       ...     4532

--------------------
COSX GRID GENERATION
--------------------

GRIDX 1
-------
General Integration Accuracy     IntAcc      ... 3.816
Radial Grid Type                 RadialGrid  ... OptM3 with GC (2021)
Angular Grid (max. ang.)         AngularGrid ... 1 (Lebedev-50)
Angular grid pruning method      GridPruning ... 4 (adaptive)
Weight generation scheme         WeightScheme... mBecke (2022)
Basis function cutoff            BFCut       ... 1.0000e-11
Integration weight cutoff        WCut        ... 1.0000e-14
Partially contracted basis set               ... on
Rotationally invariant grid construction     ... off
Angular grids for H and He will be reduced by one unit

Total number of grid points                  ...    11030
Total number of batches                      ...       96
Average number of points per batch           ...      114
Average number of grid points per atom       ...      581
UseSFitting                                  ... on

GRIDX 2
-------
General Integration Accuracy     IntAcc      ... 4.020
Radial Grid Type                 RadialGrid  ... OptM3 with GC (2021)
Angular Grid (max. ang.)         AngularGrid ... 2 (Lebedev-110)
Angular grid pruning method      GridPruning ... 4 (adaptive)
Weight generation scheme         WeightScheme... mBecke (2022)
Basis function cutoff            BFCut       ... 1.0000e-11
Integration weight cutoff        WCut        ... 1.0000e-14
Partially contracted basis set               ... on
Rotationally invariant grid construction     ... off
Angular grids for H and He will be reduced by one unit

Total number of grid points                  ...    23605
Total number of batches                      ...      195
Average number of points per batch           ...      121
Average number of grid points per atom       ...     1242
UseSFitting                                  ... on

GRIDX 3
-------
General Integration Accuracy     IntAcc      ... 4.338
Radial Grid Type                 RadialGrid  ... OptM3 with GC (2021)
Angular Grid (max. ang.)         AngularGrid ... 3 (Lebedev-194)
Angular grid pruning method      GridPruning ... 4 (adaptive)
Weight generation scheme         WeightScheme... mBecke (2022)
Basis function cutoff            BFCut       ... 1.0000e-11
Integration weight cutoff        WCut        ... 1.0000e-14
Partially contracted basis set               ... on
Rotationally invariant grid construction     ... off
Angular grids for H and He will be reduced by one unit

Total number of grid points                  ...    51795
Total number of batches                      ...      417
Average number of points per batch           ...      124
Average number of grid points per atom       ...     2726
UseSFitting                                  ... on
Initializing property integral containers    ... done (  0.0 sec)

SHARK setup successfully completed in   1.6 seconds

Maximum memory used throughout the entire STARTUP-calculation: 53.7 MB
-------------------------------------------------------------------------------
                                 ORCA GUESS
                   Start orbitals & Density for SCF / CASSCF
-------------------------------------------------------------------------------

------------
SCF SETTINGS
------------
Hamiltonian:
 Density Functional     Method          .... DFT(GTOs)
 Exchange Functional    Exchange        .... WB97X-V
 Correlation Functional Correlation     .... WB97X-V
 Gradients option       PostSCFGGA      .... off
 Hybrid DFT is turned on
   Fraction HF Exchange ScalHFX         ....  0.167000
   Scaling of DF-GGA-X  ScalDFX         ....  0.000000
   Scaling of DF-GGA-C  ScalDFC         ....  1.000000
   Scaling of DF-LDA-C  ScalLDAC        ....  1.000000
   Perturbative correction              ....  0.000000
 Long-range corrected/Screened/Range-Separated Hybrid DFT is turned on
   Amount of maximum screened exact exchange              ....  0.833000
   Range separation parameter mu (erf(mu*r12)/r12)        ....  0.300000
   NL short-range parameter             ....  6.000000
   NL long-range parameter              ....  0.010000
 RI-approximation to the Coulomb term is turned on
   Number of AuxJ basis functions       .... 551
   RIJ-COSX (HFX calculated with COS-X)).... on


General Settings:
 Integral files         IntName         .... sp
 Hartree-Fock type      HFTyp           .... RHF
 Total Charge           Charge          ....    0
 Multiplicity           Mult            ....    1
 Number of Electrons    NEL             ....   66
 Basis Dimension        Dim             ....  339
 Nuclear Repulsion      ENuc            ....    431.3413480058 Eh

Convergence Acceleration:
 AO-DIIS                CNVDIIS         .... on
   Start iteration      DIISMaxIt       ....    12
   Startup error        DIISStart       ....  0.200000
   # of expansion vecs  DIISMaxEq       ....     5
   Bias factor          DIISBfac        ....   1.050
   Max. coefficient     DIISMaxC        ....  10.000
 MO-DIIS                CNVKDIIS        .... off
 Trust-Rad. Augm. Hess. CNVTRAH         .... auto
   Auto Start mean grad. ratio tolernc. ....  1.125000
   Auto Start start iteration           ....     1
   Auto Start num. interpolation iter.  ....    10
   Max. Number of Micro iterations      ....    24
   Max. Number of Macro iterations      .... Maxiter - #DIIS iter
   Number of Davidson start vectors     ....     2
   Converg. threshold    (grad. norm)   ....   1.000e-04
   Grad. Scal. Fac. for Micro threshold ....   0.100
   Minimum threshold for Micro iter.    ....   1.000e-02
   NR start threshold (gradient norm)   ....   1.000e-04
   Initial trust radius                 ....   0.400
   Minimum AH scaling param. (alpha)    ....   1.000
   Maximum AH scaling param. (alpha)    .... 1000.000
   Quad. conv. algorithm                .... NR
   White noise on init. David. guess    .... on
   Maximum white noise                  ....   0.010
   Pseudo random numbers                .... off
   Inactive MOs                         .... canonical
   Orbital update algorithm             .... Taylor
   Preconditioner                       .... Diag
   Full preconditioner red. dimension   ....   250
 SOSCF                  CNVSOSCF        .... on
   Start iteration      SOSCFMaxIt      ....   150
   Startup grad/error   SOSCFStart      ....  0.003300
   Hessian update       SOSCFHessUp     .... L-BFGS
 Level Shifting         CNVShift        .... on
   Level shift para.    LevelShift      ....    0.2500
   Turn off err/grad.   ShiftErr        ....    0.0010
 Zerner damping         CNVZerner       .... off
 Static damping         CNVDamp         .... on
   Fraction old density DampFac         ....    0.7000
   Max. Damping (<1)    DampMax         ....    0.9800
   Min. Damping (>=0)   DampMin         ....    0.0000
   Turn off err/grad.   DampErr         ....    0.1000

SCF Procedure:
 Maximum # iterations   MaxIter         ....   125
 SCF integral mode      SCFMode         .... Direct
   Integral package                     .... SHARK and LIBINT hybrid scheme
 Reset frequency        DirectResetFreq ....    20
 Integral Threshold     Thresh          ....  3.000e-11 Eh
 Primitive CutOff       TCut            ....  1.000e-12 Eh

Convergence Tolerance:
 Convergence Check Mode ConvCheckMode   .... Total+1el-Energy
 Convergence forced     ConvForced      .... 0
 Energy Change          TolE            ....  1.000e-07 Eh
 1-El. energy change                    ....  1.000e-04 Eh
 Orbital Gradient       TolG            ....  1.000e-04
 Orbital Rotation angle TolX            ....  1.000e-04
 DIIS Error             TolErr          ....  1.000e-07

---------------------
INITIAL GUESS: MOREAD
---------------------
Guess MOs are being read from file: sp.ges
Input Geometry matches current geometry (good)
Atom 0: N(Shells)= 11 and 9 - projection required
Input basis set needs projection
NBasis(read)= 226
NBasis(calc)= 339
Basis set overlap was calculated
Using GuessMode=FMatrix for the initial guess
C*T matrix was formed
Effective Fockian was calculated
Effective Fockian was diagonalized
Initial density was built
                      ------------------
                      INITIAL GUESS DONE (   0.0 sec)
                      ------------------
             **** ENERGY FILE WAS UPDATED (sp.en.tmp) ****
Finished Guess after   0.1 sec
Maximum memory used throughout the entire GUESS-calculation: 34.7 MB

-------------------------------------------------------------------------------------------
                                      ORCA LEAN-SCF
                              memory conserving SCF solver
-------------------------------------------------------------------------------------------

----------------------------------------D-I-I-S--------------------------------------------
Iteration    Energy (Eh)           Delta-E    RMSDP     MaxDP     DIISErr   Damp  Time(sec)
-------------------------------------------------------------------------------------------
               ***  Starting incremental Fock matrix formation  ***
    1    -386.3615264769093187     0.00e+00  2.68e-03  1.66e-01  7.14e-02  0.700  15.8
    2    -386.3673462703586097    -5.82e-03  2.16e-03  1.31e-01  5.17e-02  0.700   7.3
                               ***Turning on AO-DIIS***
    3    -386.3717240205691610    -4.38e-03  1.67e-03  9.87e-02  3.69e-02  0.700   7.2
    4    -386.3749380332160968    -3.21e-03  4.03e-03  2.35e-01  2.60e-02  0.000   7.2
                              *** Initializing SOSCF ***
---------------------------------------S-O-S-C-F--------------------------------------
Iteration    Energy (Eh)           Delta-E    RMSDP     MaxDP     MaxGrad    Time(sec)
--------------------------------------------------------------------------------------
    5    -386.3830678411079020    -8.13e-03  1.01e-04  2.68e-03  1.36e-03     7.5
               *** Restarting incremental Fock matrix formation ***
    6    -386.3830931633096384    -2.53e-05  3.56e-05  8.93e-04  3.41e-04    15.6
    7    -386.3830978066731063    -4.64e-06  2.23e-05  1.11e-03  8.87e-05    11.7
    8    -386.3830982811071522    -4.74e-07  5.03e-06  2.13e-04  6.27e-05    11.3
    9    -386.3830984669083932    -1.86e-07  1.88e-06  4.06e-05  1.77e-05    10.0
                  *** Gradient check signals convergence ***

               *****************************************************
               *                     SUCCESS                       *
               *           SCF CONVERGED AFTER   9 CYCLES          *
               *****************************************************


------------------
NL GRID GENERATION
------------------

General Integration Accuracy     IntAcc      ... 4.004
Radial Grid Type                 RadialGrid  ... OptM3 with GC (2021)
Angular Grid (max. ang.)         AngularGrid ... 2 (Lebedev-110)
Angular grid pruning method      GridPruning ... 4 (adaptive)
Weight generation scheme         WeightScheme... mBecke (2022)
Basis function cutoff            BFCut       ... 1.0000e-10
Integration weight cutoff        WCut        ... 1.0000e-14
Partially contracted basis set               ... off
Rotationally invariant grid construction     ... off
Angular grids for H and He will be reduced by one unit

Total number of grid points                  ...    26781
Total number of batches                      ...      429
Average number of points per batch           ...       62
Average number of grid points per atom       ...     1410
Final grid set up in    0.1 sec

-------------------------------------------------------------------------------
                    post-SCF DFT-NL dispersion correction                      
-------------------------------------------------------------------------------

SCF Energy:     -386.383098467 
NL    Energy:      0.249770282 
SC+NL Energy:   -386.133328185 
NL done in  :              2.3 sec
-------------------------------------------------------------------------------
Recomputing exchange energy using gridx3       ... done (   29.551 sec)
Old exchange energy                            :    -17.492519739 Eh
New exchange energy                            :    -17.492492892 Eh
Exchange energy change after final integration :      0.000026847 Eh
Total energy after final integration           :   -386.133301338 Eh
             **** ENERGY FILE WAS UPDATED (sp.en.tmp) ****

----------------
TOTAL SCF ENERGY
----------------

Total Energy       :       -386.13330133750571 Eh          -10507.22131 eV

Components:
Nuclear Repulsion  :        431.34134800575731 Eh           11737.39480 eV
Electronic Energy  :       -817.72444647266570 Eh          -22251.41343 eV
One Electron Energy:      -1376.79755602241357 Eh          -37464.56616 eV
Two Electron Energy:        559.07310954974787 Eh           15213.15273 eV

Virial components:
Potential Energy   :       -770.72706751444503 Eh          -20972.54973 eV
Kinetic Energy     :        384.59376617693925 Eh           10465.32842 eV
Virial Ratio       :          2.00400301641878

DFT components:
N(Alpha)           :       33.000043365625 electrons
N(Beta)            :       33.000043365625 electrons
N(Total)           :       66.000086731249 electrons
E(X)               :      -35.770859733167 Eh       
E(C)               :       -2.718392821908 Eh       
NL Energy, E(C,NL) :        0.249770282342 Eh       
E(XC)              :      -38.239482272734 Eh       

---------------
SCF CONVERGENCE
---------------

  Last Energy change         ...    1.8580e-07  Tolerance :   1.0000e-07
  Last MAX-Density change    ...    4.0573e-05  Tolerance :   1.0000e-05
  Last RMS-Density change    ...    1.8760e-06  Tolerance :   1.0000e-06
  Last DIIS Error            ...    1.3622e-03  Tolerance :   1.0000e-07
  Last Orbital Gradient      ...    1.7695e-05  Tolerance :   1.0000e-04
  Last Orbital Rotation      ...    3.3986e-05  Tolerance :   1.0000e-04


----------------
ORBITAL ENERGIES
----------------

  NO   OCC          E(Eh)            E(eV) 
   0   2.0000     -19.242895      -523.6258 
   1   2.0000     -10.330875      -281.1174 
   2   2.0000     -10.281512      -279.7742 
   3   2.0000     -10.273916      -279.5675 
   4   2.0000     -10.272477      -279.5283 
   5   2.0000     -10.269426      -279.4453 
   6   2.0000     -10.265760      -279.3455 
   7   2.0000     -10.260946      -279.2145 
   8   2.0000     -10.259911      -279.1864 
   9   2.0000      -1.192120       -32.4392 
  10   2.0000      -0.993187       -27.0260 
  11   2.0000      -0.913135       -24.8477 
  12   2.0000      -0.889281       -24.1986 
  13   2.0000      -0.824723       -22.4419 
  14   2.0000      -0.802461       -21.8361 
  15   2.0000      -0.732844       -19.9417 
  16   2.0000      -0.704359       -19.1666 
  17   2.0000      -0.638785       -17.3822 
  18   2.0000      -0.605285       -16.4706 
  19   2.0000      -0.593388       -16.1469 
  20   2.0000      -0.553291       -15.0558 
  21   2.0000      -0.539673       -14.6852 
  22   2.0000      -0.519138       -14.1265 
  23   2.0000      -0.513916       -13.9844 
  24   2.0000      -0.507693       -13.8150 
  25   2.0000      -0.495888       -13.4938 
  26   2.0000      -0.494630       -13.4596 
  27   2.0000      -0.480090       -13.0639 
  28   2.0000      -0.448922       -12.2158 
  29   2.0000      -0.440679       -11.9915 
  30   2.0000      -0.433030       -11.7833 
  31   2.0000      -0.330938        -9.0053 
  32   2.0000      -0.311802        -8.4846 
  33   0.0000       0.072102         1.9620 
  34   0.0000       0.088350         2.4041 
  35   0.0000       0.106041         2.8855 
  36   0.0000       0.121931         3.3179 
  37   0.0000       0.137116         3.7311 
  38   0.0000       0.160974         4.3803 
  39   0.0000       0.172367         4.6903 
  40   0.0000       0.190833         5.1928 
  41   0.0000       0.192861         5.2480 
  42   0.0000       0.199832         5.4377 
  43   0.0000       0.208975         5.6865 
*Only the first 10 virtual orbitals were printed.

                    ********************************
                    * MULLIKEN POPULATION ANALYSIS *
                    ********************************

-----------------------
MULLIKEN ATOMIC CHARGES
-----------------------
   0 C :   -0.401226
   1 C :    0.136983
   2 C :   -0.214959
   3 C :   -0.124750
   4 C :   -0.229849
   5 C :    0.217089
   6 C :   -0.022934
   7 C :   -0.347265
   8 O :   -0.394355
   9 H :    0.130831
  10 H :    0.117254
  11 H :    0.131426
  12 H :    0.104330
  13 H :    0.114905
  14 H :    0.100453
  15 H :    0.125130
  16 H :    0.126492
  17 H :    0.120945
  18 H :    0.309498
Sum of atomic charges:    0.0000000

--------------------------------
MULLIKEN REDUCED ORBITAL CHARGES
--------------------------------
  0 C s       :     3.293918  s :     3.293918
      pz      :     1.053524  p :     3.047107
      px      :     0.931623
      py      :     1.061960
      dz2     :     0.006093  d :     0.056892
      dxz     :     0.011891
      dyz     :     0.013619
      dx2y2   :     0.011194
      dxy     :     0.014097
      f0      :     0.000298  f :     0.003308
      f+1     :     0.000041
      f-1     :     0.001002
      f+2     :     0.000172
      f-2     :     0.000216
      f+3     :     0.000942
      f-3     :     0.000638

  1 C s       :     3.165061  s :     3.165061
      pz      :     0.906244  p :     2.540843
      px      :     0.789976
      py      :     0.844623
      dz2     :     0.004724  d :     0.146969
      dxz     :     0.022106
      dyz     :     0.028346
      dx2y2   :     0.040293
      dxy     :     0.051499
      f0      :     0.001712  f :     0.010144
      f+1     :     0.000760
      f-1     :     0.000656
      f+2     :     0.001027
      f-2     :     0.001103
      f+3     :     0.003410
      f-3     :     0.001476

  2 C s       :     3.196266  s :     3.196266
      pz      :     1.028825  p :     2.921986
      px      :     0.972159
      py      :     0.921002
      dz2     :     0.004689  d :     0.089148
      dxz     :     0.009709
      dyz     :     0.018090
      dx2y2   :     0.026051
      dxy     :     0.030610
      f0      :     0.001603  f :     0.007559
      f+1     :     0.000671
      f-1     :     0.000638
      f+2     :     0.000950
      f-2     :     0.000397
      f+3     :     0.002167
      f-3     :     0.001133

  3 C s       :     3.166689  s :     3.166689
      pz      :     0.953809  p :     2.861675
      px      :     0.947434
      py      :     0.960431
      dz2     :     0.004134  d :     0.088723
      dxz     :     0.028609
      dyz     :     0.005218
      dx2y2   :     0.029220
      dxy     :     0.021541
      f0      :     0.001655  f :     0.007663
      f+1     :     0.000610
      f-1     :     0.000711
      f+2     :     0.000194
      f-2     :     0.001340
      f+3     :     0.002106
      f-3     :     0.001047

  4 C s       :     3.217005  s :     3.217005
      pz      :     1.065992  p :     2.930813
      px      :     0.965836
      py      :     0.898985
      dz2     :     0.006768  d :     0.074685
      dxz     :     0.007774
      dyz     :     0.018691
      dx2y2   :     0.024386
      dxy     :     0.017065
      f0      :     0.001646  f :     0.007346
      f+1     :     0.000688
      f-1     :     0.000656
      f+2     :     0.000762
      f-2     :     0.000535
      f+3     :     0.001945
      f-3     :     0.001113

  5 C s       :     3.035731  s :     3.035731
      pz      :     0.918054  p :     2.556172
      px      :     0.758615
      py      :     0.879502
      dz2     :     0.005082  d :     0.175297
      dxz     :     0.040396
      dyz     :     0.031052
      dx2y2   :     0.053487
      dxy     :     0.045281
      f0      :     0.002531  f :     0.015711
      f+1     :     0.001094
      f-1     :     0.000923
      f+2     :     0.001239
      f-2     :     0.002530
      f+3     :     0.005426
      f-3     :     0.001968

  6 C s       :     3.251317  s :     3.251317
      pz      :     0.985806  p :     2.625072
      px      :     0.809488
      py      :     0.829777
      dz2     :     0.005056  d :     0.136510
      dxz     :     0.021347
      dyz     :     0.024519
      dx2y2   :     0.035340
      dxy     :     0.050247
      f0      :     0.001766  f :     0.010036
      f+1     :     0.000709
      f-1     :     0.000863
      f+2     :     0.000979
      f-2     :     0.001050
      f+3     :     0.003274
      f-3     :     0.001395

  7 C s       :     3.254560  s :     3.254560
      pz      :     1.077014  p :     3.034666
      px      :     1.065817
      py      :     0.891834
      dz2     :     0.005319  d :     0.054756
      dxz     :     0.006285
      dyz     :     0.019763
      dx2y2   :     0.006856
      dxy     :     0.016532
      f0      :     0.000312  f :     0.003283
      f+1     :     0.000654
      f-1     :     0.000336
      f+2     :     0.000498
      f-2     :    -0.000039
      f+3     :     0.000777
      f-3     :     0.000745

  8 O s       :     3.752048  s :     3.752048
      pz      :     1.839269  p :     4.608565
      px      :     1.227465
      py      :     1.541831
      dz2     :     0.004399  d :     0.032033
      dxz     :     0.002742
      dyz     :     0.003930
      dx2y2   :     0.004666
      dxy     :     0.016296
      f0      :     0.000231  f :     0.001708
      f+1     :     0.000448
      f-1     :     0.000231
      f+2     :     0.000034
      f-2     :     0.000104
      f+3     :     0.000189
      f-3     :     0.000473

  9 H s       :     0.848309  s :     0.848309
      pz      :     0.009590  p :     0.020860
      px      :     0.004302
      py      :     0.006967

 10 H s       :     0.861258  s :     0.861258
      pz      :     0.004291  p :     0.021488
      px      :     0.009249
      py      :     0.007948

 11 H s       :     0.847727  s :     0.847727
      pz      :     0.009408  p :     0.020847
      px      :     0.004272
      py      :     0.007167

 12 H s       :     0.873493  s :     0.873493
      pz      :     0.004955  p :     0.022177
      px      :     0.010747
      py      :     0.006476

 13 H s       :     0.863100  s :     0.863100
      pz      :     0.004531  p :     0.021995
      px      :     0.003559
      py      :     0.013905

 14 H s       :     0.877409  s :     0.877409
      pz      :     0.005120  p :     0.022137
      px      :     0.011318
      py      :     0.005699

 15 H s       :     0.853674  s :     0.853674
      pz      :     0.009822  p :     0.021196
      px      :     0.006049
      py      :     0.005326

 16 H s       :     0.852308  s :     0.852308
      pz      :     0.009313  p :     0.021200
      px      :     0.006586
      py      :     0.005302

 17 H s       :     0.857180  s :     0.857180
      pz      :     0.004372  p :     0.021875
      px      :     0.011753
      py      :     0.005749

 18 H s       :     0.643749  s :     0.643749
      pz      :     0.016117  p :     0.046753
      px      :     0.017176
      py      :     0.013461


------------------------
MULLIKEN OVERLAP CHARGES
------------------------
B(  0-C ,  1-C ) :   0.5792 B(  0-C ,  2-C ) :  -0.1417 B(  0-C ,  6-C ) :  -0.1630 
B(  0-C ,  9-H ) :   0.8502 B(  0-C , 10-H ) :   0.8270 B(  0-C , 11-H ) :   0.8532 
B(  1-C ,  2-C ) :   0.9961 B(  1-C ,  4-C ) :  -0.1936 B(  1-C ,  5-C ) :  -0.0851 
B(  1-C ,  6-C ) :   0.9724 B(  1-C ,  7-C ) :  -0.1530 B(  1-C ,  9-H ) :  -0.0848 
B(  1-C , 10-H ) :  -0.1030 B(  1-C , 11-H ) :  -0.0838 B(  1-C , 12-H ) :  -0.1165 
B(  2-C ,  3-C ) :   0.9557 B(  2-C ,  4-C ) :   0.0553 B(  2-C ,  5-C ) :  -0.1348 
B(  2-C ,  6-C ) :  -0.0988 B(  2-C , 12-H ) :   0.8592 B(  2-C , 13-H ) :  -0.0848 
B(  3-C ,  4-C ) :   0.7817 B(  3-C ,  6-C ) :  -0.0867 B(  3-C , 12-H ) :  -0.0948 
B(  3-C , 13-H ) :   0.8388 B(  4-C ,  5-C ) :   1.0031 B(  4-C ,  6-C ) :  -0.1535 
B(  4-C ,  8-O ) :  -0.1649 B(  4-C , 13-H ) :  -0.0764 B(  4-C , 14-H ) :   0.8304 
B(  5-C ,  6-C ) :   0.7308 B(  5-C ,  7-C ) :  -0.1243 B(  5-C ,  8-O ) :   0.7927 
B(  5-C , 14-H ) :  -0.1259 B(  5-C , 18-H ) :  -0.0880 B(  6-C ,  7-C ) :   0.5541 
B(  6-C ,  8-O ) :  -0.1951 B(  6-C , 15-H ) :  -0.0581 B(  6-C , 16-H ) :  -0.0587 
B(  6-C , 17-H ) :  -0.1296 B(  7-C , 15-H ) :   0.8119 B(  7-C , 16-H ) :   0.8122 
B(  7-C , 17-H ) :   0.8908 B(  8-O , 18-H ) :   0.6042 B(  9-H , 11-H ) :  -0.0756 
B( 15-H , 16-H ) :  -0.0548 B( 15-H , 17-H ) :  -0.0502 


                     *******************************
                     * LOEWDIN POPULATION ANALYSIS *
                     *******************************

----------------------
LOEWDIN ATOMIC CHARGES
----------------------
   0 C :   -0.252592
   1 C :   -0.139457
   2 C :   -0.139052
   3 C :   -0.143764
   4 C :   -0.154883
   5 C :   -0.235474
   6 C :   -0.127552
   7 C :   -0.247171
   8 O :    0.075499
   9 H :    0.126492
  10 H :    0.124236
  11 H :    0.126479
  12 H :    0.141125
  13 H :    0.141760
  14 H :    0.138294
  15 H :    0.130153
  16 H :    0.130193
  17 H :    0.122799
  18 H :    0.182913

-------------------------------
LOEWDIN REDUCED ORBITAL CHARGES
-------------------------------
  0 C s       :     2.813156  s :     2.813156
      pz      :     1.068092  p :     3.159081
      px      :     1.029507
      py      :     1.061482
      dz2     :     0.034062  d :     0.255717
      dxz     :     0.037503
      dyz     :     0.061606
      dx2y2   :     0.047664
      dxy     :     0.074881
      f0      :     0.001948  f :     0.024638
      f+1     :     0.002948
      f-1     :     0.003714
      f+2     :     0.004101
      f-2     :     0.001699
      f+3     :     0.006292
      f-3     :     0.003936

  1 C s       :     2.708425  s :     2.708425
      pz      :     0.826100  p :     2.849886
      px      :     0.991358
      py      :     1.032428
      dz2     :     0.031942  d :     0.524005
      dxz     :     0.073629
      dyz     :     0.084129
      dx2y2   :     0.165061
      dxy     :     0.169244
      f0      :     0.004007  f :     0.057141
      f+1     :     0.003929
      f-1     :     0.004032
      f+2     :     0.007176
      f-2     :     0.007009
      f+3     :     0.021722
      f-3     :     0.009266

  2 C s       :     2.753217  s :     2.753217
      pz      :     0.927764  p :     2.960485
      px      :     1.009633
      py      :     1.023088
      dz2     :     0.025826  d :     0.382861
      dxz     :     0.030620
      dyz     :     0.057632
      dx2y2   :     0.113944
      dxy     :     0.154839
      f0      :     0.002988  f :     0.042489
      f+1     :     0.003516
      f-1     :     0.003955
      f+2     :     0.006312
      f-2     :     0.002460
      f+3     :     0.015167
      f-3     :     0.008092

  3 C s       :     2.760566  s :     2.760566
      pz      :     0.879823  p :     2.940437
      px      :     1.072449
      py      :     0.988165
      dz2     :     0.024898  d :     0.398656
      dxz     :     0.095049
      dyz     :     0.012680
      dx2y2   :     0.164547
      dxy     :     0.101482
      f0      :     0.003142  f :     0.044104
      f+1     :     0.004292
      f-1     :     0.003190
      f+2     :     0.001363
      f-2     :     0.008862
      f+3     :     0.015304
      f-3     :     0.007951

  4 C s       :     2.757301  s :     2.757301
      pz      :     0.951503  p :     2.983027
      px      :     1.005687
      py      :     1.025836
      dz2     :     0.026462  d :     0.371714
      dxz     :     0.025468
      dyz     :     0.063992
      dx2y2   :     0.129582
      dxy     :     0.126211
      f0      :     0.003131  f :     0.042841
      f+1     :     0.003518
      f-1     :     0.004309
      f+2     :     0.005736
      f-2     :     0.003623
      f+3     :     0.014404
      f-3     :     0.008121

  5 C s       :     2.712064  s :     2.712064
      pz      :     0.852794  p :     2.752592
      px      :     0.891535
      py      :     1.008263
      dz2     :     0.044641  d :     0.675397
      dxz     :     0.118504
      dyz     :     0.103302
      dx2y2   :     0.183472
      dxy     :     0.225478
      f0      :     0.006866  f :     0.095422
      f+1     :     0.007196
      f-1     :     0.006173
      f+2     :     0.008991
      f-2     :     0.016210
      f+3     :     0.034157
      f-3     :     0.015829

  6 C s       :     2.703097  s :     2.703097
      pz      :     0.874086  p :     2.873134
      px      :     1.011961
      py      :     0.987088
      dz2     :     0.032600  d :     0.496069
      dxz     :     0.066424
      dyz     :     0.074754
      dx2y2   :     0.161887
      dxy     :     0.160404
      f0      :     0.004097  f :     0.055252
      f+1     :     0.004294
      f-1     :     0.003927
      f+2     :     0.006152
      f-2     :     0.007196
      f+3     :     0.020383
      f-3     :     0.009203

  7 C s       :     2.808626  s :     2.808626
      pz      :     1.075236  p :     3.157908
      px      :     1.061406
      py      :     1.021266
      dz2     :     0.034090  d :     0.255536
      dxz     :     0.028882
      dyz     :     0.071618
      dx2y2   :     0.052283
      dxy     :     0.068663
      f0      :     0.002014  f :     0.025102
      f+1     :     0.003156
      f-1     :     0.003464
      f+2     :     0.003821
      f-2     :     0.002565
      f+3     :     0.005534
      f-3     :     0.004549

  8 O s       :     3.322001  s :     3.322001
      pz      :     1.723813  p :     4.526825
      px      :     1.249027
      py      :     1.553985
      dz2     :     0.008347  d :     0.070885
      dxz     :     0.008973
      dyz     :     0.005405
      dx2y2   :     0.015367
      dxy     :     0.032793
      f0      :     0.000390  f :     0.004790
      f+1     :     0.000817
      f-1     :     0.000308
      f+2     :     0.000074
      f-2     :     0.000525
      f+3     :     0.001260
      f-3     :     0.001417

  9 H s       :     0.813290  s :     0.813290
      pz      :     0.027816  p :     0.060218
      px      :     0.012518
      py      :     0.019884

 10 H s       :     0.815964  s :     0.815964
      pz      :     0.013198  p :     0.059800
      px      :     0.023025
      py      :     0.023577

 11 H s       :     0.813287  s :     0.813287
      pz      :     0.027366  p :     0.060234
      px      :     0.012455
      py      :     0.020413

 12 H s       :     0.800427  s :     0.800427
      pz      :     0.014535  p :     0.058448
      px      :     0.026835
      py      :     0.017078

 13 H s       :     0.800517  s :     0.800517
      pz      :     0.013059  p :     0.057723
      px      :     0.010731
      py      :     0.033933

 14 H s       :     0.803210  s :     0.803210
      pz      :     0.014989  p :     0.058496
      px      :     0.027915
      py      :     0.015592

 15 H s       :     0.809512  s :     0.809512
      pz      :     0.028042  p :     0.060335
      px      :     0.017984
      py      :     0.014309

 16 H s       :     0.809369  s :     0.809369
      pz      :     0.026801  p :     0.060437
      px      :     0.019382
      py      :     0.014254

 17 H s       :     0.815827  s :     0.815827
      pz      :     0.013740  p :     0.061373
      px      :     0.032815
      py      :     0.014818

 18 H s       :     0.664966  s :     0.664966
      pz      :     0.043093  p :     0.152120
      px      :     0.054417
      py      :     0.054610


---------------------------------
LOEWDIN BOND ORDERS (THRESH 0.050000)
---------------------------------
B(  0-C ,  1-C ) :   1.1988 B(  0-C ,  2-C ) :   0.1805 B(  0-C ,  6-C ) :   0.1639 
B(  0-C ,  9-H ) :   0.8934 B(  0-C , 10-H ) :   0.8917 B(  0-C , 11-H ) :   0.8935 
B(  1-C ,  2-C ) :   1.4764 B(  1-C ,  3-C ) :   0.2365 B(  1-C ,  4-C ) :   0.0984 
B(  1-C ,  5-C ) :   0.2303 B(  1-C ,  6-C ) :   1.4112 B(  1-C ,  7-C ) :   0.1587 
B(  1-C ,  9-H ) :   0.0789 B(  1-C , 10-H ) :   0.0815 B(  1-C , 11-H ) :   0.0788 
B(  1-C , 12-H ) :   0.0928 B(  2-C ,  3-C ) :   1.5922 B(  2-C ,  4-C ) :   0.2443 
B(  2-C ,  5-C ) :   0.1013 B(  2-C ,  6-C ) :   0.2223 B(  2-C , 12-H ) :   0.8230 
B(  2-C , 13-H ) :   0.0962 B(  3-C ,  4-C ) :   1.5848 B(  3-C ,  5-C ) :   0.2458 
B(  3-C ,  6-C ) :   0.0990 B(  3-C , 12-H ) :   0.0964 B(  3-C , 13-H ) :   0.8294 
B(  3-C , 14-H ) :   0.0944 B(  4-C ,  5-C ) :   1.5064 B(  4-C ,  6-C ) :   0.2160 
B(  4-C ,  8-O ) :   0.1468 B(  4-C , 13-H ) :   0.0971 B(  4-C , 14-H ) :   0.8262 
B(  5-C ,  6-C ) :   1.3909 B(  5-C ,  7-C ) :   0.1737 B(  5-C ,  8-O ) :   1.6085 
B(  5-C , 14-H ) :   0.0972 B(  5-C , 18-H ) :   0.1043 B(  6-C ,  7-C ) :   1.1988 
B(  6-C ,  8-O ) :   0.1438 B(  6-C , 15-H ) :   0.0816 B(  6-C , 16-H ) :   0.0816 
B(  6-C , 17-H ) :   0.0803 B(  7-C , 15-H ) :   0.8897 B(  7-C , 16-H ) :   0.8893 
B(  7-C , 17-H ) :   0.8882 B(  8-O , 18-H ) :   0.9973 

------------------------------------------
LOEWDIN REDUCED ORBITAL POPULATIONS PER MO
-------------------------------------------
THRESHOLD FOR PRINTING IS 0.1%%
                      0         1         2         3         4         5   
                 -19.24289 -10.33088 -10.28151 -10.27392 -10.27248 -10.26943
                   2.00000   2.00000   2.00000   2.00000   2.00000   2.00000
                  --------  --------  --------  --------  --------  --------
 1 C  s               0.0       0.0      98.5       0.1       0.0       0.0
 1 C  dxy             0.0       0.0       0.0       0.2       0.0       0.0
 2 C  px              0.0       0.0       0.0       0.0       0.1       0.0
 2 C  py              0.0       0.0       0.1       0.0       0.0       0.0
 2 C  dx2y2           0.0       0.0       0.2       0.0       0.1       0.0
 2 C  dxy             0.0       0.0       0.0       0.0       0.2       0.0
 3 C  s               0.0       0.0       0.0       0.0      97.8       0.8
 3 C  dxy             0.0       0.0       0.0       0.0       0.0       0.2
 4 C  s               0.0       0.0       0.0       0.0       0.8      97.9
 4 C  py              0.0       0.1       0.0       0.0       0.0       0.0
 4 C  dx2y2           0.0       0.2       0.0       0.0       0.0       0.0
 4 C  dxy             0.0       0.0       0.0       0.0       0.2       0.0
 5 C  s               0.0      98.7       0.0       0.0       0.0       0.0
 5 C  py              0.0       0.0       0.0       0.0       0.0       0.1
 5 C  dx2y2           0.0       0.0       0.0       0.1       0.0       0.2
 5 C  dxy             0.1       0.0       0.0       0.2       0.0       0.0
 6 C  s               0.0       0.0       0.1      98.5       0.0       0.0
 6 C  dxy             0.0       0.2       0.2       0.0       0.0       0.0
 7 C  dx2y2           0.0       0.0       0.0       0.1       0.0       0.0
 8 O  s              99.8       0.0       0.0       0.0       0.0       0.0

                      6         7         8         9        10        11   
                 -10.26576 -10.26095 -10.25991  -1.19212  -0.99319  -0.91313
                   2.00000   2.00000   2.00000   2.00000   2.00000   2.00000
                  --------  --------  --------  --------  --------  --------
 0 C  s              99.4       0.0       0.0       0.0       2.9       6.3
 0 C  px              0.0       0.0       0.0       0.0       1.5       0.9
 0 C  py              0.0       0.0       0.0       0.0       0.3       0.0
 0 C  dx2y2           0.0       0.0       0.0       0.0       0.1       0.1
 0 C  dxy             0.0       0.0       0.0       0.0       0.1       0.0
 1 C  s               0.0       0.0       0.0       0.1      13.8       5.3
 1 C  px              0.1       0.0       0.0       0.1       1.2       0.4
 1 C  py              0.0       0.1       0.0       0.0       0.2       4.3
 1 C  dz2             0.0       0.1       0.0       0.0       0.8       0.2
 1 C  dx2y2           0.1       0.2       0.0       0.0       0.0       0.2
 1 C  dxy             0.1       0.0       0.0       0.0       0.0       0.2
 1 C  f-3             0.0       0.1       0.0       0.0       0.1       0.1
 2 C  s               0.0      98.7       0.0       0.0      10.5       1.0
 2 C  px              0.0       0.0       0.0       0.0       1.4       3.1
 2 C  py              0.0       0.0       0.0       0.0       1.3       3.3
 2 C  dz2             0.0       0.0       0.0       0.0       0.6       0.0
 2 C  dx2y2           0.0       0.0       0.0       0.0       0.0       0.9
 2 C  dxy             0.0       0.0       0.0       0.0       0.0       0.1
 3 C  s               0.0       0.1       0.0       0.1       9.0      12.0
 3 C  px              0.0       0.1       0.0       0.1       0.0       1.0
 3 C  py              0.0       0.0       0.0       0.1       2.5       0.5
 3 C  dz2             0.0       0.1       0.0       0.0       0.5       0.3
 3 C  dx2y2           0.0       0.1       0.0       0.0       0.0       0.1
 3 C  dxy             0.0       0.2       0.0       0.0       0.0       0.2
 4 C  s               0.0       0.0       0.0       1.0       7.6      12.0
 4 C  px              0.0       0.0       0.0       0.1       2.6       1.0
 4 C  py              0.0       0.0       0.0       1.8       0.2       0.5
 4 C  dz2             0.0       0.0       0.0       0.1       0.4       0.3
 4 C  dx2y2           0.0       0.0       0.0       0.3       0.0       0.0
 4 C  dxy             0.0       0.0       0.0       0.1       0.0       0.4
 4 C  f-3             0.0       0.0       0.0       0.0       0.1       0.1
 5 C  s               0.0       0.0       0.0       9.8       6.0       0.4
 5 C  px              0.0       0.0       0.0       6.4       5.0       0.9
 5 C  py              0.0       0.0       0.0       2.4       1.0       7.7
 5 C  dz2             0.0       0.0       0.0       1.3       0.2       0.0
 5 C  dx2y2           0.0       0.0       0.0       0.5       0.1       0.8
 5 C  dxy             0.0       0.0       0.0       2.2       0.4       0.2
 5 C  f+1             0.0       0.0       0.0       0.2       0.0       0.0
 5 C  f-3             0.0       0.0       0.0       0.5       0.0       0.0
 6 C  s               0.0       0.0       0.0       0.9      11.9       6.8
 6 C  px              0.0       0.0       0.0       1.8       0.3       1.6
 6 C  py              0.0       0.0       0.1       0.0       1.7       2.2
 6 C  dz2             0.0       0.0       0.0       0.1       0.7       0.2
 6 C  dx2y2           0.0       0.0       0.1       0.3       0.0       0.0
 6 C  dxy             0.0       0.0       0.0       0.0       0.0       0.3
 6 C  f-3             0.0       0.0       0.0       0.0       0.1       0.1
 7 C  s               0.0       0.0      99.4       0.2       2.2       7.2
 7 C  px              0.0       0.0       0.0       0.2       0.0       0.1
 7 C  py              0.0       0.0       0.0       0.3       1.5       1.1
 7 C  dx2y2           0.0       0.0       0.0       0.0       0.2       0.2
 8 O  s               0.0       0.0       0.0      52.1       1.6       0.1
 8 O  px              0.0       0.0       0.0       0.1       1.0       0.0
 8 O  py              0.0       0.0       0.0       2.1       0.1       0.3
 9 H  s               0.1       0.0       0.0       0.0       0.5       1.4
10 H  s               0.1       0.0       0.0       0.0       0.6       1.2
11 H  s               0.1       0.0       0.0       0.0       0.5       1.4
12 H  s               0.0       0.0       0.0       0.0       1.4       0.1
13 H  s               0.0       0.0       0.0       0.0       1.2       2.2
13 H  py              0.0       0.0       0.0       0.0       0.1       0.2
14 H  s               0.0       0.0       0.0       0.2       0.9       2.3
14 H  px              0.0       0.0       0.0       0.0       0.0       0.2
15 H  s               0.0       0.0       0.1       0.0       0.4       1.4
16 H  s               0.0       0.0       0.1       0.1       0.4       1.4
17 H  s               0.0       0.0       0.1       0.0       0.5       1.8
17 H  px              0.0       0.0       0.0       0.0       0.0       0.1
18 H  s               0.0       0.0       0.0      11.1       0.6       0.0
18 H  px              0.0       0.0       0.0       2.0       0.1       0.0
18 H  py              0.0       0.0       0.0       0.8       0.1       0.0

                     12        13        14        15        16        17   
                  -0.88928  -0.82472  -0.80246  -0.73284  -0.70436  -0.63879
                   2.00000   2.00000   2.00000   2.00000   2.00000   2.00000
                  --------  --------  --------  --------  --------  --------
 0 C  s               8.9      11.3       6.8       2.7       0.6       1.0
 0 C  px              0.2       0.2       0.6       3.1       0.1       6.4
 0 C  py              0.6       0.1       0.6       0.0       1.7       1.8
 0 C  dz2             0.1       0.0       0.0       0.1       0.1       0.2
 0 C  dx2y2           0.0       0.0       0.0       0.3       0.1       0.2
 0 C  dxy             0.2       0.0       0.1       0.1       0.2       0.3
 1 C  s               5.7       0.1       2.0       3.7       0.3       3.6
 1 C  px              5.9       2.6       4.5       3.4       2.2       1.0
 1 C  py              2.4       3.3       2.1       1.8       8.6       0.1
 1 C  dz2             0.1       0.0       0.0       0.0       0.0       0.1
 1 C  dx2y2           0.2       1.6       0.0       0.0       0.8       0.2
 1 C  dxy             0.8       0.3       0.4       0.4       0.0       0.2
 2 C  s               8.9       7.8       1.1       2.1       4.0       0.3
 2 C  px              0.4       0.7       0.3       0.3       6.2       1.9
 2 C  py              0.4       1.6       2.4       4.2       2.2       2.2
 2 C  dz2             0.2       0.1       0.0       0.0       0.0       0.0
 2 C  dx2y2           0.2       0.0       0.5       0.2       0.1       0.4
 2 C  dxy             0.3       0.0       0.5       0.2       0.2       0.1
 3 C  s               1.0       3.5       4.3       0.6       6.7       0.2
 3 C  px              3.4       6.4       3.0       4.3       0.6       5.3
 3 C  py              0.0       0.2       0.6       0.5       2.9       3.6
 3 C  dx2y2           0.1       0.1       0.1       0.0       0.2       0.1
 3 C  dxy             0.7       1.0       0.4       0.1       0.0       0.0
 3 C  f+3             0.0       0.0       0.0       0.0       0.0       0.1
 4 C  s               1.9       4.9       4.2       2.1       1.5       0.9
 4 C  px              0.2       1.6       0.1       0.5       5.6       3.6
 4 C  py              1.7       2.6       3.8       0.4       6.4      10.7
 4 C  dx2y2           0.5       0.6       0.1       0.1       0.1       0.0
 4 C  dxy             0.2       0.2       0.5       0.1       0.2       0.2
 5 C  s               6.9       4.3       1.7       3.4       0.7       0.7
 5 C  px              1.9       0.1       1.8       0.2       3.9       6.2
 5 C  py              0.1       4.0       1.3       6.3       6.4       3.9
 5 C  dx2y2           0.3       0.2       0.8       0.4       0.4       0.2
 5 C  dxy             1.0       0.1       0.0       0.1       0.2       0.3
 5 C  f+3             0.0       0.0       0.1       0.0       0.0       0.2
 6 C  s               5.8       0.2       1.6       0.7       4.0       0.1
 6 C  px              5.3       0.1       0.2      11.5       0.0       2.8
 6 C  py              1.4       3.3       9.6       0.5       0.3       0.8
 6 C  dz2             0.1       0.0       0.0       0.0       0.0       0.0
 6 C  dx2y2           0.2       1.1       0.8       0.3       0.7       0.8
 6 C  dxy             0.9       0.4       0.1       0.4       0.0       1.0
 7 C  s               6.9       7.9      12.4       0.0       3.4       0.1
 7 C  px              0.2       0.1       0.1       1.1       0.0       0.0
 7 C  py              0.6       0.1       1.2       0.0       4.4       0.4
 7 C  dz2             0.0       0.0       0.0       0.0       0.2       0.0
 7 C  dx2y2           0.2       0.0       0.1       0.0       0.3       0.0
 7 C  dxy             0.1       0.0       0.0       0.3       0.0       0.0
 8 O  s               1.8       0.9       0.1       0.1       0.9       0.2
 8 O  px              4.0       1.1       1.5      24.7       0.2      17.9
 8 O  py              0.1       1.0       0.0       0.2       2.5       0.5
 8 O  dxy             0.1       0.1       0.0       0.5       0.1       0.3
 9 H  s               1.8       3.3       2.6       1.1       0.6       1.6
 9 H  pz              0.1       0.2       0.2       0.1       0.1       0.1
 9 H  py              0.1       0.1       0.1       0.0       0.0       0.0
10 H  s               2.4       3.1       2.1       2.3       0.0       1.3
10 H  px              0.1       0.2       0.1       0.1       0.0       0.0
10 H  py              0.1       0.2       0.1       0.1       0.0       0.1
11 H  s               1.8       3.3       2.6       1.1       0.7       1.6
11 H  pz              0.1       0.2       0.2       0.1       0.1       0.1
11 H  py              0.1       0.1       0.1       0.0       0.0       0.0
12 H  s               2.3       2.0       0.1       2.2       3.2       0.0
12 H  px              0.1       0.2       0.0       0.2       0.1       0.0
12 H  py              0.1       0.0       0.0       0.0       0.2       0.0
13 H  s               0.3       1.1       1.9       0.5       5.4       1.9
13 H  py              0.0       0.1       0.2       0.0       0.4       0.1
14 H  s               0.3       1.6       2.1       1.5       1.5       5.8
14 H  px              0.0       0.1       0.2       0.1       0.0       0.3
14 H  py              0.0       0.1       0.0       0.0       0.2       0.0
15 H  s               1.6       2.3       3.9       0.0       2.0       0.1
15 H  pz              0.1       0.2       0.3       0.0       0.1       0.0
16 H  s               1.6       2.3       3.8       0.1       2.0       0.1
16 H  pz              0.1       0.1       0.2       0.0       0.1       0.0
16 H  px              0.0       0.1       0.1       0.0       0.1       0.0
17 H  s               1.1       1.9       5.1       0.2       1.9       0.1
17 H  px              0.1       0.2       0.4       0.0       0.2       0.0
18 H  s               1.5       0.4       0.4       7.0       0.0       4.9
18 H  px              0.1       0.0       0.0       0.1       0.0       0.0
18 H  py              0.1       0.1       0.0       0.4       0.1       0.2

                     18        19        20        21        22        23   
                  -0.60529  -0.59339  -0.55329  -0.53967  -0.51914  -0.51392
                   2.00000   2.00000   2.00000   2.00000   2.00000   2.00000
                  --------  --------  --------  --------  --------  --------
 0 C  pz              0.0       0.0      11.6       0.0      35.9       0.0
 0 C  px              0.9       1.8       0.0       1.7       0.0      12.0
 0 C  py              1.8       3.6       0.0      10.3       0.0       0.4
 0 C  dz2             0.0       0.0       0.0       0.2       0.0       0.0
 0 C  dyz             0.0       0.0       0.2       0.0       1.1       0.0
 0 C  dxy             0.0       0.0       0.0       0.0       0.0       0.1
 1 C  s               0.2       0.6       0.0       1.0       0.0       0.1
 1 C  pz              0.0       0.0       8.7       0.0       3.6       0.0
 1 C  px              0.3       0.9       0.0       3.7       0.0       8.9
 1 C  py              7.1       1.2       0.0       0.0       0.0       4.3
 1 C  dxz             0.0       0.0       0.0       0.0       1.4       0.0
 1 C  dyz             0.0       0.0       0.1       0.0       0.1       0.0
 1 C  dx2y2           0.2       0.1       0.0       1.2       0.0       0.0
 1 C  dxy             0.4       1.3       0.0       0.0       0.0       0.0
 1 C  f0              0.0       0.0       0.1       0.0       0.1       0.0
 1 C  f-2             0.0       0.0       0.0       0.0       0.1       0.0
 2 C  s               0.5       0.4       0.0       1.7       0.0       0.1
 2 C  pz              0.0       0.0       2.7       0.0       0.5       0.0
 2 C  px              0.7      11.6       0.0       0.8       0.0       5.7
 2 C  py             13.9       0.4       0.0       0.8       0.0       4.1
 2 C  dz2             0.0       0.0       0.0       0.1       0.0       0.0
 2 C  dyz             0.0       0.0       0.2       0.0       0.1       0.0
 2 C  dx2y2           0.1       0.0       0.0       0.5       0.0       1.2
 2 C  dxy             0.0       0.2       0.0       1.1       0.0       0.1
 2 C  f+3             0.1       0.0       0.0       0.0       0.0       0.3
 3 C  s               0.1       0.5       0.0       0.8       0.0       0.0
 3 C  pz              0.0       0.0       1.9       0.0       0.0       0.0
 3 C  px              8.7       1.5       0.0       1.0       0.0       2.3
 3 C  py              7.3       2.5       0.0      13.4       0.0       2.7
 3 C  dxz             0.0       0.0       0.0       0.0       0.1       0.0
 3 C  dyz             0.0       0.0       0.1       0.0       0.0       0.0
 3 C  dx2y2           0.1       0.5       0.0       3.3       0.0       0.2
 3 C  dxy             0.0       0.0       0.0       0.1       0.0       1.5
 3 C  f+3             0.1       0.0       0.0       0.0       0.0       0.4
 4 C  s               0.2       0.7       0.0       1.1       0.0       0.6
 4 C  pz              0.0       0.0       3.8       0.0       1.5       0.0
 4 C  px              7.8       3.5       0.0       3.0       0.0      10.6
 4 C  py              3.1       3.2       0.0       2.8       0.0       1.7
 4 C  dz2             0.0       0.0       0.0       0.0       0.0       0.2
 4 C  dyz             0.0       0.0       0.3       0.0       0.2       0.0
 4 C  dx2y2           0.2       0.0       0.0       2.2       0.0       0.2
 4 C  dxy             0.0       0.9       0.0       0.8       0.0       0.2
 4 C  f+3             0.0       0.2       0.0       0.1       0.0       0.0
 5 C  s               0.4       0.2       0.0       1.4       0.0       0.1
 5 C  pz              0.0       0.0      12.2       0.0       6.1       0.0
 5 C  px              2.3       7.1       0.0       0.2       0.0       0.2
 5 C  py              1.3       1.0       0.0       0.6       0.0       1.9
 5 C  dz2             0.0       0.0       0.0       0.2       0.0       0.0
 5 C  dxz             0.0       0.0       0.0       0.0       0.4       0.0
 5 C  dyz             0.0       0.0       0.2       0.0       0.1       0.0
 5 C  dx2y2           0.4       0.0       0.0       0.4       0.0       1.8
 5 C  dxy             1.5       2.7       0.0       0.0       0.0       0.7
 5 C  f0              0.0       0.0       0.2       0.0       0.1       0.0
 5 C  f+3             0.0       0.0       0.0       0.1       0.0       0.1
 6 C  s               1.0       2.4       0.0       0.3       0.0       0.0
 6 C  pz              0.0       0.0      13.1       0.0       0.7       0.0
 6 C  px              3.1       7.1       0.0       0.8       0.0       0.0
 6 C  py              0.9       0.8       0.0       1.4       0.0       3.0
 6 C  dz2             0.0       0.1       0.0       0.0       0.0       0.0
 6 C  dxz             0.0       0.0       0.0       0.0       0.7       0.0
 6 C  dyz             0.0       0.0       0.0       0.0       0.1       0.0
 6 C  dx2y2           0.1       0.1       0.0       0.1       0.0       0.1
[...]
 4 C  px              0.1       0.0       0.0       0.3       0.0       0.1
 4 C  py              0.3       0.0       0.0       0.0       0.0       0.3
 4 C  dxy             0.4       0.0       0.0       0.2       0.0       0.2
 4 C  f+3             0.1       0.0       0.0       0.0       0.0       0.1
 4 C  f-3             0.1       0.0       0.0       0.0       0.1       0.1
 5 C  s               0.9       0.0       0.0       0.9       1.0       0.7
 5 C  pz              0.0       0.0       0.6       0.0       0.0       0.0
 5 C  px              0.5       0.0       0.0       0.5       0.8       0.0
 5 C  py              0.1       0.0       0.0       0.3       1.0       0.1
 5 C  dz2             0.4       0.0       0.0       0.1       0.1       0.1
 5 C  dxz             0.0       0.3       1.0       0.0       0.0       0.0
 5 C  dyz             0.0       0.3       0.6       0.0       0.0       0.0
 5 C  dx2y2           0.3       0.0       0.0       0.6       0.6       1.5
 5 C  dxy             1.1       0.0       0.0       1.8       0.5       0.4
 5 C  f0              0.0       0.0       0.3       0.0       0.0       0.0
 5 C  f+1             0.0       0.0       0.0       0.0       0.2       0.0
 5 C  f-2             0.0       0.0       0.5       0.0       0.0       0.0
 5 C  f+3             4.7       0.0       0.0       0.1       0.1       2.3
 5 C  f-3             0.0       0.0       0.0       0.1       0.9       0.0
 6 C  s               0.0       0.0       0.0       0.1       0.2       0.0
 6 C  pz              0.0       0.1       0.0       0.0       0.0       0.0
 6 C  px              1.1       0.0       0.0       0.1       0.0       0.1
 6 C  py              0.0       0.0       0.0       0.0       0.2       0.1
 6 C  dx2y2           0.3       0.0       0.0       0.0       0.0       0.1
 6 C  dxy             0.1       0.0       0.0       0.1       0.1       0.2
 6 C  f+3             2.2       0.0       0.0       0.0       0.0       0.2
 7 C  dxy             0.1       0.0       0.0       0.0       0.0       0.1
 8 O  s               4.4       0.0       0.0       2.1       0.9       2.5
 8 O  pz              0.0       0.1       0.9       0.0       0.0       0.0
 8 O  px              0.1       0.0       0.0       0.6       3.0       0.5
 8 O  py              1.4       0.0       0.0       3.1       0.1       0.1
 8 O  dz2            25.4       0.0       0.0      47.6       7.3       6.2
 8 O  dxz             0.0      23.3      63.0       0.0       0.0       0.0
 8 O  dyz             0.1      72.3      19.8       0.0       0.0       0.0
 8 O  dx2y2           6.2       0.0       0.0      26.7      29.4      26.4
 8 O  dxy            12.0       0.0       0.0       0.9      45.7      24.4
 8 O  f0              0.0       1.9       3.6       0.0       0.0       0.0
 8 O  f+1             1.4       0.0       0.0       0.1       4.1       1.4
 8 O  f-1             0.7       0.0       0.0       6.5       0.0       1.0
 8 O  f+2             0.0       0.3       0.8       0.0       0.0       0.0
 8 O  f-2             0.0       0.4       8.5       0.0       0.0       0.0
 8 O  f+3             3.1       0.0       0.0       0.5       0.5      10.9
 8 O  f-3            25.1       0.0       0.0       3.9       1.7      12.7
18 H  s               3.3       0.0       0.0       2.0       0.5       5.6
18 H  pz              0.0       0.3       0.0       0.0       0.0       0.0
18 H  px              1.0       0.0       0.0       0.2       0.0       0.2
18 H  py              0.5       0.0       0.0       0.0       0.0       0.1

                    330       331       332       333       334       335   
                  22.16505  22.51303  22.61317  22.79952  22.82179  23.00661
                   0.00000   0.00000   0.00000   0.00000   0.00000   0.00000
                  --------  --------  --------  --------  --------  --------
 0 C  s               2.1      47.0      45.8       2.5       0.3       0.0
 1 C  s              15.1       2.9       0.1       4.7       4.7       4.9
 1 C  py              0.0       0.1       0.0       0.0       0.3       0.4
 1 C  dx2y2           0.0       0.0       0.1       0.0       0.1       0.1
 2 C  s              16.3       1.5       1.7      28.2      13.9      31.6
 2 C  px              0.1       0.0       0.0       0.1       0.0       0.0
 2 C  py              0.0       0.0       0.0       0.2       0.1       0.1
 3 C  s              19.5       0.2       0.3      26.2      44.2       5.0
 3 C  px              0.0       0.0       0.0       0.3       0.2       0.0
 3 C  dxy             0.0       0.0       0.0       0.1       0.1       0.0
 4 C  s              20.4       0.2       0.0      27.4      26.3      20.6
 4 C  px              0.1       0.0       0.0       0.0       0.1       0.0
 4 C  py              0.0       0.0       0.0       0.1       0.2       0.0
 5 C  s              10.7       0.7       0.4       5.1       5.2       0.7
 5 C  px              0.1       0.0       0.0       0.1       0.0       0.2
 5 C  py              0.1       0.0       0.0       0.2       0.0       0.2
 5 C  dx2y2           0.0       0.0       0.0       0.1       0.0       0.1
 6 C  s              13.3       2.1       0.1       2.5       2.3      34.1
 6 C  px              0.0       0.0       0.0       0.1       0.1       0.0
 6 C  py              0.1       0.1       0.1       0.0       0.0       0.1
 6 C  dx2y2           0.0       0.1       0.2       0.0       0.0       0.0
 7 C  s               0.8      44.0      49.8       1.3       1.2       1.1
 8 O  s               0.2       0.0       0.0       0.0       0.0       0.0
 9 H  s               0.0       0.1       0.1       0.0       0.0       0.0
11 H  s               0.0       0.1       0.1       0.0       0.0       0.0
15 H  s               0.0       0.1       0.1       0.0       0.0       0.0
16 H  s               0.0       0.1       0.1       0.0       0.0       0.0

                    336       337       338   
                  23.15852  23.61083  44.04055
                   0.00000   0.00000   0.00000
                  --------  --------  --------
 0 C  s               0.4       0.1       0.0
 1 C  s              41.0      24.9       0.0
 1 C  px              0.2       0.0       0.0
 1 C  dxy             0.0       0.1       0.0
 2 C  s               0.1       4.7       0.0
 3 C  s               0.3       2.4       0.0
 4 C  s               0.2       3.1       0.0
 5 C  s              55.2      19.6       0.0
 6 C  s               0.3      43.5       0.0
 6 C  px              0.7       0.0       0.0
 6 C  dx2y2           0.0       0.2       0.0
 6 C  dxy             0.4       0.0       0.0
 7 C  s               0.0       0.1       0.0
 8 O  s               0.2       0.0      99.7
 8 O  px              0.1       0.0       0.0


                      *****************************
                      * MAYER POPULATION ANALYSIS *
                      *****************************

  NA   - Mulliken gross atomic population
  ZA   - Total nuclear charge
  QA   - Mulliken gross atomic charge
  VA   - Mayer's total valence
  BVA  - Mayer's bonded valence
  FA   - Mayer's free valence

  ATOM       NA         ZA         QA         VA         BVA        FA
  0 C      6.4012     6.0000    -0.4012     3.8816     3.8816     0.0000
  1 C      5.8630     6.0000     0.1370     3.6921     3.6921     0.0000
  2 C      6.2150     6.0000    -0.2150     3.9850     3.9850     0.0000
  3 C      6.1247     6.0000    -0.1247     3.9918     3.9918     0.0000
  4 C      6.2298     6.0000    -0.2298     3.9105     3.9105     0.0000
  5 C      5.7829     6.0000     0.2171     3.9731     3.9731     0.0000
  6 C      6.0229     6.0000    -0.0229     3.7028     3.7028     0.0000
  7 C      6.3473     6.0000    -0.3473     3.9057     3.9057    -0.0000
  8 O      8.3944     8.0000    -0.3944     2.0875     2.0875    -0.0000
  9 H      0.8692     1.0000     0.1308     0.9595     0.9595    -0.0000
 10 H      0.8827     1.0000     0.1173     0.9790     0.9790    -0.0000
 11 H      0.8686     1.0000     0.1314     0.9592     0.9592    -0.0000
 12 H      0.8957     1.0000     0.1043     0.9741     0.9741    -0.0000
 13 H      0.8851     1.0000     0.1149     0.9716     0.9716     0.0000
 14 H      0.8995     1.0000     0.1005     0.9818     0.9818     0.0000
 15 H      0.8749     1.0000     0.1251     0.9695     0.9695     0.0000
 16 H      0.8735     1.0000     0.1265     0.9698     0.9698     0.0000
 17 H      0.8791     1.0000     0.1209     0.9658     0.9658    -0.0000
 18 H      0.6905     1.0000     0.3095     0.9221     0.9221     0.0000

  Mayer bond orders larger than 0.100000
B(  0-C ,  1-C ) :   0.9058 B(  0-C ,  9-H ) :   0.9836 B(  0-C , 10-H ) :   0.9889 
B(  0-C , 11-H ) :   0.9846 B(  1-C ,  2-C ) :   1.4179 B(  1-C ,  6-C ) :   1.3905 
B(  2-C ,  3-C ) :   1.4522 B(  2-C , 12-H ) :   0.9731 B(  3-C ,  4-C ) :   1.4260 
B(  3-C , 13-H ) :   0.9699 B(  4-C ,  5-C ) :   1.3898 B(  4-C , 14-H ) :   0.9667 
B(  5-C ,  6-C ) :   1.3613 B(  5-C ,  8-O ) :   1.1801 B(  6-C ,  7-C ) :   0.9522 
B(  7-C , 15-H ) :   0.9688 B(  7-C , 16-H ) :   0.9693 B(  7-C , 17-H ) :   0.9955 
B(  8-O , 18-H ) :   0.8902 

-------
TIMINGS
-------

Total SCF time: 0 days 0 hours 2 min 5 sec 

Total time                  ....     125.853 sec
Sum of individual times     ....     123.502 sec  ( 98.1%)

SCF preparation             ....       0.068 sec  (  0.1%)
Fock matrix formation       ....     122.825 sec  ( 97.6%)
  Startup                   ....       0.005 sec  (  0.0% of F)
  Split-RI-J                ....       4.634 sec  (  3.8% of F)
  Chain of spheres X        ....     109.501 sec  ( 89.2% of F)
  XC integration            ....      10.971 sec  (  8.9% of F)
    XC Preparation          ....       0.000 sec  (  0.0% of XC)
    Basis function eval.    ....       2.550 sec  ( 23.2% of XC)
    Density eval.           ....       2.586 sec  ( 23.6% of XC)
    XC-Functional eval.     ....       2.604 sec  ( 23.7% of XC)
    XC-Potential eval.      ....       3.106 sec  ( 28.3% of XC)
Diagonalization             ....       0.000 sec  (  0.0%)
Density matrix formation    ....       0.021 sec  (  0.0%)
Total Energy calculation    ....       0.005 sec  (  0.0%)
Population analysis         ....       0.230 sec  (  0.2%)
Orbital Transformation      ....       0.035 sec  (  0.0%)
Orbital Orthonormalization  ....       0.000 sec  (  0.0%)
DIIS solution               ....       0.116 sec  (  0.1%)
  MO trafo                  ....       0.000 sec  (  0.0 % of DIIS)
  Orb grad                  ....       0.000 sec  (  0.0 % of DIIS)
  Energy W gradient         ....       0.000 sec  (  0.0 % of DIIS)
  DIIS error                ....       0.017 sec  ( 14.4 % of DIIS)
  DIIS work                 ....       0.081 sec  ( 69.8 % of DIIS)
  Form Q                    ....       0.000 sec  (  0.0 % of DIIS)
  Form QpQm                 ....       0.000 sec  (  0.0 % of DIIS)
  Exp/Cayley                ....       0.000 sec  (  0.0 % of DIIS)
  Orb update                ....       0.000 sec  (  0.0 % of DIIS)
  Wake-sleep                ....       0.001 sec  (  0.8 % of DIIS)
SOSCF solution              ....       0.062 sec  (  0.0%)
  MO trafo                  ....       0.036 sec  ( 59.1 % of SOSCF)
  Orb grad                  ....       0.000 sec  (  0.5 % of SOSCF)
  Rot update                ....       0.001 sec  (  1.8 % of SOSCF)
  Step                      ....       0.024 sec  ( 38.5 % of SOSCF)
Grid generation             ....       0.142 sec  (  0.1%)
Finished LeanSCF after 125.9 sec

Maximum memory used throughout the entire LEANSCF-calculation: 49.5 MB
------------------   -----------------
gCP correction             0.011346667
------------------   -----------------

-------------------------   --------------------
FINAL SINGLE POINT ENERGY      -386.121954670106
-------------------------   --------------------


------------------------------------------------------------------------------
                              ORCA PROPERTY CALCULATIONS
------------------------------------------------------------------------------

GBWName                                 ... sp.gbw
Number of atoms                         ...     19
Number of basis functions               ...    339
Max core memory                         ...   1024 MB

Electric properties:
Dipole moment                           ... YES
Quadrupole moment                       ...  NO
Static polarizability (Dipole/Dipole)   ...  NO
Static polarizability (Dipole/Quad.)    ...  NO
Static polarizability (Quad./Quad.)     ...  NO
Static polarizability (Velocity)        ...  NO

Atomic electric properties:
Dipole moment                           ...  NO
Quadrupole moment                       ...  NO
Static polarizability                   ...  NO

Choice of electric origin               ... Center of mass
Position of electric origin             ...     0.006069    -0.007585    -0.000030

General magnetic properties:
Magnetizability                         ...  NO

EPR properties:
g-Tensor (aka g-matrix)                 ...  NO
Zero-Field splitting spin-orbit         ...  NO
Zero-field splitting spin-spin          ...  NO
Hyperfine couplings                     ...  NO (   0 nuclei)
Quadrupole couplings                    ...  NO (   0 nuclei)
Contact density                         ...  NO (   0 nuclei)

NMR properties:
Chemical shifts                         ...  NO (   0 nuclei)
Spin-rotation constants                 ...  NO (   0 nuclei)
Spin-spin couplings                     ...  NO (   0 nuclei,    0 pairs)

Choice of magnetic origin               ... GIAO
Position of magnetic origin             ...     0.000000     0.000000     0.000000

Properties with geometric perturbations:
SCF Hessian                             ...  NO
IR spectrum                             ...  NO
VCD spectrum                            ...  NO
X-ray spectroscopy properties:
SCF XES/XAS/RIXS spectra                ...  NO


-------------
DIPOLE MOMENT
-------------

Method             : SCF
Type of density    : Electron Density
Multiplicity       :   1
Irrep              :   0
Energy             :  -386.1333013375057135 Eh
Relativity type    : 
Basis              : AO
                                X                 Y                 Z
Electronic contribution:      5.378063994      -3.393387954      -0.001902697
Nuclear contribution   :     -5.195457639       3.165817965       0.001882960
                        -----------------------------------------
Total Dipole Moment    :      0.182606355      -0.227569988      -0.000019738
                        -----------------------------------------
Magnitude (a.u.)       :      0.291775909
Magnitude (Debye)      :      0.741635422



--------------------
Rotational spectrum 
--------------------
 
Rotational constants in cm-1:             0.074986             0.059233             0.033503 
Rotational constants in MHz :          2248.028403          1775.769079          1004.388507 

Dipole components along the rotational axes: 
x,y,z [a.u.] :     0.171076    -0.236360    -0.000043 
x,y,z [Debye]:     0.434840    -0.600780    -0.000108 

 

Dipole moment calculation done in   0.0 sec 

Maximum memory used throughout the entire PROP-calculation: 31.7 MB

--------------------------------
SUGGESTED CITATIONS FOR THIS RUN
--------------------------------

Below you find a list of papers that are relevant to this ORCA run
We neither can nor want to force you to cite these papers, but we appreciate if you do
You receive ORCA, which is the product of decades of hard work by many enthusiastic individuals, for free
The only thing we kindly ask in return is that you cite our papers,
We deeply appreciate it, if you show your appreciation for ORCA by not just citing the generic ORCA reference.

Please note that relegating all ORCA citations to the supporting information does *not* help us.
SI sections are not indexed - citations you put there will not count into any citation statistics
But we need these citations in order to attract the funding resources that allow us to do what we are doing

Therefore, if you are a happy ORCA user, please consider citing a few of the papers listed below in the main body of your paper

In addition to the list printed below, the program has created the file sp.bibtex that contains the list in bibtex format
You can import this file easily into all common literature databanks and citation aid programs


List of essential papers. We consider these as the minimum necessary citations

  1. Neese,F.
     Software update: the ORCA program system, version 5.0
     WIRES Comput. Molec. Sci., 2022 12(1)e1606
     doi.org/10.1002/wcms.1606

List of papers to cite with high priority. The work reported in these papers was absolutely
necessary for this run to complete.
Our perspective: the developers of density functionals and basis sets usually get cited in chemistry papers
Good! But without the algorithms to do something with them, the functionals or basis sets would not do anything.
Hence, in our opinion, the algorithm design and method developments papers are equally worthy of getting cited

  1. Neese,F.
     An improvement of the resolution of the identity approximation for the formation of the Coulomb matrix
     J. Comp. Chem., 2003 24(14)1740-1747
     doi.org/10.1002/jcc.10318
  2. Neese,F.; Wennmohs,F.; Hansen,A.; Becker,U.
     Efficient, approximate and parallel Hartree-Fock and hybrid DFT calculations. A 'chain-of-spheres' algorithm for the Hartree-Fock exchange
     Chem. Phys., 2009 356(1-3)98-109
     doi.org/10.1016/j.chemphys.2008.10.036
  3. Helmich-Paris,B.; de Souza,B.; Neese,F.; Izsák,R.
     An improved chain of spheres for exchange algorithm
     J. Chem. Phys., 2021 155 104109
     doi.org/doi: 10.1063/5.0058766.
  4. Neese,F.
     The SHARK Integral Generation and Digestion System
     J. Comp. Chem., 2022  1-16
     doi.org/10.1002/jcc.26942

List of suggested additional citations. These are papers that are important in the 'surrounding' of 
of this run, or papers that preceded the highly important papers. If you like your results we are grateful for a citation.

  1. Izsak,R.; Neese,F.
     An overlap fitted chain of spheres exchange method
     J. Chem. Phys., 2011 135 144105
     doi.org/10.1063/1.3646921
  2. Izsak,R.; Hansen,A.; Neese,F.
     The resolution of identity and chain of spheres approximations for the LPNO-CCSD singles Fock term
     Molec. Phys., 2012 110 2413-2417
     doi.org/10.1080/00268976.2012.687466
  3. Neese,F.
     The ORCA program system
     WIRES Comput. Molec. Sci., 2012 2(1)73-78
     doi.org/10.1002/wcms.81
  4. Izsak,R.; Neese,F.; Klopper,W.
     Robust fitting techniques in the chain of spheres approximation to the Fock exchange: The role of the complementary space
     J. Chem. Phys., 2013 139 
     doi.org/10.1063/1.4819264
  5. Neese,F.
     Software update: the ORCA program system, version 4.0
     WIRES Comput. Molec. Sci., 2018 8(1)1-6
     doi.org/10.1002/wcms.1327
  6. Neese,F.; Wennmohs,F.; Becker,U.; Riplinger,C.
     The ORCA quantum chemistry program package
     J. Chem. Phys., 2020 152 Art. No. L224108
     doi.org/10.1063/5.0004608

List of optional additional citations

  1. Neese,F.
     Approximate second-order SCF convergence for spin unrestricted wavefunctions
     Chem. Phys. Lett., 2000 325(1-3)93-98
     doi.org/10.1016/s0009-2614(00)00662-x

Timings for individual modules:

Sum of individual times          ...      127.598 sec (=   2.127 min)
Startup calculation              ...        1.571 sec (=   0.026 min)   1.2 %
SCF iterations                   ...      125.976 sec (=   2.100 min)  98.7 %
Property calculations            ...        0.051 sec (=   0.001 min)   0.0 %
                             ****ORCA TERMINATED NORMALLY****
TOTAL RUN TIME: 0 days 0 hours 2 minutes 7 seconds 659 msec
