
                                 *****************
                                 * O   R   C   A *
                                 *****************

                                            #,                                       
                                            ###                                      
                                            ####                                     
                                            #####                                    
                                            ######                                   
                                           ########,                                 
                                     ,,################,,,,,                         
                               ,,#################################,,                 
                          ,,##########################################,,             
                       ,#########################################, ''#####,          
                    ,#############################################,,   '####,        
                  ,##################################################,,,,####,       
                ,###########''''           ''''###############################       
              ,#####''   ,,,,##########,,,,          '''####'''          '####       
            ,##' ,,,,###########################,,,                        '##       
           ' ,,###''''                  '''############,,,                           
         ,,##''                                '''############,,,,        ,,,,,,###''
      ,#''                                            '''#######################'''  
     '                                                          ''''####''''         
             ,#######,   #######,   ,#######,      ##                                
            ,#'     '#,  ##    ##  ,#'     '#,    #''#        ,####,   ,####,        
            ##       ##  ##   ,#'  ##            #'  '#       #'       #'  '#        
            ##       ##  #######   ##           ,######,      #####,   #    #        
            '#,     ,#'  ##    ##  '#,     ,#' ,#      #,     #,   #   #,  ,#        
             '#######'   ##     ##  '#######'  #'      '#     '####' # '####'        



                #########################################################
                #                        -***-                          #
                #          Department of theory and spectroscopy        #
                #                                                       #
                #                      Frank Neese                      #
                #                                                       #
                #     Directorship, Architecture, Infrastructure        #
                #                    SHARK, DRIVERS                     #
                #        Core code/Algorithms in most modules           #
                #                                                       #
                #        Max Planck Institute fuer Kohlenforschung      #
                #                Kaiser Wilhelm Platz 1                 #
                #                 D-45470 Muelheim/Ruhr                 #
                #                      Germany                          #
                #                                                       #
                #                  All rights reserved                  #
                #                        -***-                          #
                #########################################################


                         Program Version 6.0.1  -  RELEASE   -


 With contributions from (in alphabetic order):
[Max-Planck-Institut fuer Kohlenforschung]                               
  Daniel Aravena         : Magnetic Suceptibility                        
  Michael Atanasov       : Ab Initio Ligand Field Theory (pilot matlab implementation)
  Alexander A. Auer      : GIAO ZORA, VPT2 properties, NMR spectrum      
  Ute Becker             : All parallelization in ORCA, NUMFREQ, NUMCALC 
  Giovanni Bistoni       : ED, misc. LED, open-shell LED, HFLD           
  Martin Brehm           : Molecular dynamics                            
  Dmytro Bykov           : pre 5.0 version of the SCF Hessian            
  Marcos Casanova-Páez   : Triplet and SCS-CIS(D). UHF-(DLPNO)-IP/EA/STEOM-CCSD. UHF-CVS-IP/STEOM-CCSD   
  Vijay G. Chilkuri      : MRCI spin determinant printing, contributions to CSF-ICE 
  Pauline Colinet        : FMM embedding                                 
  Dipayan Datta          : RHF DLPNO-CCSD density                        
  Achintya Kumar Dutta   : EOM-CC, STEOM-CC                              
  Nicolas Foglia         : Exact transition moments, OPA infrastructure, MCD improvements    
  Dmitry Ganyushin       : Spin-Orbit,Spin-Spin,Magnetic field MRCI      
  Miquel Garcia-Rates    : C-PCM and meta-GGA Hessian, CCSD/C-PCM, Gaussian charge scheme 
  Tiago L. C. Gouveia    : GS-ROHF, GS-ROCIS                             
  Yang Guo               : DLPNO-NEVPT2, F12-NEVPT2, CIM, IAO-localization        
  Andreas Hansen         : Spin unrestricted coupled pair/coupled cluster methods 
  Ingolf Harden          : AUTO-CI MPn and infrastructure                
  Benjamin Helmich-Paris : MC-RPA, TRAH-(SCF,CASSCF), AVAS, COSX integrals, SCF dyn. polar. 
  Lee Huntington         : MR-EOM, pCC                                   
  Robert Izsak           : Overlap fitted RIJCOSX, COSX-SCS-MP3, EOM     
  Riya Kayal             : Wick's Theorem for AUTO-CI, AUTO-CI UHF-CCSDT 
  Emily Kempfer          : AUTO-CI, RHF CISDT and CCSDT                  
  Christian Kollmar      : KDIIS, OOCD, Brueckner-CCSD(T), CCSD density, CASPT2, CASPT2-K, improved NEVPT2 
  Axel Koslowski         : Symmetry handling                             
  Simone Kossmann        : meta-GGA functionals, TD-DFT gradient, OOMP2, (MP2 Hessian; deprecated post 5.0) 
  Lucas Lang             : DCDCAS                                        
  Marvin Lechner         : AUTO-CI (C++ implementation), FIC-MRCC        
  Spencer Leger          : CASSCF response                               
  Dagmar Lenk            : GEPOL surface, SMD, ORCA-2-JSON               
  Dimitrios Liakos       : Extrapolation schemes; Compound Job, initial MDCI parallelization 
  Dimitrios Manganas     : Further ROCIS development; embedding schemes. LFT, Crystal Embedding 
  Dimitrios Pantazis     : SARC Basis sets                               
  Anastasios Papadopoulos: AUTO-CI, single reference methods and gradients 
  Taras Petrenko         : pre 6.0 DFT Hessian and TD-DFT gradient, (ASA, deprecated), ECA, 1-Electron XAS/XES, NRVS 
  Peter Pinski           : DLPNO-MP2, DLPNO-MP2 Gradient                 
  Christoph Reimann      : Effective Core Potentials                     
  Marius Retegan         : Local ZFS, SOC                                
  Christoph Riplinger    : Optimizer, TS searches, QM/MM, DLPNO-CCSD(T), (RO)-DLPNO pert. Triples 
  Michael Roemelt        : Original ROCIS implementation                 
  Masaaki Saitow         : Open-shell DLPNO-CCSD energy and density      
  Barbara Sandhoefer     : DKH picture change effects                    
  Kantharuban Sivalingam : CASSCF convergence/infrastructure, NEVPT2 and variants, FIC-MRCI 
  Bernardo de Souza      : ESD, SOC TD-DFT                               
  Georgi L. Stoychev     : AutoAux, RI-MP2 NMR, DLPNO-MP2 response, X2C  
  Van Anh Tran           : RI-MP2 g-tensors                              
  Willem Van den Heuvel  : Paramagnetic NMR                              
  Zikuan Wang            : NOTCH, Electric field optimization            
  Frank Wennmohs         : Technical directorship and infrastructure     
  Hang Xu                : AUTO-CI-Response properties                   
                                                                         
[FACCTs GmbH]                                                            
  Markus Bursch, Miquel Garcia-Rates, Christoph Riplinger, Bernardo de Souza, Georgi L. Stoychev 
                                                                 
  APM, Basis sets (HGBS, AHGBS, def-TZVP (Ac-Lr), def2-XVPD (La-Lu)), CI-OPT, improved COSX, DLPNO-Multilevel,           
  DOCKER, DRACO, updates on ESD, GOAT, IRC, LR-CPCM, MBIS, meta-GGA TD-DFT gradient, ML-optimized integration grids, 
  MM, NACMEs, nearIR, NEB, NEB-TS, NL-DFT gradient (VV10), 2- and 3-layer-ONIOM, interface openCOSMO-RS, QMMM,   
  Crystal-QMMM, SF, symmetry and pop. for TD-DFT, r2SCAN hybrids, SOLVATOR                                   
                                                                         
[Other institutions]                                                     
  V. Asgeirsson          : NEB                                           
  Christoph Bannwarth    : sTDA-DFT, sTD-DFT, PBEh-3c, B97-3c, D3        
  Sebastian Ehlert       : rSCAN, r2SCAN, r2SCAN-3c, D4, dhf basis sets  
  Marvin Friede          : D4 for Fr, Ra, Ac-Lr                          
  Lars Goerigk           : TD-DFT with DH, B97 family of functionals     
  Stefan Grimme          : VdW corrections, initial TS optimization, DFT functionals, gCP, sTDA/sTD-DF 
  Waldemar Hujo          : DFT-NL                                        
  H. Jonsson             : NEB                                           
  Holger Kruse           : gCP                                           
  Marcel Mueller         : wB97X-3c, vDZP basis set                      
  Hagen Neugebauer       : wr2SCAN                                       
  Tobias Risthaus        : range-separated hybrid DFT                    
  Lukas Wittmann         : regularized MP2, r2SCAN double-hybrids, wr2SCAN        
                                                                         
We gratefully acknowledge several colleagues who have allowed us to      
interface, adapt or use parts of their codes:                            
  Ed Valeev, F. Pavosevic, A. Kumar             : LibInt (2-el integral package), F12 methods 
  Garnet Chan, S. Sharma, J. Yang, R. Olivares  : DMRG                   
  Ulf Ekstrom                                   : XCFun DFT Library      
  Mihaly Kallay                                 : mrcc  (arbitrary order and MRCC methods)
  Frank Weinhold                                : gennbo (NPA and NBO analysis)           
  Simon Mueller                                 : openCOSMO-RS                            
  Christopher J. Cramer and Donald G. Truhlar   : smd solvation model                     
  S Lehtola, MJT Oliveira, MAL Marques          : LibXC Library                           
  Liviu Ungur et al                             : ANISO software                          


 Your calculation uses the libint2 library for the computation of 2-el integrals
 For citations please refer to: http://libint.valeyev.net

 Your ORCA version has been built with support for libXC version: 6.2.2
 For citations please refer to: https://libxc.gitlab.io

 This ORCA versions uses:
   CBLAS   interface :  Fast vector & matrix operations
   LAPACKE interface :  Fast linear algebra routines
   SCALAPACK package :  Parallel linear algebra routines
   Shared memory     :  Shared parallel matrices
   BLAS/LAPACK       :  OpenBLAS 0.3.27  USE64BITINT DYNAMIC_ARCH NO_AFFINITY Zen SINGLE_THREADED
        Core in use  :  Zen
   Copyright (c) 2011-2014, The OpenBLAS Project


Your calculation utilizes the geometrical counterpoise correction gCP
Please cite in your paper:
H.Kruse, S. Grimme J.Chem.Phys., 136, (2012), 154101 
   

Your calculation utilizes the atom-pairwise dispersion correction
based on EEQ partial charges (D4)


================================================================================

----- Orbital basis set information -----
Your calculation utilizes the basis: def2-SV(P)
   F. Weigend and R. Ahlrichs, Phys. Chem. Chem. Phys. 7, 3297 (2005).

----- AuxJ basis set information -----
Your calculation utilizes the auxiliary basis: def2/J
   F. Weigend, Phys. Chem. Chem. Phys. 8, 1057 (2006).

================================================================================
                                        WARNINGS
                       Please study these warnings very carefully!
================================================================================

WARNING: Old DensityContainer found on disk!
         Will remove this file - 
         If you want to keep old densities, please start your calculation with a different basename. 


================================================================================
                                       INPUT FILE
================================================================================
NAME = sp.inp
|  1> ! pbe def2-sv(p) def2/J RI DEFGRID1 loosescf d4 GCP(DFT/SV(P)) printgap
|  2> %output
|  3>     printlevel normal
|  4> end
|  5> * xyz 0 1
|  6> C 0.8580206496 1.3742430885 -0.6201423166
|  7> C 1.5966517082 0.1639919707 -0.0349404627
|  8> H 2.5796294103 0.0651599961 -0.5039880906
|  9> C 0.7788757298 -1.1109661939 -0.3396364717
| 10> H 1.2346625145 -1.9513328595 0.2149130103
| 11> C -0.6749884793 -0.9279960094 0.1384453518
| 12> H -1.2916373993 -1.768639877 -0.2240742689
| 13> C -1.2554418957 0.3816133893 -0.4473923451
| 14> H -1.2988915535 0.2909339332 -1.5451850193
| 15> O -0.44202206 1.4708559375 -0.0827815093
| 16> O -2.5376487638 0.6096904258 -0.0071820489
| 17> O -0.7710046798 -0.8226279155 1.5414235459
| 18> O 0.8406830122 -1.3378727145 -1.7246960537
| 19> O 1.8107641556 0.309747006 1.3405728312
| 20> H 0.8202319367 1.2849013565 -1.713194489
| 21> H 1.3660806675 2.2969501592 -0.3361317864
| 22> H -2.5026175546 0.6941772554 0.95557995
| 23> H -0.3132875189 -1.5654804403 1.9510308288
| 24> H 0.3617397225 -2.1461198784 -1.9413131924
| 25> H 0.9641681429 0.5711830228 1.7350681062
| 26> *
| 27> 
| 28>                          ****END OF INPUT****
================================================================================

                       ****************************
                       * Single Point Calculation *
                       ****************************

---------------------------------
CARTESIAN COORDINATES (ANGSTROEM)
---------------------------------
  C      0.858021    1.374243   -0.620142
  C      1.596652    0.163992   -0.034940
  H      2.579629    0.065160   -0.503988
  C      0.778876   -1.110966   -0.339636
  H      1.234663   -1.951333    0.214913
  C     -0.674988   -0.927996    0.138445
  H     -1.291637   -1.768640   -0.224074
  C     -1.255442    0.381613   -0.447392
  H     -1.298892    0.290934   -1.545185
  O     -0.442022    1.470856   -0.082782
  O     -2.537649    0.609690   -0.007182
  O     -0.771005   -0.822628    1.541424
  O      0.840683   -1.337873   -1.724696
  O      1.810764    0.309747    1.340573
  H      0.820232    1.284901   -1.713194
  H      1.366081    2.296950   -0.336132
  H     -2.502618    0.694177    0.955580
  H     -0.313288   -1.565480    1.951031
  H      0.361740   -2.146120   -1.941313
  H      0.964168    0.571183    1.735068

----------------------------
CARTESIAN COORDINATES (A.U.)
----------------------------
  NO LB      ZA    FRAG     MASS         X           Y           Z
   0 C     6.0000    0    12.011    1.621424    2.596943   -1.171899
   1 C     6.0000    0    12.011    3.017234    0.309900   -0.066028
   2 H     1.0000    0     1.008    4.874793    0.123135   -0.952399
   3 C     6.0000    0    12.011    1.471862   -2.099422   -0.641820
   4 H     1.0000    0     1.008    2.333174   -3.687485    0.406127
   5 C     6.0000    0    12.011   -1.275543   -1.753658    0.261624
   6 H     1.0000    0     1.008   -2.440841   -3.342245   -0.423439
   7 C     6.0000    0    12.011   -2.372441    0.721145   -0.845449
   8 H     1.0000    0     1.008   -2.454549    0.549785   -2.919977
   9 O     8.0000    0    15.999   -0.835301    2.779515   -0.156434
  10 O     8.0000    0    15.999   -4.795461    1.152148   -0.013572
  11 O     8.0000    0    15.999   -1.456988   -1.554541    2.912868
  12 O     8.0000    0    15.999    1.588661   -2.528213   -3.259203
  13 O     8.0000    0    15.999    3.421848    0.585337    2.533316
  14 H     1.0000    0     1.008    1.550014    2.428112   -3.237468
  15 H     1.0000    0     1.008    2.581518    4.340607   -0.635197
  16 H     1.0000    0     1.008   -4.729262    1.311805    1.805784
  17 H     1.0000    0     1.008   -0.592028   -2.958329    3.686914
  18 H     1.0000    0     1.008    0.683589   -4.055579   -3.668550
  19 H     1.0000    0     1.008    1.822014    1.079379    3.278804

--------------------------------
INTERNAL COORDINATES (ANGSTROEM)
--------------------------------
 C      0   0   0     0.000000000000     0.00000000     0.00000000
 C      1   0   0     1.533865971548     0.00000000     0.00000000
 H      2   1   0     1.093626352676   109.90738200     0.00000000
 C      2   1   3     1.545029297531   108.72209811   241.42868075
 H      4   2   1     1.105207154223   108.07274236   188.53270747
 C      4   2   1     1.541350530178   109.88453613   307.21991248
 H      6   4   2     1.103792769528   109.55291353   170.94368673
 C      6   4   2     1.547646197580   109.68246226    52.44693326
 H      8   6   4     1.102388040596   108.79200111    64.05677795
 O      8   6   4     1.407495015800   109.87977502   303.40012102
 O      8   6   4     1.374721314326   111.65348169   182.17120051
 O      6   4   2     1.410201885934   112.43740175   293.86336720
 O      4   2   1     1.404883181954   107.72339078    68.86853929
 O      2   1   3     1.399687640919   111.49567384   118.55444027
 H      1   2   3     1.097348159650   109.41275832    54.35468971
 H      1   2   3     1.090951557757   110.10597414   293.18007632
 H     11   8   6     0.967096622122   107.42704306    61.21445540
 H     12   6   4     0.963905077893   109.44210130   307.83494307
 H     13   4   2     0.964143732791   109.57529409   178.14547160
 H     14   2   1     0.969896964423   107.11311966    48.80708581

---------------------------
INTERNAL COORDINATES (A.U.)
---------------------------
 C      0   0   0     0.000000000000     0.00000000     0.00000000
 C      1   0   0     2.898586612367     0.00000000     0.00000000
 H      2   1   0     2.066654299397   109.90738200     0.00000000
 C      2   1   3     2.919682241218   108.72209811   241.42868075
 H      4   2   1     2.088538842732   108.07274236   188.53270747
 C      4   2   1     2.912730378410   109.88453613   307.21991248
 H      6   4   2     2.085866043011   109.55291353   170.94368673
 C      6   4   2     2.924627465630   109.68246226    52.44693326
 H      8   6   4     2.083211490036   108.79200111    64.05677795
 O      8   6   4     2.659780114721   109.87977502   303.40012102
 O      8   6   4     2.597846794540   111.65348169   182.17120051
 O      6   4   2     2.664895357954   112.43740175   293.86336720
 O      4   2   1     2.654844464046   107.72339078    68.86853929
 O      2   1   3     2.645026314372   111.49567384   118.55444027
 H      1   2   3     2.073687495301   109.41275832    54.35468971
 H      1   2   3     2.061599669536   110.10597414   293.18007632
 H     11   8   6     1.827547760851   107.42704306    61.21445540
 H     12   6   4     1.821516616315   109.44210130   307.83494307
 H     13   4   2     1.821967608711   109.57529409   178.14547160
 H     14   2   1     1.832839640881   107.11311966    48.80708581

---------------------
BASIS SET INFORMATION
---------------------
There are 3 groups of distinct atoms

 Group   1 Type C   : 7s4p1d contracted to 3s2p1d pattern {511/31/1}
 Group   2 Type H   : 4s contracted to 2s pattern {31}
 Group   3 Type O   : 7s4p1d contracted to 3s2p1d pattern {511/31/1}

Atom   0C    basis set group =>   1
Atom   1C    basis set group =>   1
Atom   2H    basis set group =>   2
Atom   3C    basis set group =>   1
Atom   4H    basis set group =>   2
Atom   5C    basis set group =>   1
Atom   6H    basis set group =>   2
Atom   7C    basis set group =>   1
Atom   8H    basis set group =>   2
Atom   9O    basis set group =>   3
Atom  10O    basis set group =>   3
Atom  11O    basis set group =>   3
Atom  12O    basis set group =>   3
Atom  13O    basis set group =>   3
Atom  14H    basis set group =>   2
Atom  15H    basis set group =>   2
Atom  16H    basis set group =>   2
Atom  17H    basis set group =>   2
Atom  18H    basis set group =>   2
Atom  19H    basis set group =>   2
---------------------------------
AUXILIARY/J BASIS SET INFORMATION
---------------------------------
There are 3 groups of distinct atoms

 Group   1 Type C   : 12s5p4d2f1g contracted to 6s4p3d1f1g pattern {711111/2111/211/2/1}
 Group   2 Type H   : 5s2p1d contracted to 3s1p1d pattern {311/2/1}
 Group   3 Type O   : 12s5p4d2f1g contracted to 6s4p3d1f1g pattern {711111/2111/211/2/1}

Atom   0C    basis set group =>   1
Atom   1C    basis set group =>   1
Atom   2H    basis set group =>   2
Atom   3C    basis set group =>   1
Atom   4H    basis set group =>   2
Atom   5C    basis set group =>   1
Atom   6H    basis set group =>   2
Atom   7C    basis set group =>   1
Atom   8H    basis set group =>   2
Atom   9O    basis set group =>   3
Atom  10O    basis set group =>   3
Atom  11O    basis set group =>   3
Atom  12O    basis set group =>   3
Atom  13O    basis set group =>   3
Atom  14H    basis set group =>   2
Atom  15H    basis set group =>   2
Atom  16H    basis set group =>   2
Atom  17H    basis set group =>   2
Atom  18H    basis set group =>   2
Atom  19H    basis set group =>   2

Checking for AutoStart:
The File: sp.gbw exists
Trying to determine its content:
     ... Fine, the file contains calculation information
     ... Fine, the calculation information was read
     ... Fine, the file contains a basis set
     ... Fine, the basis set was read
     ... Fine, the file contains a geometry
     ... Fine, the geometry was read
     ... Fine, the file contains a set of orbitals
     ... Fine, the orbitals can be read
     => possible old guess file was deleted
     => GBW file was renamed to GES file
     => GES file is set as startup file
     => Guess is set to MORead
     ... now leaving AutoStart

------------------------------------------------------------------------------
                             ORCA STARTUP CALCULATIONS
                           -- RI-GTO INTEGRALS CHOSEN --
------------------------------------------------------------------------------
------------------------------------------------------------------------------
                   ___                                                        
                  /   \      - P O W E R E D   B Y -                         
                 /     \                                                     
                 |  |  |   _    _      __       _____    __    __             
                 |  |  |  | |  | |    /  \     |  _  \  |  |  /  |          
                  \  \/   | |  | |   /    \    | | | |  |  | /  /          
                 / \  \   | |__| |  /  /\  \   | |_| |  |  |/  /          
                |  |  |   |  __  | /  /__\  \  |    /   |      \           
                |  |  |   | |  | | |   __   |  |    \   |  |\   \          
                \     /   | |  | | |  |  |  |  | |\  \  |  | \   \       
                 \___/    |_|  |_| |__|  |__|  |_| \__\ |__|  \__/        
                                                                              
                      - O R C A' S   B I G   F R I E N D -                    
                                      &                                       
                       - I N T E G R A L  F E E D E R -                       
                                                                              
 v1 FN, 2020, v2 2021, v3 2022-2024                                           
------------------------------------------------------------------------------


----------------------
SHARK INTEGRAL PACKAGE
----------------------

Number of atoms                             ...     20
Number of basis functions                   ...    160
Number of shells                            ...     80
Maximum angular momentum                    ...      2
Integral batch strategy                     ... SHARK/LIBINT Hybrid
RI-J (if used) integral strategy            ... SPLIT-RIJ (Revised 2003 algorithm where possible)
Printlevel                                  ...      1
Contraction scheme used                     ... SEGMENTED contraction
Prescreening option                         ... SCHWARTZ
   Thresh                                   ... 1.000e-09
   Tcut                                     ... 1.000e-10
   Tpresel                                  ... 1.000e-10 
Coulomb Range Separation                    ... NOT USED
Exchange Range Separation                   ... NOT USED
Multipole approximations                    ... NOT USED
Finite Nucleus Model                        ... NOT USED
CABS basis                                  ... NOT available
Auxiliary Coulomb fitting basis             ... AVAILABLE
   # of basis functions in Aux-J            ...    600
   # of shells in Aux-J                     ...    200
   Maximum angular momentum in Aux-J        ...      4
Auxiliary J/K fitting basis                 ... NOT available
Auxiliary Correlation fitting basis         ... NOT available
Auxiliary 'external' fitting basis          ... NOT available

Checking pre-screening integrals            ... done (  0.0 sec) Dimension = 80
Check shell pair data                       ... done (  0.0 sec)
Shell pair information
Shell pair cut-off parameter TPreSel        ...   1.0e-10
Total number of shell pairs                 ...      3240
Shell pairs after pre-screening             ...      3079
Total number of primitive shell pairs       ...     13040
Primitive shell pairs kept                  ...      8643
          la=0 lb=0:   1196 shell pairs
          la=1 lb=0:    965 shell pairs
          la=1 lb=1:    208 shell pairs
          la=2 lb=0:    461 shell pairs
          la=2 lb=1:    196 shell pairs
          la=2 lb=2:     53 shell pairs

Calculating one electron integrals          ... done (  0.0 sec)
Calculating RI/J V-Matrix + Cholesky decomp.... done (  0.0 sec)
Calculating Nuclear repulsion               ... done (  0.0 sec) ENN=    637.075433426868 Eh

Diagonalization of the overlap matrix:
Smallest eigenvalue                        ... 1.036e-03
Time for diagonalization                   ...    0.003 sec
Threshold for overlap eigenvalues          ... 1.000e-07
Number of eigenvalues below threshold      ... 0
Time for construction of square roots      ...    0.001 sec
Total time needed                          ...    0.006 sec

-------------------
DFT GRID GENERATION
-------------------

General Integration Accuracy     IntAcc      ... 4.159
Radial Grid Type                 RadialGrid  ... OptM3 with GC (2021)
Angular Grid (max. ang.)         AngularGrid ... 3 (Lebedev-194)
Angular grid pruning method      GridPruning ... 4 (adaptive)
Weight generation scheme         WeightScheme... mBecke (2022)
Basis function cutoff            BFCut       ... 1.0000e-10
Integration weight cutoff        WCut        ... 1.0000e-14
Partially contracted basis set               ... off
Rotationally invariant grid construction     ... off
Angular grids for H and He will be reduced by one unit

Total number of grid points                  ...    46494
Total number of batches                      ...      736
Average number of points per batch           ...       63
Average number of grid points per atom       ...     2325
Initializing property integral containers    ... done (  0.0 sec)

SHARK setup successfully completed in   0.5 seconds

Maximum memory used throughout the entire STARTUP-calculation: 23.9 MB
-------------------------------------------------------------------------------
                                 ORCA GUESS
                   Start orbitals & Density for SCF / CASSCF
-------------------------------------------------------------------------------

------------
SCF SETTINGS
------------
Hamiltonian:
 Density Functional     Method          .... DFT(GTOs)
 Exchange Functional    Exchange        .... PBE
   PBE kappa parameter   XKappa         ....  0.804000
   PBE mue parameter    XMuePBE         ....  0.219520
 Correlation Functional Correlation     .... PBE
   PBE beta parameter  CBetaPBE         ....  0.066725
 LDA part of GGA corr.  LDAOpt          .... PW91-LDA
 Gradients option       PostSCFGGA      .... off
   NL short-range parameter             ....  6.400000
 RI-approximation to the Coulomb term is turned on
   Number of AuxJ basis functions       .... 600


General Settings:
 Integral files         IntName         .... sp
 Hartree-Fock type      HFTyp           .... RHF
 Total Charge           Charge          ....    0
 Multiplicity           Mult            ....    1
 Number of Electrons    NEL             ....   80
 Basis Dimension        Dim             ....  160
 Nuclear Repulsion      ENuc            ....    637.0754334269 Eh

Convergence Acceleration:
 AO-DIIS                CNVDIIS         .... on
   Start iteration      DIISMaxIt       ....    12
   Startup error        DIISStart       ....  0.200000
   # of expansion vecs  DIISMaxEq       ....     5
   Bias factor          DIISBfac        ....   1.050
   Max. coefficient     DIISMaxC        ....  10.000
 MO-DIIS                CNVKDIIS        .... off
 Trust-Rad. Augm. Hess. CNVTRAH         .... auto
   Auto Start mean grad. ratio tolernc. ....  1.125000
   Auto Start start iteration           ....     1
   Auto Start num. interpolation iter.  ....    10
   Max. Number of Micro iterations      ....    24
   Max. Number of Macro iterations      .... Maxiter - #DIIS iter
   Number of Davidson start vectors     ....     2
   Converg. threshold    (grad. norm)   ....   1.000e-04
   Grad. Scal. Fac. for Micro threshold ....   0.100
   Minimum threshold for Micro iter.    ....   1.000e-02
   NR start threshold (gradient norm)   ....   1.000e-04
   Initial trust radius                 ....   0.400
   Minimum AH scaling param. (alpha)    ....   1.000
   Maximum AH scaling param. (alpha)    .... 1000.000
   Quad. conv. algorithm                .... NR
   White noise on init. David. guess    .... on
   Maximum white noise                  ....   0.010
   Pseudo random numbers                .... off
   Inactive MOs                         .... canonical
   Orbital update algorithm             .... Taylor
   Preconditioner                       .... Diag
   Full preconditioner red. dimension   ....   250
 SOSCF                  CNVSOSCF        .... on
   Start iteration      SOSCFMaxIt      ....   150
   Startup grad/error   SOSCFStart      ....  0.003300
   Hessian update       SOSCFHessUp     .... L-BFGS
 Level Shifting         CNVShift        .... on
   Level shift para.    LevelShift      ....    0.2500
   Turn off err/grad.   ShiftErr        ....    0.0010
 Zerner damping         CNVZerner       .... off
 Static damping         CNVDamp         .... on
   Fraction old density DampFac         ....    0.7000
   Max. Damping (<1)    DampMax         ....    0.9800
   Min. Damping (>=0)   DampMin         ....    0.0000
   Turn off err/grad.   DampErr         ....    0.1000

SCF Procedure:
 Maximum # iterations   MaxIter         ....   125
 SCF integral mode      SCFMode         .... Direct
   Integral package                     .... SHARK and LIBINT hybrid scheme
 Reset frequency        DirectResetFreq ....    20
 Integral Threshold     Thresh          ....  1.000e-09 Eh
 Primitive CutOff       TCut            ....  1.000e-10 Eh

Convergence Tolerance:
 Convergence Check Mode ConvCheckMode   .... Total+1el-Energy
 Convergence forced     ConvForced      .... 0
 Energy Change          TolE            ....  1.000e-05 Eh
 1-El. energy change                    ....  1.000e-02 Eh
 Orbital Gradient       TolG            ....  1.000e-04
 Orbital Rotation angle TolX            ....  1.000e-04
 DIIS Error             TolErr          ....  5.000e-04

---------------------
INITIAL GUESS: MOREAD
---------------------
Guess MOs are being read from file: sp.ges
Input Geometry matches current geometry (good)
Input basis set matches current basis set (good)
Occupation numbers will be reassigned to an Aufbau configuration
MOs were renormalized
MOs were reorthogonalized (Cholesky)
                      ------------------
                      INITIAL GUESS DONE (   0.0 sec)
                      ------------------
             **** ENERGY FILE WAS UPDATED (sp.en.tmp) ****
Finished Guess after   0.1 sec
Maximum memory used throughout the entire GUESS-calculation: 11.9 MB

-------------------------------------------------------------------------------------------
                                      ORCA LEAN-SCF
                              memory conserving SCF solver
-------------------------------------------------------------------------------------------

----------------------------------------D-I-I-S--------------------------------------------
Iteration    Energy (Eh)           Delta-E    RMSDP     MaxDP     DIISErr   Damp  Time(sec)
-------------------------------------------------------------------------------------------
               ***  Starting incremental Fock matrix formation  ***
                              *** Initializing SOSCF ***
---------------------------------------S-O-S-C-F--------------------------------------
Iteration    Energy (Eh)           Delta-E    RMSDP     MaxDP     MaxGrad    Time(sec)
--------------------------------------------------------------------------------------
    1    -571.5262138372687559     0.00e+00  2.28e-05  3.77e-04  2.56e-05     0.7
               *** Restarting incremental Fock matrix formation ***
    2    -571.5262138700496735    -3.28e-08  3.78e-05  1.01e-03  8.62e-05     0.7
    3    -571.5262121288166099     1.74e-06  2.57e-05  7.36e-04  1.84e-04     0.5
                 **** Energy Check signals convergence ****

               *****************************************************
               *                     SUCCESS                       *
               *           SCF CONVERGED AFTER   3 CYCLES          *
               *****************************************************

             **** ENERGY FILE WAS UPDATED (sp.en.tmp) ****

----------------
TOTAL SCF ENERGY
----------------

Total Energy       :       -571.52621212881661 Eh          -15552.01888 eV

Components:
Nuclear Repulsion  :        637.07543342686847 Eh           17335.70387 eV
Electronic Energy  :      -1208.60164555568508 Eh          -32887.72276 eV
One Electron Energy:      -2048.17740398207025 Eh          -55733.74061 eV
Two Electron Energy:        839.57575842638528 Eh           22846.01786 eV

Virial components:
Potential Energy   :      -1139.13670536420477 Eh          -30997.48563 eV
Kinetic Energy     :        567.61049323538828 Eh           15445.46675 eV
Virial Ratio       :          2.00689860201687

DFT components:
N(Alpha)           :       40.000057402248 electrons
N(Beta)            :       40.000057402248 electrons
N(Total)           :       80.000114804495 electrons
E(X)               :      -70.504871301001 Eh       
E(C)               :       -2.736364302180 Eh       
E(XC)              :      -73.241235603181 Eh       

---------------
SCF CONVERGENCE
---------------

  Last Energy change         ...   -1.7412e-06  Tolerance :   1.0000e-05
  Last MAX-Density change    ...    7.3577e-04  Tolerance :   1.0000e-03
  Last RMS-Density change    ...    2.5742e-05  Tolerance :   1.0000e-04
  Last DIIS Error            ...    3.6016e-04  Tolerance :   5.0000e-04
  Last Orbital Gradient      ...    1.8443e-04  Tolerance :   1.0000e-04
  Last Orbital Rotation      ...    1.1047e-04  Tolerance :   1.0000e-04


----------------
ORBITAL ENERGIES
----------------

  NO   OCC          E(Eh)            E(eV) 
   0   2.0000     -18.779197      -511.0079 
   1   2.0000     -18.769671      -510.7487 
   2   2.0000     -18.767290      -510.6839 
   3   2.0000     -18.756644      -510.3942 
   4   2.0000     -18.746887      -510.1287 
   5   2.0000      -9.985548      -271.7206 
   6   2.0000      -9.950229      -270.7595 
   7   2.0000      -9.950160      -270.7576 
   8   2.0000      -9.939420      -270.4654 
   9   2.0000      -9.930750      -270.2294 
  10   2.0000      -0.987293       -26.8656 
  11   2.0000      -0.951518       -25.8921 
  12   2.0000      -0.944215       -25.6934 
  13   2.0000      -0.929413       -25.2906 
  14   2.0000      -0.910274       -24.7698 
  15   2.0000      -0.698484       -19.0067 
  16   2.0000      -0.674232       -18.3468 
  17   2.0000      -0.597295       -16.2532 
  18   2.0000      -0.580342       -15.7919 
  19   2.0000      -0.541248       -14.7281 
  20   2.0000      -0.508703       -13.8425 
  21   2.0000      -0.484611       -13.1869 
  22   2.0000      -0.469248       -12.7689 
  23   2.0000      -0.452937       -12.3250 
  24   2.0000      -0.436859       -11.8875 
  25   2.0000      -0.414557       -11.2807 
  26   2.0000      -0.407593       -11.0912 
  27   2.0000      -0.380722       -10.3600 
  28   2.0000      -0.371382       -10.1058 
  29   2.0000      -0.357467        -9.7272 
  30   2.0000      -0.346339        -9.4244 
  31   2.0000      -0.307848        -8.3770 
  32   2.0000      -0.298683        -8.1276 
  33   2.0000      -0.295498        -8.0409 
  34   2.0000      -0.278178        -7.5696 
  35   2.0000      -0.260613        -7.0916 
  36   2.0000      -0.250002        -6.8029 
  37   2.0000      -0.238752        -6.4968 
  38   2.0000      -0.216115        -5.8808 
  39   2.0000      -0.203138        -5.5277 
  40   0.0000       0.005914         0.1609 
  41   0.0000       0.008731         0.2376 
  42   0.0000       0.061691         1.6787 
  43   0.0000       0.063827         1.7368 
  44   0.0000       0.072636         1.9765 
  45   0.0000       0.083375         2.2687 
  46   0.0000       0.091876         2.5001 
  47   0.0000       0.101390         2.7590 
  48   0.0000       0.103649         2.8204 
  49   0.0000       0.125150         3.4055 
  50   0.0000       0.130669         3.5557 
*Only the first 10 virtual orbitals were printed.

                    ********************************
                    * MULLIKEN POPULATION ANALYSIS *
                    ********************************

-----------------------
MULLIKEN ATOMIC CHARGES
-----------------------
   0 C :    0.038261
   1 C :    0.050675
   2 H :    0.080975
   3 C :    0.009127
   4 H :    0.061044
   5 C :   -0.005024
   6 H :    0.061332
   7 C :    0.201202
   8 H :    0.058765
   9 O :   -0.308604
  10 O :   -0.377279
  11 O :   -0.427424
  12 O :   -0.405604
  13 O :   -0.432459
  14 H :    0.080925
  15 H :    0.100862
  16 H :    0.304603
  17 H :    0.309804
  18 H :    0.303324
  19 H :    0.295493
Sum of atomic charges:   -0.0000000

--------------------------------
MULLIKEN REDUCED ORBITAL CHARGES
--------------------------------
  0 C s       :     3.025015  s :     3.025015
      pz      :     1.018020  p :     2.874809
      px      :     0.798872
      py      :     1.057916
      dz2     :     0.015671  d :     0.061915
      dxz     :     0.012594
      dyz     :     0.003813
      dx2y2   :     0.014399
      dxy     :     0.015439

  1 C s       :     3.047459  s :     3.047459
      pz      :     0.779873  p :     2.832681
      px      :     1.061526
      py      :     0.991282
      dz2     :     0.019832  d :     0.069185
      dxz     :     0.015692
      dyz     :     0.016514
      dx2y2   :     0.009202
      dxy     :     0.007945

  2 H s       :     0.919025  s :     0.919025

  3 C s       :     3.078933  s :     3.078933
      pz      :     0.757712  p :     2.844422
      px      :     1.018857
      py      :     1.067852
      dz2     :     0.019490  d :     0.067518
      dxz     :     0.015400
      dyz     :     0.015102
      dx2y2   :     0.008433
      dxy     :     0.009093

  4 H s       :     0.938956  s :     0.938956

  5 C s       :     3.072116  s :     3.072116
      pz      :     0.775923  p :     2.867175
      px      :     1.016525
      py      :     1.074728
      dz2     :     0.020340  d :     0.065732
      dxz     :     0.015229
      dyz     :     0.013890
      dx2y2   :     0.006313
      dxy     :     0.009960

  6 H s       :     0.938668  s :     0.938668

  7 C s       :     3.026053  s :     3.026053
      pz      :     1.033005  p :     2.670076
      px      :     0.779347
      py      :     0.857725
      dz2     :     0.021316  d :     0.102668
      dxz     :     0.015349
      dyz     :     0.010552
      dx2y2   :     0.025320
      dxy     :     0.030131

  8 H s       :     0.941235  s :     0.941235

  9 O s       :     3.761876  s :     3.761876
      pz      :     1.718932  p :     4.530935
      px      :     1.264790
      py      :     1.547214
      dz2     :     0.002202  d :     0.015792
      dxz     :     0.003344
      dyz     :     0.002516
      dx2y2   :     0.003807
      dxy     :     0.003924

 10 O s       :     3.769998  s :     3.769998
      pz      :     1.306477  p :     4.591098
      px      :     1.431606
      py      :     1.853015
      dz2     :     0.007771  d :     0.016184
      dxz     :     0.002146
      dyz     :     0.000409
      dx2y2   :     0.003563
      dxy     :     0.002294

 11 O s       :     3.784693  s :     3.784693
      pz      :     1.285341  p :     4.627489
      px      :     1.781621
      py      :     1.560527
      dz2     :     0.003829  d :     0.015242
      dxz     :     0.002495
      dyz     :     0.003715
      dx2y2   :     0.001533
      dxy     :     0.003670

 12 O s       :     3.786194  s :     3.786194
      pz      :     1.352782  p :     4.603880
      px      :     1.757887
      py      :     1.493211
      dz2     :     0.005591  d :     0.015530
      dxz     :     0.002249
      dyz     :     0.001937
      dx2y2   :     0.001548
      dxy     :     0.004205

 13 O s       :     3.788374  s :     3.788374
      pz      :     1.281371  p :     4.628317
      px      :     1.506121
      py      :     1.840825
      dz2     :     0.003979  d :     0.015768
      dxz     :     0.004547
      dyz     :     0.001701
      dx2y2   :     0.003534
      dxy     :     0.002007

 14 H s       :     0.919075  s :     0.919075

 15 H s       :     0.899138  s :     0.899138

 16 H s       :     0.695397  s :     0.695397

 17 H s       :     0.690196  s :     0.690196

 18 H s       :     0.696676  s :     0.696676

 19 H s       :     0.704507  s :     0.704507


------------------------
MULLIKEN OVERLAP CHARGES
------------------------
B(  0-C ,  1-C ) :   0.7164 B(  0-C ,  5-C ) :  -0.0887 B(  0-C ,  9-O ) :   0.6422 
B(  0-C , 13-O ) :  -0.0654 B(  0-C , 14-H ) :   0.6387 B(  0-C , 15-H ) :   0.7109 
B(  1-C ,  2-H ) :   0.6381 B(  1-C ,  3-C ) :   0.2288 B(  1-C ,  4-H ) :  -0.1029 
B(  1-C ,  7-C ) :  -0.0753 B(  1-C ,  9-O ) :  -0.0819 B(  1-C , 12-O ) :  -0.1072 
B(  1-C , 13-O ) :   0.6201 B(  1-C , 14-H ) :  -0.0582 B(  1-C , 19-H ) :  -0.1040 
B(  2-H ,  3-C ) :  -0.0793 B(  2-H , 13-O ) :  -0.0511 B(  3-C ,  4-H ) :   0.7174 
B(  3-C ,  5-C ) :   0.3561 B(  3-C ,  6-H ) :  -0.1015 B(  3-C ,  9-O ) :  -0.0526 
B(  3-C , 11-O ) :  -0.0635 B(  3-C , 12-O ) :   0.5247 B(  3-C , 13-O ) :  -0.0858 
B(  3-C , 18-H ) :  -0.0759 B(  4-H ,  5-C ) :  -0.1427 B(  5-C ,  6-H ) :   0.6303 
B(  5-C ,  7-C ) :   0.3434 B(  5-C ,  8-H ) :  -0.1297 B(  5-C ,  9-O ) :  -0.0750 
B(  5-C , 10-O ) :  -0.0746 B(  5-C , 11-O ) :   0.4872 B(  5-C , 12-O ) :  -0.0872 
B(  5-C , 17-H ) :  -0.1016 B(  6-H , 11-O ) :  -0.0505 B(  7-C ,  8-H ) :   0.6956 
B(  7-C ,  9-O ) :   0.5391 B(  7-C , 10-O ) :   0.7302 B(  7-C , 11-O ) :  -0.0768 
B(  7-C , 16-H ) :  -0.0948 B(  8-H ,  9-O ) :  -0.0764 B(  8-H , 10-O ) :  -0.0674 
B(  9-O , 10-O ) :  -0.1265 B(  9-O , 14-H ) :  -0.0660 B(  9-O , 15-H ) :  -0.0535 
B( 10-O , 16-H ) :   0.5385 B( 11-O , 17-H ) :   0.5356 B( 11-O , 19-H ) :   0.0764 
B( 12-O , 18-H ) :   0.5170 B( 13-O , 19-H ) :   0.5324 B( 14-H , 15-H ) :  -0.0584 



                     *******************************
                     * LOEWDIN POPULATION ANALYSIS *
                     *******************************

----------------------
LOEWDIN ATOMIC CHARGES
----------------------
   0 C :   -0.124806
   1 C :   -0.075568
   2 H :    0.120718
   3 C :   -0.085573
   4 H :    0.093540
   5 C :   -0.104013
   6 H :    0.098276
   7 C :    0.002845
   8 H :    0.098913
   9 O :   -0.159958
  10 O :   -0.284980
  11 O :   -0.310642
  12 O :   -0.312319
  13 O :   -0.319268
  14 H :    0.109308
  15 H :    0.119533
  16 H :    0.286512
  17 H :    0.289786
  18 H :    0.288636
  19 H :    0.269061

-------------------------------
LOEWDIN REDUCED ORBITAL CHARGES
-------------------------------
  0 C s       :     2.924826  s :     2.924826
      pz      :     1.081521  p :     3.058470
      px      :     0.879734
      py      :     1.097215
      dz2     :     0.037253  d :     0.141510
      dxz     :     0.027874
      dyz     :     0.008745
      dx2y2   :     0.031225
      dxy     :     0.036413

  1 C s       :     2.889293  s :     2.889293
      pz      :     0.886797  p :     3.025952
      px      :     1.080727
      py      :     1.058429
      dz2     :     0.045917  d :     0.160323
      dxz     :     0.033522
      dyz     :     0.036969
      dx2y2   :     0.020372
      dxy     :     0.023544

  2 H s       :     0.879282  s :     0.879282

  3 C s       :     2.902331  s :     2.902331
      pz      :     0.870680  p :     3.023596
      px      :     1.073968
      py      :     1.078948
      dz2     :     0.047167  d :     0.159646
      dxz     :     0.035480
      dyz     :     0.033042
      dx2y2   :     0.021357
      dxy     :     0.022600

  4 H s       :     0.906460  s :     0.906460

  5 C s       :     2.910771  s :     2.910771
      pz      :     0.864352  p :     3.037737
      px      :     1.076758
      py      :     1.096627
      dz2     :     0.047627  d :     0.155505
      dxz     :     0.034824
      dyz     :     0.030800
      dx2y2   :     0.018474
      dxy     :     0.023780

  6 H s       :     0.901724  s :     0.901724

  7 C s       :     2.881499  s :     2.881499
      pz      :     1.077157  p :     2.887145
      px      :     0.863864
      py      :     0.946124
      dz2     :     0.048941  d :     0.228511
      dxz     :     0.030982
      dyz     :     0.023355
      dx2y2   :     0.056090
      dxy     :     0.069144

  8 H s       :     0.901087  s :     0.901087

  9 O s       :     3.477742  s :     3.477742
      pz      :     1.746551  p :     4.651977
      px      :     1.325279
      py      :     1.580147
      dz2     :     0.003826  d :     0.030239
      dxz     :     0.006561
      dyz     :     0.003623
      dx2y2   :     0.007730
      dxy     :     0.008498

 10 O s       :     3.522413  s :     3.522413
      pz      :     1.381542  p :     4.734082
      px      :     1.507447
      py      :     1.845093
      dz2     :     0.013921  d :     0.028484
      dxz     :     0.004186
      dyz     :     0.000790
      dx2y2   :     0.006214
      dxy     :     0.003373

 11 O s       :     3.528243  s :     3.528243
      pz      :     1.355879  p :     4.755422
      px      :     1.789635
      py      :     1.609908
      dz2     :     0.008322  d :     0.026977
      dxz     :     0.004474
      dyz     :     0.006734
      dx2y2   :     0.001989
      dxy     :     0.005458

 12 O s       :     3.535052  s :     3.535052
      pz      :     1.428880  p :     4.749822
      px      :     1.773780
      py      :     1.547163
      dz2     :     0.010928  d :     0.027445
      dxz     :     0.003722
      dyz     :     0.003821
      dx2y2   :     0.002274
      dxy     :     0.006699

 13 O s       :     3.530581  s :     3.530581
      pz      :     1.357998  p :     4.761259
      px      :     1.564487
      py      :     1.838774
      dz2     :     0.008503  d :     0.027428
      dxz     :     0.008068
      dyz     :     0.003151
      dx2y2   :     0.004997
      dxy     :     0.002709

 14 H s       :     0.890692  s :     0.890692

 15 H s       :     0.880467  s :     0.880467

 16 H s       :     0.713488  s :     0.713488

 17 H s       :     0.710214  s :     0.710214

 18 H s       :     0.711364  s :     0.711364

 19 H s       :     0.730939  s :     0.730939


---------------------------------
LOEWDIN BOND ORDERS (THRESH 0.050000)
---------------------------------
B(  0-C ,  1-C ) :   1.0621 B(  0-C ,  3-C ) :   0.0554 B(  0-C ,  7-C ) :   0.0711 
B(  0-C ,  9-O ) :   1.1594 B(  0-C , 13-O ) :   0.0743 B(  0-C , 14-H ) :   0.8936 
B(  0-C , 15-H ) :   0.9098 B(  1-C ,  2-H ) :   0.8746 B(  1-C ,  3-C ) :   1.0093 
B(  1-C ,  5-C ) :   0.0510 B(  1-C ,  9-O ) :   0.0668 B(  1-C , 12-O ) :   0.0599 
B(  1-C , 13-O ) :   1.2402 B(  3-C ,  4-H ) :   0.8702 B(  3-C ,  5-C ) :   1.0218 
B(  3-C ,  7-C ) :   0.0524 B(  3-C , 11-O ) :   0.0749 B(  3-C , 12-O ) :   1.2132 
B(  3-C , 13-O ) :   0.0837 B(  5-C ,  6-H ) :   0.8696 B(  5-C ,  7-C ) :   1.0085 
B(  5-C ,  9-O ) :   0.0677 B(  5-C , 10-O ) :   0.0803 B(  5-C , 11-O ) :   1.2038 
B(  5-C , 12-O ) :   0.0836 B(  7-C ,  8-H ) :   0.8718 B(  7-C ,  9-O ) :   1.1665 
B(  7-C , 10-O ) :   1.3234 B(  7-C , 11-O ) :   0.0559 B(  9-O , 10-O ) :   0.0774 
B( 10-O , 16-H ) :   0.8680 B( 11-O , 17-H ) :   0.8754 B( 11-O , 19-H ) :   0.0543 
B( 12-O , 18-H ) :   0.8796 B( 13-O , 19-H ) :   0.8623 

------------------------------------------
LOEWDIN REDUCED ORBITAL POPULATIONS PER MO
-------------------------------------------
THRESHOLD FOR PRINTING IS 0.1%%
                      0         1         2         3         4         5   
                 -18.77920 -18.76967 -18.76729 -18.75664 -18.74689  -9.98555
                   2.00000   2.00000   2.00000   2.00000   2.00000   2.00000
                  --------  --------  --------  --------  --------  --------
 7 C  s               0.0       0.0       0.0       0.0       0.0      99.6
 9 O  s               0.0       0.0      99.9       0.0       0.0       0.0
10 O  s               0.0       0.0       0.0      99.9       0.0       0.0
10 O  px              0.0       0.0       0.0       0.0       0.0       0.1
11 O  s              99.9       0.0       0.0       0.0       0.0       0.0
12 O  s               0.0      99.9       0.0       0.0       0.0       0.0
13 O  s               0.0       0.0       0.0       0.0      99.9       0.0

                      6         7         8         9        10        11   
                  -9.95023  -9.95016  -9.93942  -9.93075  -0.98729  -0.95152
                   2.00000   2.00000   2.00000   2.00000   2.00000   2.00000
                  --------  --------  --------  --------  --------  --------
 0 C  s               0.0       0.0       0.0      99.6       3.7       0.3
 0 C  pz              0.0       0.0       0.0       0.0       0.6       0.0
 0 C  px              0.0       0.0       0.0       0.0       2.6       0.9
 0 C  py              0.0       0.0       0.1       0.0       0.1       0.1
 0 C  dx2y2           0.0       0.0       0.0       0.0       0.2       0.0
 1 C  s               0.0       0.0      99.6       0.0       1.3       1.0
 1 C  px              0.0       0.0       0.0       0.0       0.5       0.0
 1 C  py              0.0       0.0       0.0       0.1       0.0       0.7
 2 H  s               0.0       0.0       0.1       0.0       0.2       0.2
 3 C  s              57.7      41.9       0.0       0.0       1.5       6.7
 3 C  pz              0.0       0.0       0.0       0.0       0.0       2.2
 3 C  px              0.0       0.1       0.0       0.0       0.3       0.1
 3 C  py              0.0       0.0       0.1       0.0       0.2       0.1
 3 C  dz2             0.0       0.0       0.0       0.0       0.0       0.3
 4 H  s               0.0       0.0       0.0       0.0       0.2       0.9
 5 C  s              41.9      57.7       0.0       0.0       4.8       3.7
 5 C  pz              0.0       0.0       0.0       0.0       0.5       2.1
 5 C  px              0.1       0.0       0.0       0.0       0.0       0.9
 5 C  py              0.0       0.0       0.0       0.0       1.3       0.4
 5 C  dz2             0.0       0.0       0.0       0.0       0.1       0.3
 6 H  s               0.0       0.0       0.0       0.0       0.6       0.5
 7 C  s               0.0       0.0       0.0       0.0      14.0       2.1
 7 C  pz              0.0       0.0       0.0       0.0       1.8       0.1
 7 C  px              0.0       0.0       0.0       0.0       0.0       0.5
 7 C  py              0.0       0.0       0.0       0.0       1.4       2.1
 7 C  dz2             0.0       0.0       0.0       0.0       0.1       0.0
 8 H  s               0.0       0.0       0.0       0.0       1.6       0.1
 9 O  s               0.0       0.0       0.0       0.0      22.8       5.5
 9 O  pz              0.0       0.0       0.0       0.0       0.4       0.1
 9 O  py              0.0       0.0       0.0       0.0       1.4       0.2
10 O  s               0.0       0.0       0.0       0.0      15.9       6.6
10 O  pz              0.0       0.0       0.0       0.0       0.1       0.1
10 O  px              0.0       0.0       0.0       0.0       1.8       0.5
11 O  s               0.0       0.0       0.0       0.0       8.4      19.1
11 O  pz              0.1       0.1       0.0       0.0       0.4       0.3
11 O  px              0.0       0.0       0.0       0.0       0.1       0.3
11 O  py              0.0       0.0       0.0       0.0       0.1       0.6
12 O  s               0.0       0.0       0.0       0.0       1.4      25.1
12 O  pz              0.1       0.0       0.0       0.0       0.1       0.9
12 O  px              0.0       0.0       0.0       0.0       0.0       0.3
12 O  py              0.0       0.0       0.0       0.0       0.0       0.4
13 O  s               0.0       0.0       0.0       0.0       1.4       1.9
13 O  pz              0.0       0.0       0.1       0.0       0.1       0.1
14 H  s               0.0       0.0       0.0       0.1       0.5       0.0
15 H  s               0.0       0.0       0.0       0.1       0.4       0.0
16 H  s               0.0       0.0       0.0       0.0       3.6       1.1
17 H  s               0.0       0.0       0.0       0.0       1.6       4.1
18 H  s               0.0       0.0       0.0       0.0       0.3       5.2
19 H  s               0.0       0.0       0.0       0.0       0.6       0.6

                     12        13        14        15        16        17   
                  -0.94422  -0.92941  -0.91027  -0.69848  -0.67423  -0.59730
                   2.00000   2.00000   2.00000   2.00000   2.00000   2.00000
                  --------  --------  --------  --------  --------  --------
 0 C  s               0.9       2.2       2.4       1.1      16.8      10.8
 0 C  pz              0.1       0.8       0.1       0.0       0.1       0.1
 0 C  px              0.3       0.1       3.7       1.2       1.0       0.5
 0 C  py              0.1       0.3       0.2       2.0       0.1       0.7
 0 C  dxz             0.0       0.0       0.1       0.0       0.0       0.0
 0 C  dx2y2           0.0       0.0       0.2       0.1       0.0       0.0
 1 C  s               0.9       7.2       1.6       8.1       8.0       0.7
 1 C  pz              0.1       6.1       3.3       2.0       2.8       0.0
 1 C  px              0.1       0.0       0.4       1.2       0.2       0.1
 1 C  py              0.0       0.6       0.1       1.4       1.3       9.5
 1 C  dz2             0.0       0.5       0.3       0.2       0.1       0.0
 1 C  dxy             0.0       0.0       0.0       0.0       0.0       0.2
 2 H  s               0.2       0.8       0.2       1.6       2.1       0.4
 3 C  s               3.2       0.1       0.0      15.1       0.1       7.5
 3 C  pz              5.6       1.9       0.0       2.0       0.1       0.3
 3 C  px              0.4       0.3       0.2       0.5       3.5       4.3
 3 C  py              0.1       1.0       0.0       2.1       0.9       0.0
 3 C  dz2             0.4       0.1       0.0       0.2       0.0       0.0
 4 H  s               0.3       0.0       0.0       2.6       0.0       3.4
 5 C  s               2.4       0.2       0.1      12.1       6.7       5.5
 5 C  pz              7.2       0.0       0.1       2.3       1.2       0.2
 5 C  px              0.5       0.1       0.1       1.6       0.5       4.7
 5 C  py              0.0       0.0       0.0       0.1       0.8       0.1
 5 C  dz2             0.5       0.0       0.0       0.1       0.0       0.0
 6 H  s               0.2       0.1       0.0       2.3       1.6       2.7
 7 C  s               0.1       0.7       0.1       1.6       9.3       0.4
 7 C  pz              0.2       0.2       0.1       0.0       0.0       0.1
 7 C  px              0.2       3.3      10.5       0.5       1.4       0.1
 7 C  py              0.8       0.2       0.9       4.5       0.7       8.0
 7 C  dxz             0.0       0.1       0.3       0.0       0.1       0.0
 7 C  dyz             0.0       0.0       0.0       0.1       0.0       0.2
 7 C  dx2y2           0.0       0.1       0.3       0.0       0.1       0.0
 7 C  dxy             0.0       0.1       0.4       0.1       0.0       0.1
 8 H  s               0.0       0.1       0.0       0.4       1.9       0.4
 9 O  s               3.0       3.2      19.6       2.8       0.1       2.3
 9 O  pz              0.1       0.1       0.4       0.0       0.1       0.2
 9 O  px              0.1       0.6       0.7       0.1       8.5       6.6
 9 O  py              0.1       0.0       0.3       0.3       2.2       0.4
10 O  s               0.0      11.2      24.7       0.2       3.3       0.0
10 O  pz              0.0       0.2       0.5       0.1       1.7       0.1
10 O  px              0.0       0.4       0.6       0.1       1.8       0.0
10 O  py              0.0       0.0       0.0       0.1       0.1       0.8
11 O  s              30.5       0.2       1.1       2.9       1.1       0.2
11 O  pz              0.4       0.0       0.0       3.2       2.4       4.9
11 O  px              0.3       0.0       0.0       0.1       0.1       1.0
11 O  py              0.8       0.0       0.0       0.4       0.6       0.8
12 O  s              26.2       5.7       0.0       4.7       0.0       0.4
12 O  pz              0.7       0.1       0.0       3.3       0.1       4.6
12 O  px              0.3       0.1       0.0       0.2       0.2       1.2
12 O  py              0.4       0.1       0.0       2.2       0.2       1.8
13 O  s               0.6      36.8      16.8       2.9       2.3       0.1
13 O  pz              0.1       0.9       0.3       1.6       1.8       0.3
13 O  px              0.0       1.5       0.6       0.2       0.2       0.1
13 O  py              0.0       0.0       0.0       0.2       0.0       0.7
14 H  s               0.2       0.2       0.3       0.3       3.3       3.1
15 H  s               0.1       0.4       0.2       0.1       4.1       4.3
16 H  s               0.0       2.2       4.7       0.1       1.8       0.1
17 H  s               6.2       0.0       0.2       1.7       1.2       1.9
18 H  s               5.3       1.2       0.0       3.0       0.1       2.2
19 H  s               0.0       7.5       2.9       1.4       1.0       0.2

                     18        19        20        21        22        23   
                  -0.58034  -0.54125  -0.50870  -0.48461  -0.46925  -0.45294
                   2.00000   2.00000   2.00000   2.00000   2.00000   2.00000
                  --------  --------  --------  --------  --------  --------
 0 C  s               0.1       2.0       0.1       0.0       0.7       2.1
 0 C  pz              0.5       1.2       0.8       0.2       0.1      12.6
 0 C  px              3.3       0.4       0.2       0.2       0.6       7.4
 0 C  py              2.1       1.0       2.0       5.4       0.1       0.7
 0 C  dxz             0.1       0.0       0.0       0.0       0.0       0.2
 1 C  s               5.8       4.4       0.5       0.2       0.0       0.3
 1 C  pz              0.8       0.3       4.1       0.0       0.3       1.9
 1 C  px              1.8       2.3       3.2       2.7       6.3       4.0
 1 C  py              0.6       0.0       0.1       0.7       0.2       1.4
 1 C  dz2             0.0       0.0       0.0       0.0       0.1       0.0
 2 H  s               3.4       2.7       0.4       0.3       1.1       1.0
 3 C  s               3.3       1.8       0.2       0.2       1.1       0.0
 3 C  pz              0.9       0.4       7.4       1.8      10.5       0.0
 3 C  px              2.6       0.6       0.5       5.6       0.6       0.1
 3 C  py              2.4       0.8       5.1       2.6       0.1       5.4
 3 C  dz2             0.0       0.0       0.2       0.2       0.1       0.0
 3 C  dx2y2           0.0       0.0       0.0       0.0       0.1       0.0
 4 H  s               1.7       0.7       3.2       0.8       3.4       1.3
 5 C  s               2.7       0.5       0.7       0.0       1.0       0.2
 5 C  pz              0.0       4.1       0.9       5.4       5.9       0.3
 5 C  px              2.3       0.9       0.2       4.0       6.8       0.0
 5 C  py              3.1       1.0       8.7       0.4       2.2       5.1
 5 C  dz2             0.0       0.1       0.1       0.2       0.0       0.0
 6 H  s               1.1       0.0       3.2       0.0       6.1       1.2
 7 C  s               9.6       1.2       0.0       0.1       0.1       0.0
 7 C  pz              2.5       8.1       1.4       0.4       0.5       0.4
 7 C  px              0.4       2.2       2.3       8.0       1.6       1.0
 7 C  py              0.2       0.1       0.1       0.1       2.3       7.6
 7 C  dx2y2           0.0       0.1       0.0       0.0       0.2       0.3
 8 H  s               5.0       3.8       0.2       0.3       0.2       0.2
 9 O  s               1.6       0.8       0.9       1.2       0.5       0.0
 9 O  pz              0.4       1.8       0.1       0.2       0.1       0.9
 9 O  px              4.8       1.4       0.3       0.6       0.2      18.9
 9 O  py              2.3       0.6       2.5       6.2       0.3       0.7
10 O  s               1.3       0.2       0.2       0.1       0.0       0.4
10 O  pz              9.2       7.2       2.9       8.4       4.8       2.3
10 O  px              5.0       0.5       0.1       3.7       2.4       0.1
10 O  py              0.2       0.2       0.0       0.7       0.0       2.6
10 O  dz2             0.1       0.0       0.0       0.1       0.1       0.0
11 O  s               0.9       0.0       0.9       0.3       0.0       0.2
11 O  pz              2.5       9.3       0.5       8.8       3.3       1.2
11 O  px              0.0       1.9       0.6       3.1       1.1       0.0
11 O  py              0.1       3.8       5.2       1.9       3.6       0.6
12 O  s               0.5       0.4       0.7       0.2       0.1       0.3
12 O  pz              1.3       3.9       3.0       5.8       5.1       0.5
12 O  px              0.0       0.0       2.0       4.1       0.3       0.0
12 O  py              0.0       1.7       9.8       2.2       7.6       0.3
13 O  s               0.3       0.4       0.0       0.3       1.0       0.8
13 O  pz              3.7       8.2       8.5       0.0       2.1       2.3
13 O  px              1.1       2.1       3.5       0.7       5.3       0.6
13 O  py              0.1       0.5       1.1       0.0       0.0       0.4
14 H  s               0.4       1.7       0.6       0.1       0.3       8.1
15 H  s               0.0       0.9       0.1       1.0       0.3       2.4
16 H  s               4.4       2.0       0.8       3.4       1.8       0.5
17 H  s               0.8       4.3       1.1       3.5       1.3       0.0
18 H  s               0.2       1.6       4.0       2.8       3.6       0.0
19 H  s               1.4       2.9       4.0       0.0       1.6       0.2

                     24        25        26        27        28        29   
                  -0.43686  -0.41456  -0.40759  -0.38072  -0.37138  -0.35747
                   2.00000   2.00000   2.00000   2.00000   2.00000   2.00000
                  --------  --------  --------  --------  --------  --------
 0 C  s               0.0       0.7       0.0       0.1       0.9       0.1
 0 C  pz             11.4       0.3       0.0       8.8       2.7       1.7
 0 C  px              7.5       1.5       0.3       0.7       1.7       3.2
 0 C  py              0.2       8.7       0.5       4.1       7.2       6.3
 0 C  dz2             0.0       0.0       0.0       0.1       0.2       0.0
 0 C  dyz             0.0       0.0       0.0       0.1       0.1       0.0
 0 C  dx2y2           0.1       0.0       0.0       0.0       0.0       0.2
 0 C  dxy             0.0       0.2       0.0       0.0       0.0       0.1
 1 C  s               0.5       1.3       0.7       0.2       0.3       0.1
 1 C  pz              0.8       3.8       6.8       0.1       4.9       2.9
 1 C  px              0.7       0.6       0.8       0.1       9.5       5.7
 1 C  py              6.7       0.4       3.3       9.0       0.7       0.9
 1 C  dz2             0.1       0.0       0.2       0.0       0.2       0.0
 1 C  dxz             0.0       0.0       0.2       0.0       0.3       0.0
 1 C  dx2y2           0.0       0.1       0.0       0.0       0.1       0.3
 1 C  dxy             0.0       0.0       0.0       0.2       0.0       0.0
 2 H  s               0.0       0.8       4.0       0.0      10.4       4.5
 3 C  s               0.0       0.7       0.1       0.0       0.0       0.0
 3 C  pz              0.9       0.1       1.5       0.6       0.1       1.1
 3 C  px              2.4       0.1      12.6       0.4       1.3       4.7
 3 C  py              0.0       6.4       1.0       8.9       1.6       1.2
 3 C  dz2             0.0       0.0       0.3       0.0       0.0       0.0
 3 C  dx2y2           0.0       0.0       0.1       0.1       0.2       0.0
 3 C  dxy             0.0       0.3       0.0       0.0       0.0       0.0
 4 H  s               0.8       3.7       4.4       2.3       0.9       0.1
 5 C  s               0.3       0.5       0.1       0.6       0.3       0.0
 5 C  pz              1.4       1.8       1.6       1.0       0.2       0.1
 5 C  px              0.0       0.1      11.6       0.3       4.2       2.2
 5 C  py              1.3      12.7       0.0       0.8       1.4       0.6
 5 C  dz2             0.2       0.1       0.2       0.2       0.1       0.0
 5 C  dxz             0.0       0.0       0.1       0.0       0.0       0.1
 5 C  dxy             0.0       0.4       0.0       0.0       0.0       0.1
 6 H  s               1.5       4.6       3.2       0.0       1.4       1.2
 7 C  s               0.2       2.0       0.2       0.2       0.2       0.6
 7 C  pz             10.5       2.0       0.9      10.7       4.8       2.7
 7 C  px              1.5       1.6       0.1       1.0       0.2       0.4
 7 C  py              0.3       3.5       4.1       0.7       0.3       0.1
 7 C  dz2             0.1       0.1       0.0       0.2       0.1       0.2
 7 C  dyz             0.1       0.0       0.0       0.0       0.0       0.0
 7 C  dx2y2           0.0       0.0       0.1       0.0       0.1       0.3
 8 H  s               5.8       0.0       0.1       6.0       3.5       3.3
 9 O  s               0.9       0.6       0.2       0.3       1.2       0.0
 9 O  pz             14.2       0.9       0.4       0.3       1.3       0.3
 9 O  px              1.6       0.1       0.9       0.2       0.4       3.6
 9 O  py              0.0       0.4       0.0       3.1       7.8       0.9
10 O  s               0.3       1.5       0.7       0.4       0.2       0.6
10 O  pz              1.1       4.2       2.0       0.1       0.0       3.0
10 O  px              5.3       1.3       0.2       6.5       4.1       0.3
10 O  py              0.0       0.7       2.5       0.7       0.7       0.9
11 O  s               0.4       0.9       0.0       0.7       0.1       0.5
11 O  pz              2.1       6.6       3.9       1.1       0.1       0.5
11 O  px              0.5       0.0       1.9       2.2       3.1       0.0
11 O  py              1.7       4.8       0.2       0.7       2.2       2.8
12 O  s               0.0       0.5       0.3       1.0       0.0       2.7
12 O  pz              0.8       3.6       1.8       6.0       1.1       5.5
12 O  px              0.2       0.0       1.7       0.0       0.7       6.9
12 O  py              0.1       1.7       5.0       3.5       0.3       3.1
13 O  s               1.0       0.0       0.1       0.8       0.0       1.5
13 O  pz              0.1       2.3      10.1       0.4       6.4       3.0
13 O  px              2.0       1.7       2.2       1.4       0.1       8.2
13 O  py              3.4       0.1       0.0       6.2       0.4       0.4
13 O  dxz             0.0       0.0       0.1       0.0       0.1       0.0
14 H  s               4.4       0.0       0.0       4.4       3.3       0.6
15 H  s               1.0       6.9       0.6       0.3       3.6       6.9
16 H  s               1.1       0.8       0.3       0.4       0.2       1.1
17 H  s               1.1       0.1       0.6       1.1       0.1       0.1
18 H  s               0.1       0.0       1.3       0.0       0.1       0.6
19 H  s               0.8       0.9       3.1       0.3       1.6       0.1

                     30        31        32        33        34        35   
                  -0.34634  -0.30785  -0.29868  -0.29550  -0.27818  -0.26061
                   2.00000   2.00000   2.00000   2.00000   2.00000   2.00000
                  --------  --------  --------  --------  --------  --------
 0 C  s               0.1       0.0       0.0       0.4       0.1       0.4
 0 C  pz              1.1       0.5       0.8       5.1       1.6       0.1
 0 C  px              0.2       1.0       0.4       0.8       1.8       0.1
 0 C  py              0.1       0.0       2.4       0.4       5.5       1.6
 0 C  dz2             0.0       0.0       0.0       0.2       0.3       0.0
 0 C  dx2y2           0.0       0.0       0.0       0.1       0.1       0.0
 0 C  dxy             0.0       0.1       0.1       0.2       0.3       0.0
 1 C  s               0.7       0.5       0.2       0.1       0.0       0.0
 1 C  pz              0.2       0.2       0.1       1.5       0.2       0.2
 1 C  px              1.9       0.0       0.1       3.4       3.1       1.7
 1 C  py              1.3       0.1       3.4       1.4       1.6       0.0
 1 C  dz2             0.0       0.0       0.0       0.3       0.0       0.0
 1 C  dxz             0.0       0.0       0.0       0.3       0.3       0.1
 1 C  dyz             0.0       0.0       0.0       0.0       0.0       0.1
 2 H  s               0.5       0.3       0.0       2.0       3.1       1.0
 3 C  s               0.5       0.1       0.3       0.7       0.1       0.7
 3 C  pz              0.2       0.9       3.5       0.1       0.1       0.8
 3 C  px              0.5       0.0       1.5       0.3       0.1       0.5
 3 C  py              1.9       0.5       1.8       3.6       0.1       0.1
 3 C  dxz             0.2       0.0       0.0       0.1       0.0       0.2
 3 C  dyz             0.1       0.1       0.6       0.0       0.0       0.2
 3 C  dx2y2           0.0       0.0       0.0       0.0       0.1       0.0
 3 C  dxy             0.2       0.1       0.1       0.0       0.0       0.0
 4 H  s               1.2       1.1       3.1       0.0       1.0       1.1
 5 C  s               0.3       0.4       0.0       0.2       0.3       0.2
 5 C  pz              2.2       1.6       0.4       0.1       0.4       0.3
 5 C  px              0.6       0.1       1.9       0.1       0.1       0.4
 5 C  py              1.6       0.0       1.8       0.1       1.1       0.5
 5 C  dz2             0.0       0.1       0.1       0.0       0.0       0.0
 5 C  dxz             0.2       0.0       0.0       0.3       0.0       0.4
 5 C  dyz             0.4       0.1       0.1       0.0       0.1       0.2
 5 C  dxy             0.1       0.0       0.0       0.0       0.1       0.1
 6 H  s               2.3       1.2       0.1       0.0       2.0       3.1
 7 C  s               0.8       0.5       0.0       0.1       0.2       0.1
 7 C  pz              0.7       1.0       0.6       0.0       1.1       0.8
 7 C  px              0.9       2.2       1.7       0.1       0.3       0.3
 7 C  py              1.1       0.1       0.4       1.2       3.1       0.2
 7 C  dz2             0.0       0.4       0.1       0.0       0.3       0.1
 7 C  dxz             0.0       0.5       0.2       0.0       0.0       0.0
 7 C  dx2y2           0.1       0.0       0.0       0.0       0.1       0.1
 7 C  dxy             0.0       0.0       0.1       0.0       0.0       0.3
 8 H  s               0.2       2.4       0.9       0.0       2.6       0.9
 9 O  s               0.6       0.2       0.1       0.8       4.3       0.0
 9 O  pz              0.0       2.7       0.1       0.1      18.7       4.1
 9 O  px              3.1       0.6       1.0       0.3       3.3       0.3
 9 O  py              7.0       3.4       0.4       4.5      13.8       0.4
10 O  s               0.1       5.8       1.8       0.0       0.1       0.2
10 O  pz              0.1      16.0       2.7       0.1       0.2       0.1
10 O  px              0.0      25.8      10.8       0.0       1.9       1.1
10 O  py              0.9       0.0       0.8       1.6       5.7      16.6
11 O  s               5.8       0.7       1.1       0.1       0.2       0.0
11 O  pz              7.5       4.3       2.5       0.0       1.0       0.1
11 O  px             14.9       0.4       1.5      15.0       0.6      16.2
11 O  py             14.4       5.2       6.2       3.6       3.2       7.2
12 O  s               1.7       1.2       2.8       0.2       0.1       0.1
12 O  pz              1.0       4.3      15.0       0.1       0.0       2.1
12 O  px              9.7       5.6       2.2       2.2       0.7      10.7
12 O  py              0.6       1.5      11.2       0.0       0.0       7.0
13 O  s               0.5       0.1       0.2       4.3       1.2       0.7
13 O  pz              0.9       0.0       0.1      11.2       0.2       1.1
13 O  px              3.4       1.0       3.9      19.9       5.8       4.2
13 O  py              0.7       0.1       4.0       1.9       0.5       9.2
14 H  s               0.4       0.6       0.1       3.7       2.7       0.1
15 H  s               0.0       0.2       1.5       4.1       2.8       0.4
16 H  s               0.4       3.0       0.8       0.0       0.3       0.2
17 H  s               2.3       0.2       0.7       0.0       0.1       0.0
18 H  s               0.9       0.5       1.4       0.4       0.0       0.1
19 H  s               0.2       0.2       0.2       1.9       0.8       0.9

                     36        37        38        39        40        41   
                  -0.25000  -0.23875  -0.21612  -0.20314   0.00591   0.00873
                   2.00000   2.00000   2.00000   2.00000   0.00000   0.00000
                  --------  --------  --------  --------  --------  --------
 0 C  s               0.2       0.0       0.0       0.4       0.4       0.1
 0 C  pz              0.1       1.0       0.1       1.8       0.1       0.1
 0 C  px              0.3       1.2       0.2       0.8       0.9       0.0
 0 C  py              0.2       0.1       0.0       2.6       0.0       0.1
 0 C  dz2             0.1       0.3       0.0       0.4       0.0       0.0
 0 C  dxz             0.1       0.1       0.1       0.1       0.0       0.0
 0 C  dxy             0.1       0.0       0.0       0.4       0.0       0.0
 1 C  s               0.1       0.2       0.1       0.1       0.1       0.2
 1 C  pz              0.0       0.3       0.1       0.4       0.0       1.2
 1 C  px              0.8       1.4       1.2       0.1       0.1       0.1
 1 C  py              0.1       0.3       0.2       6.8       0.3       0.1
 1 C  dz2             0.0       0.0       0.1       0.0       0.0       0.4
 1 C  dxz             0.0       0.0       0.1       0.0       0.0       0.0
 1 C  dyz             0.3       0.0       0.3       0.6       0.1       0.1
 1 C  dx2y2           0.0       0.0       0.2       0.0       0.3       0.0
 1 C  dxy             0.2       0.0       0.1       0.2       0.0       0.0
 2 H  s               0.2       0.7       1.7       0.0       0.7       0.1
 3 C  s               0.7       0.0       0.0       0.5       1.7       0.1
 3 C  pz              0.3       0.1       0.0       0.1       0.9       4.6
 3 C  px              0.2       0.0       8.8       0.4       0.8       0.1
 3 C  py              2.5       0.3       0.2       3.1       2.3       0.5
 3 C  dz2             0.2       0.0       0.0       0.0       0.0       0.9
 3 C  dxz             0.4       0.0       0.5       0.0       0.1       0.0
 3 C  dyz             0.2       0.0       0.1       0.1       0.0       0.3
 3 C  dx2y2           0.0       0.0       0.1       0.0       0.2       0.0
 3 C  dxy             0.0       0.1       0.0       0.2       0.1       0.0
 4 H  s               1.8       0.5       2.4       2.3       9.6       0.8
 5 C  s               1.5       0.2       0.0       0.4       1.3       0.6
 5 C  pz              0.8       0.2       0.3       0.4       2.1       3.0
 5 C  px              0.9       0.2       7.7       0.7       0.5       1.0
 5 C  py              1.8       2.7       0.8       4.1       2.5       0.2
 5 C  dz2             0.1       0.0       0.0       0.0       0.2       0.9
 5 C  dxz             0.1       0.1       0.4       0.0       0.1       0.0
 5 C  dyz             0.0       0.2       0.0       0.0       0.1       0.0
 5 C  dx2y2           0.0       0.0       0.1       0.0       0.1       0.2
 5 C  dxy             0.0       0.0       0.0       0.2       0.1       0.0
 6 H  s               0.6       1.4       1.6       1.4       9.6       1.2
 7 C  s               0.0       0.2       0.0       0.1       0.2       0.1
 7 C  pz              0.3       0.2       1.0       0.9       0.5       0.2
 7 C  px              0.0       0.4       0.2       0.2       0.0       0.7
 7 C  py              0.3       1.3       0.2       1.2       0.8       0.2
 7 C  dz2             0.2       0.0       0.1       0.3       0.1       0.0
 7 C  dxz             0.0       0.1       0.0       0.0       0.0       0.1
 7 C  dyz             0.2       0.0       0.1       0.3       0.1       0.1
 7 C  dx2y2           0.1       0.0       0.2       0.3       0.1       0.1
 7 C  dxy             0.1       1.4       0.0       0.2       0.1       0.0
 8 H  s               1.8       0.1       1.0       2.1       1.6       0.2
 9 O  s               0.0       0.1       0.1       0.1       0.6       0.1
 9 O  pz             10.4       9.1       4.8      15.1       0.1       0.0
 9 O  px              1.9       3.3       0.6       2.1       0.0       0.0
 9 O  py              7.6       0.0       1.1      10.9       0.3       0.0
10 O  s               0.1       0.1       0.1       0.1       0.3       1.1
10 O  pz              0.1       1.5       0.2       0.2       0.6       0.5
10 O  px              0.0       0.2       0.3       0.2       0.0       0.3
[...]
11 O  py              0.1       0.1       0.0       0.0       0.0       0.1
11 O  dz2             0.0       0.0       0.1       0.1       0.7      25.6
11 O  dxz             1.9      10.1       2.4       1.7       0.1       0.0
11 O  dyz            19.1       8.5       0.9       1.0       1.3       0.4
11 O  dx2y2           1.7       2.4       0.0       0.0       0.1       0.0
11 O  dxy             8.2       4.3       0.5       0.0       0.1       0.1
12 O  s               0.7       0.0       0.9       0.0       0.0       1.7
12 O  pz              0.0       0.0       0.0       0.0       0.0       2.1
12 O  px              0.2       0.0       0.0       0.0       0.0       0.1
12 O  py              0.0       0.1       0.0       0.0       0.0       0.4
12 O  dz2             0.3       0.1       0.0       0.0       0.6      34.7
12 O  dxz             1.1       6.4       7.4       0.6       0.0       0.0
12 O  dyz             6.2       0.3       9.3       0.5       0.1       1.0
12 O  dx2y2           1.3       1.2       3.1       0.2       0.0       0.0
12 O  dxy             3.7       1.8       8.1       0.6       0.0       0.3
13 O  s               0.1       0.1       0.0       0.0       0.0       0.2
13 O  pz              0.0       0.0       0.0       0.0       0.0       0.4
13 O  py              0.0       0.0       0.4       0.0       0.0       0.0
13 O  dz2             0.1       0.3       0.0       0.0       0.6       5.5
13 O  dxz             8.8       7.4       2.2       0.0       0.2       0.1
13 O  dyz             1.4       1.4      15.1       0.4       0.2       0.1
13 O  dx2y2           1.4       3.1       0.6       0.5       0.0       0.0
13 O  dxy             2.1       1.2       1.5       0.4       0.1       0.0
16 H  s               0.1       1.8       0.4       0.4       0.8       0.0
17 H  s               2.4       1.9       0.0       0.0       0.0       0.2
18 H  s               0.7       0.4       1.5       0.1       0.0       0.4
19 H  s               1.0       1.0       0.1       0.1       0.0       0.1

                    156       157       158       159   
                   3.30223   3.31903   3.36991   3.42581
                   0.00000   0.00000   0.00000   0.00000
                  --------  --------  --------  --------
 0 C  s               0.0       0.3       0.1       1.1
 0 C  pz              0.0       0.1       0.0       0.2
 0 C  px              0.2       0.3       0.2       1.6
 0 C  dz2             0.0       0.0       0.0       0.4
 0 C  dxz             0.2       0.6       0.5       1.2
 0 C  dyz             0.1       0.0       0.1       0.0
 0 C  dx2y2           0.1       0.5       0.5       2.4
 0 C  dxy             0.0       0.2       0.3       0.0
 1 C  s               1.3       0.5       0.4       0.0
 1 C  pz              1.8       1.0       0.8       0.0
 1 C  dz2             5.0       2.6       2.6       0.0
 1 C  dxz             0.4       0.2       0.1       0.0
 1 C  dyz             0.6       0.1       0.1       0.0
 3 C  s               0.2       0.2       0.9       0.0
 3 C  pz              0.2       0.3       1.7       0.0
 3 C  py              0.0       0.0       0.2       0.0
 3 C  dz2             0.6       0.7       4.4       0.0
 3 C  dxz             0.6       0.1       0.0       0.0
 3 C  dyz             0.4       0.0       0.1       0.0
 5 C  s               0.6       0.0       0.6       0.0
 5 C  pz              1.5       0.1       1.1       0.0
 5 C  py              0.0       0.0       0.1       0.1
 5 C  dz2             4.4       0.1       3.3       0.1
 5 C  dyz             0.2       0.0       0.0       0.0
 5 C  dxy             0.1       0.1       0.1       0.0
 7 C  s               0.2       2.4       0.7       0.2
 7 C  pz              0.1       0.2       0.1       0.0
 7 C  px              0.1       1.3       0.3       2.9
 7 C  py              0.2       0.2       0.1       0.8
 7 C  dz2             0.2       1.5       0.3       0.1
 7 C  dxz             0.1       1.0       0.2       2.0
 7 C  dyz             0.1       0.0       0.2       0.1
 7 C  dx2y2           0.7       4.6       2.2       1.5
 7 C  dxy             0.1       0.2       0.0       6.9
 9 O  s               0.0       0.1       0.1       0.0
 9 O  px              0.1       0.3       0.1       4.6
 9 O  py              0.0       0.1       0.1       1.1
 9 O  dz2             0.0       0.3       0.1       0.6
 9 O  dxz             0.8       1.5       1.0      13.1
 9 O  dyz             0.3       1.3       0.1       1.6
 9 O  dx2y2           1.5       8.8       6.3      17.0
 9 O  dxy             0.0       0.3       0.5      20.4
10 O  s               0.1       2.5       0.6       1.3
10 O  pz              0.1       0.8       0.2       0.2
10 O  px              0.1       1.6       0.4       0.9
10 O  py              0.0       0.2       0.1       0.0
10 O  dz2             0.3       5.5       1.1       2.4
10 O  dxz             1.5       9.6       2.1       3.0
10 O  dyz             0.1       0.6       0.1       0.0
10 O  dx2y2           1.4      14.1       2.7      10.6
10 O  dxy             0.4       6.9       2.9       0.1
11 O  s               1.7       0.0       2.0       0.0
11 O  pz              1.7       0.1       1.3       0.0
11 O  py              0.1       0.0       0.0       0.0
11 O  dz2            21.7       0.3      13.3       0.2
11 O  dxz             0.9       0.2       1.4       0.0
11 O  dyz             0.4       0.3       0.0       0.0
11 O  dxy             0.1       0.2       0.0       0.0
12 O  s               0.3       0.3       2.8       0.0
12 O  pz              0.3       0.2       1.5       0.0
12 O  py              0.0       0.1       0.4       0.0
12 O  dz2             4.0       3.3      17.1       0.1
12 O  dxz             1.5       0.0       0.8       0.0
12 O  dyz             0.0       0.8       3.5       0.0
13 O  s               2.1       1.4       1.1       0.0
13 O  pz              2.1       1.1       0.8       0.0
13 O  dz2            30.3      13.9       8.8       0.0
13 O  dxz             3.5       2.2       1.9       0.0
13 O  dyz             0.3       0.3       1.2       0.0
13 O  dxy             0.1       0.0       0.2       0.1
16 H  s               0.0       0.3       0.1       0.1
17 H  s               0.3       0.1       0.1       0.0
18 H  s               0.1       0.0       0.2       0.0
19 H  s               0.4       0.2       0.1       0.0


                      *****************************
                      * MAYER POPULATION ANALYSIS *
                      *****************************

  NA   - Mulliken gross atomic population
  ZA   - Total nuclear charge
  QA   - Mulliken gross atomic charge
  VA   - Mayer's total valence
  BVA  - Mayer's bonded valence
  FA   - Mayer's free valence

  ATOM       NA         ZA         QA         VA         BVA        FA
  0 C      5.9617     6.0000     0.0383     4.0327     4.0327    -0.0000
  1 C      5.9493     6.0000     0.0507     4.0494     4.0494    -0.0000
  2 H      0.9190     1.0000     0.0810     0.9632     0.9632    -0.0000
  3 C      5.9909     6.0000     0.0091     3.9876     3.9876     0.0000
  4 H      0.9390     1.0000     0.0610     0.9662     0.9662    -0.0000
  5 C      6.0050     6.0000    -0.0050     3.9721     3.9721     0.0000
  6 H      0.9387     1.0000     0.0613     0.9675     0.9675    -0.0000
  7 C      5.7988     6.0000     0.2012     4.1491     4.1491    -0.0000
  8 H      0.9412     1.0000     0.0588     0.9866     0.9866    -0.0000
  9 O      8.3086     8.0000    -0.3086     2.1522     2.1522    -0.0000
 10 O      8.3773     8.0000    -0.3773     2.0651     2.0651    -0.0000
 11 O      8.4274     8.0000    -0.4274     2.0361     2.0361    -0.0000
 12 O      8.4056     8.0000    -0.4056     2.0086     2.0086     0.0000
 13 O      8.4325     8.0000    -0.4325     2.0107     2.0107    -0.0000
 14 H      0.9191     1.0000     0.0809     0.9711     0.9711    -0.0000
 15 H      0.8991     1.0000     0.1009     0.9625     0.9625     0.0000
 16 H      0.6954     1.0000     0.3046     0.9044     0.9044    -0.0000
 17 H      0.6902     1.0000     0.3098     0.8890     0.8890     0.0000
 18 H      0.6967     1.0000     0.3033     0.8845     0.8845     0.0000
 19 H      0.7045     1.0000     0.2955     0.9370     0.9370    -0.0000

  Mayer bond orders larger than 0.100000
B(  0-C ,  1-C ) :   1.0762 B(  0-C ,  9-O ) :   1.0080 B(  0-C , 14-H ) :   0.8904 
B(  0-C , 15-H ) :   0.9230 B(  1-C ,  2-H ) :   0.8944 B(  1-C ,  3-C ) :   0.9646 
B(  1-C , 13-O ) :   1.0615 B(  3-C ,  4-H ) :   0.9049 B(  3-C ,  5-C ) :   0.9745 
B(  3-C , 12-O ) :   1.0547 B(  5-C ,  6-H ) :   0.8907 B(  5-C ,  7-C ) :   0.9761 
B(  5-C , 11-O ) :   1.0274 B(  7-C ,  8-H ) :   0.8894 B(  7-C ,  9-O ) :   1.0190 
B(  7-C , 10-O ) :   1.1632 B( 10-O , 16-H ) :   0.8376 B( 11-O , 17-H ) :   0.8353 
B( 12-O , 18-H ) :   0.8440 B( 13-O , 19-H ) :   0.8194 

-------
TIMINGS
-------

Total SCF time: 0 days 0 hours 0 min 2 sec 

Total time                  ....       2.031 sec
Sum of individual times     ....       2.011 sec  ( 99.0%)

SCF preparation             ....       0.039 sec  (  1.9%)
Fock matrix formation       ....       1.855 sec  ( 91.3%)
  Startup                   ....       0.002 sec  (  0.1% of F)
  Split-RI-J                ....       0.936 sec  ( 50.5% of F)
  XC integration            ....       0.912 sec  ( 49.2% of F)
    Basis function eval.    ....       0.365 sec  ( 40.0% of XC)
    Density eval.           ....       0.221 sec  ( 24.2% of XC)
    XC-Functional eval.     ....       0.057 sec  (  6.3% of XC)
    XC-Potential eval.      ....       0.236 sec  ( 25.9% of XC)
Diagonalization             ....       0.000 sec  (  0.0%)
Density matrix formation    ....       0.004 sec  (  0.2%)
Total Energy calculation    ....       0.000 sec  (  0.0%)
Population analysis         ....       0.094 sec  (  4.6%)
Orbital Transformation      ....       0.005 sec  (  0.2%)
Orbital Orthonormalization  ....       0.000 sec  (  0.0%)
DIIS solution               ....       0.005 sec  (  0.2%)
  MO trafo                  ....       0.000 sec  (  0.0 % of DIIS)
  Orb grad                  ....       0.000 sec  (  0.0 % of DIIS)
  Energy W gradient         ....       0.000 sec  (  0.0 % of DIIS)
  DIIS error                ....       0.001 sec  ( 12.2 % of DIIS)
  DIIS work                 ....       0.004 sec  ( 86.5 % of DIIS)
  Form Q                    ....       0.000 sec  (  0.0 % of DIIS)
  Form QpQm                 ....       0.000 sec  (  0.0 % of DIIS)
  Exp/Cayley                ....       0.000 sec  (  0.0 % of DIIS)
  Orb update                ....       0.000 sec  (  0.0 % of DIIS)
  Wake-sleep                ....       0.000 sec  (  1.3 % of DIIS)
SOSCF solution              ....       0.010 sec  (  0.5%)
  MO trafo                  ....       0.006 sec  ( 62.0 % of SOSCF)
  Orb grad                  ....       0.000 sec  (  1.7 % of SOSCF)
  Rot update                ....       0.000 sec  (  3.1 % of SOSCF)
  Step                      ....       0.003 sec  ( 32.3 % of SOSCF)
Finished LeanSCF after   2.0 sec

Maximum memory used throughout the entire LEANSCF-calculation: 15.5 MB


-------------------------------------------------------------------------------
                          DFT DISPERSION CORRECTION                            
                                                                               
                                DFTD4 V3.4.0                                   
-------------------------------------------------------------------------------
The PBE functional is recognized
Active option DFTDOPT                   ...         5   

-------------------------   ----------------
Dispersion correction           -0.019970898
-------------------------   ----------------

------------------   -----------------
gCP correction             0.129734739
------------------   -----------------

-------------------------   --------------------
FINAL SINGLE POINT ENERGY      -571.416448288711
-------------------------   --------------------


------------------------------------------------------------------------------
                              ORCA PROPERTY CALCULATIONS
------------------------------------------------------------------------------

GBWName                                 ... sp.gbw
Number of atoms                         ...     20
Number of basis functions               ...    160
Max core memory                         ...   1024 MB

Electric properties:
Dipole moment                           ... YES
Quadrupole moment                       ...  NO
Static polarizability (Dipole/Dipole)   ...  NO
Static polarizability (Dipole/Quad.)    ...  NO
Static polarizability (Quad./Quad.)     ...  NO
Static polarizability (Velocity)        ...  NO

Atomic electric properties:
Dipole moment                           ...  NO
Quadrupole moment                       ...  NO
Static polarizability                   ...  NO

Choice of electric origin               ... Center of mass
Position of electric origin             ...     0.000008    -0.000004    -0.000007

General magnetic properties:
Magnetizability                         ...  NO

EPR properties:
g-Tensor (aka g-matrix)                 ...  NO
Zero-Field splitting spin-orbit         ...  NO
Zero-field splitting spin-spin          ...  NO
Hyperfine couplings                     ...  NO (   0 nuclei)
Quadrupole couplings                    ...  NO (   0 nuclei)
Contact density                         ...  NO (   0 nuclei)

NMR properties:
Chemical shifts                         ...  NO (   0 nuclei)
Spin-rotation constants                 ...  NO (   0 nuclei)
Spin-spin couplings                     ...  NO (   0 nuclei,    0 pairs)

Choice of magnetic origin               ... GIAO
Position of magnetic origin             ...     0.000000     0.000000     0.000000

Properties with geometric perturbations:
SCF Hessian                             ...  NO
IR spectrum                             ...  NO
VCD spectrum                            ...  NO
X-ray spectroscopy properties:
SCF XES/XAS/RIXS spectra                ...  NO


-------------
DIPOLE MOMENT
-------------

Method             : SCF
Type of density    : Electron Density
Multiplicity       :   1
Irrep              :   0
Energy             :  -571.5262121288166099 Eh
Relativity type    : 
Basis              : AO
                                X                 Y                 Z
Electronic contribution:     -1.774965598       0.924736522       1.350781727
Nuclear contribution   :      1.785075641      -2.087089563      -1.304470019
                        -----------------------------------------
Total Dipole Moment    :      0.010110043      -1.162353041       0.046311708
                        -----------------------------------------
Magnitude (a.u.)       :      1.163319208
Magnitude (Debye)      :      2.956922437



--------------------
Rotational spectrum 
--------------------
 
Rotational constants in cm-1:             0.058383             0.040962             0.039001 
Rotational constants in MHz :          1750.273033          1228.003925          1169.206237 

Dipole components along the rotational axes: 
x,y,z [a.u.] :    -0.225171    -0.941791     0.644701 
x,y,z [Debye]:    -0.572339    -2.393843     1.638698 

 

Dipole moment calculation done in   0.0 sec 

Maximum memory used throughout the entire PROP-calculation: 10.2 MB

--------------------------------
SUGGESTED CITATIONS FOR THIS RUN
--------------------------------

Below you find a list of papers that are relevant to this ORCA run
We neither can nor want to force you to cite these papers, but we appreciate if you do
You receive ORCA, which is the product of decades of hard work by many enthusiastic individuals, for free
The only thing we kindly ask in return is that you cite our papers,
We deeply appreciate it, if you show your appreciation for ORCA by not just citing the generic ORCA reference.

Please note that relegating all ORCA citations to the supporting information does *not* help us.
SI sections are not indexed - citations you put there will not count into any citation statistics
But we need these citations in order to attract the funding resources that allow us to do what we are doing

Therefore, if you are a happy ORCA user, please consider citing a few of the papers listed below in the main body of your paper

In addition to the list printed below, the program has created the file sp.bibtex that contains the list in bibtex format
You can import this file easily into all common literature databanks and citation aid programs


List of essential papers. We consider these as the minimum necessary citations

  1. Neese,F.
     Software update: the ORCA program system, version 5.0
     WIRES Comput. Molec. Sci., 2022 12(1)e1606
     doi.org/10.1002/wcms.1606

List of papers to cite with high priority. The work reported in these papers was absolutely
necessary for this run to complete.
Our perspective: the developers of density functionals and basis sets usually get cited in chemistry papers
Good! But without the algorithms to do something with them, the functionals or basis sets would not do anything.
Hence, in our opinion, the algorithm design and method developments papers are equally worthy of getting cited

  1. Neese,F.
     An improvement of the resolution of the identity approximation for the formation of the Coulomb matrix
     J. Comp. Chem., 2003 24(14)1740-1747
     doi.org/10.1002/jcc.10318
  2. Neese,F.
     The SHARK Integral Generation and Digestion System
     J. Comp. Chem., 2022  1-16
     doi.org/10.1002/jcc.26942
  3. Caldeweyher,E.; Bannwarth,C.; Grimme,S.
     Extension of the D3 dispersion coefficient model
     J. Chem. Phys., 2017 147 034112
     doi.org/10.1063/1.4993215
  4. Caldeweyher,E.; Ehlert,S.; Hansen,A.; Neugebauer,H.; Spicher,S.; Bannwarth,C.; Grimme,S.
     A generally applicable atomic-charge dependent London dispersion correction
     J. Chem. Phys., 2019 150 154122
     doi.org/10.1063/1.5090222
  5. Caldeweyher,E.; Mewes,J.; Ehlert,S.; Grimme,S.
     Extension and evaluation of the D4 London-dispersion model for periodic systems
     Phys. Chem. Chem. Phys., 2020 22(16)8499-8512
     doi.org/10.1039/D0CP00502A
  6. Wittmann,L.; Gordiy,I.; Friede,M.; Helmich-Paris,B.; Grimme,S.; Hansen,A.; Bursch,M.
     Extension of the D3 and D4 London Dispersion Corrections to the full Actinides Series
     Phys. Chem. Chem. Phys., 2024 26(32)21379-21394
     doi.org/https://doi.org/10.1039/D4CP01514B 

List of suggested additional citations. These are papers that are important in the 'surrounding' of 
of this run, or papers that preceded the highly important papers. If you like your results we are grateful for a citation.

  1. Neese,F.
     The ORCA program system
     WIRES Comput. Molec. Sci., 2012 2(1)73-78
     doi.org/10.1002/wcms.81
  2. Neese,F.
     Software update: the ORCA program system, version 4.0
     WIRES Comput. Molec. Sci., 2018 8(1)1-6
     doi.org/10.1002/wcms.1327
  3. Neese,F.; Wennmohs,F.; Becker,U.; Riplinger,C.
     The ORCA quantum chemistry program package
     J. Chem. Phys., 2020 152 Art. No. L224108
     doi.org/10.1063/5.0004608

List of optional additional citations

  1. Neese,F.
     Approximate second-order SCF convergence for spin unrestricted wavefunctions
     Chem. Phys. Lett., 2000 325(1-3)93-98
     doi.org/10.1016/s0009-2614(00)00662-x

Timings for individual modules:

Sum of individual times          ...        2.671 sec (=   0.045 min)
Startup calculation              ...        0.493 sec (=   0.008 min)  18.5 %
SCF iterations                   ...        2.122 sec (=   0.035 min)  79.4 %
Property calculations            ...        0.056 sec (=   0.001 min)   2.1 %
                             ****ORCA TERMINATED NORMALLY****
TOTAL RUN TIME: 0 days 0 hours 0 minutes 2 seconds 829 msec
