      -----------------------------------------------------------      
     |                   =====================                   |     
     |                           x T B                           |     
     |                   =====================                   |     
     |                         S. Grimme                         |     
     |          Mulliken Center for Theoretical Chemistry        |     
     |                    University of Bonn                     |     
      -----------------------------------------------------------      

   * xtb version 6.7.1 (41059b4) compiled by 'michael@archlinux' on 2025-03-24

   xtb is free software: you can redistribute it and/or modify it under
   the terms of the GNU Lesser General Public License as published by
   the Free Software Foundation, either version 3 of the License, or
   (at your option) any later version.
   
   xtb is distributed in the hope that it will be useful,
   but WITHOUT ANY WARRANTY; without even the implied warranty of
   MERCHANTABILITY or FITNESS FOR A PARTICULAR PURPOSE.  See the
   GNU Lesser General Public License for more details.
   
   Cite this work as:
   * C. Bannwarth, E. Caldeweyher, S. Ehlert, A. Hansen, P. Pracht,
     J. Seibert, S. Spicher, S. Grimme, WIREs Comput. Mol. Sci., 2020, 11,
     e01493. DOI: 10.1002/wcms.1493
   
   for GFN2-xTB:
   * C. Bannwarth, S. Ehlert and S. Grimme., J. Chem. Theory Comput., 2019,
     15, 1652-1671. DOI: 10.1021/acs.jctc.8b01176
   for GFN1-xTB:
   * S. Grimme, C. Bannwarth, P. Shushkov, J. Chem. Theory Comput., 2017,
     13, 1989-2009. DOI: 10.1021/acs.jctc.7b00118
   for GFN0-xTB:
   * P. Pracht, E. Caldeweyher, S. Ehlert, S. Grimme, ChemRxiv, 2019, preprint.
     DOI: 10.26434/chemrxiv.8326202.v1
   for GFN-FF:
   * S. Spicher and S. Grimme, Angew. Chem. Int. Ed., 2020, 59, 15665-15673.
     DOI: 10.1002/anie.202004239
   
   for ALPB and GBSA implicit solvation:
   * S. Ehlert, M. Stahn, S. Spicher, S. Grimme, J. Chem. Theory Comput.,
     2021, 17, 4250-4261. DOI: 10.1021/acs.jctc.1c00471
   
   for ddCOSMO and CPCM-X implicit solvation:
   * M. Stahn, S. Ehlert, S. Grimme, J. Phys. Chem. A,
     2023, XX, XXXX-XXXX. DOI: 10.1021/acs.jpca.3c04382
   
   for DFT-D4:
   * E. Caldeweyher, C. Bannwarth and S. Grimme, J. Chem. Phys., 2017,
     147, 034112. DOI: 10.1063/1.4993215
   * E. Caldeweyher, S. Ehlert, A. Hansen, H. Neugebauer, S. Spicher,
     C. Bannwarth and S. Grimme, J. Chem. Phys., 2019, 150, 154122.
     DOI: 10.1063/1.5090222
   * E. Caldeweyher, J.-M. Mewes, S. Ehlert and S. Grimme, Phys. Chem. Chem. Phys.
     2020, 22, 8499-8512. DOI: 10.1039/D0CP00502A
   
   for sTDA-xTB:
   * S. Grimme and C. Bannwarth, J. Chem. Phys., 2016, 145, 054103.
     DOI: 10.1063/1.4959605
   
   in the mass-spec context:
   * V. Asgeirsson, C. Bauer and S. Grimme, Chem. Sci., 2017, 8, 4879.
     DOI: 10.1039/c7sc00601b
   * J. Koopman and S. Grimme, ACS Omega 2019, 4, 12, 15120-15133.
     DOI: 10.1021/acsomega.9b02011
   
   for metadynamics refer to:
   * S. Grimme, J. Chem. Theory Comput., 2019, 155, 2847-2862
     DOI: 10.1021/acs.jctc.9b00143
   
   for SPH calculations refer to:
   * S. Spicher and S. Grimme, J. Chem. Theory Comput., 2021, 17, 1701-1714
     DOI: 10.1021/acs.jctc.0c01306
   
   for ONIOM refer to:
   * C. Plett, A. Katbashev, S. Ehlert, S. Grimme, M. Bursch,
     Phys. Chem. Chem. Phys., 2023, 25, 17860-17868. DOI: 10.1039/D3CP02178E
   
   for DIPRO refer to:
   * J. Kohn, N. Gildemeister, S. Grimme, D. Fazzi, A. Hansen,
     J. Chem. Phys., 2023, just accepted.
   
   for PTB refer to:
   * S. Grimme, M. Mueller, A. Hansen, J. Chem. Phys., 2023, 158, 124111.
     DOI: 10.1063/5.0137838
   
   with help from (in alphabetical order)
   P. Atkinson, C. Bannwarth, F. Bohle, G. Brandenburg, E. Caldeweyher
   M. Checinski, S. Dohm, S. Ehlert, S. Ehrlich, I. Gerasimov, C. Hölzer
   A. Katbashev, J. Kohn, J. Koopman, C. Lavigne, S. Lehtola, F. März, M. Müller,
   F. Musil, H. Neugebauer, J. Pisarek, C. Plett, P. Pracht, F. Pultar,
   J. Seibert, P. Shushkov, S. Spicher, M. Stahn, M. Steiner, T. Strunk,
   J. Stückrath, T. Rose, and J. Unsleber
   
 * started run on 2025/04/09 at 04:34:20.347     
   ID    Z sym.   atoms
    1    6 C      1-16
    2    1 H      17-26

           -------------------------------------------------
          |                Calculation Setup                |
           -------------------------------------------------

          program call               : /usr/bin/xtb xtb_rrho.coord --gfn2 --ohess vtight --chrg 0 --enso --norestart -I rrho-xcontrol-inp --parallel 1
          coordinate file            : xtb_rrho.coord
          omp threads                :                     1


           -------------------------------------------------
          |                 G F N 2 - x T B                 |
           -------------------------------------------------

        Reference                      10.1021/acs.jctc.8b01176
      * Hamiltonian:
        H0-scaling (s, p, d)           1.850000    2.230000    2.230000
        zeta-weighting                 0.500000
      * Dispersion:
        s8                             2.700000
        a1                             0.520000
        a2                             5.000000
        s9                             5.000000
      * Repulsion:
        kExp                           1.500000    1.000000
        rExp                           1.000000
      * Coulomb:
        alpha                          2.000000
        third order                    shell-resolved
        anisotropic                    true
        a3                             3.000000
        a5                             4.000000
        cn-shift                       1.200000
        cn-exp                         4.000000
        max-rad                        5.000000


          ...................................................
          :                      SETUP                      :
          :.................................................:
          :  # basis functions                  74          :
          :  # atomic orbitals                  74          :
          :  # shells                           42          :
          :  # electrons                        74          :
          :  max. iterations                   250          :
          :  Hamiltonian                  GFN2-xTB          :
          :  restarted?                      false          :
          :  GBSA solvation                  false          :
          :  PC potential                    false          :
          :  electronic temp.          300.0000000     K    :
          :  accuracy                    1.0000000          :
          :  -> integral cutoff          0.2500000E+02      :
          :  -> integral neglect         0.1000000E-07      :
          :  -> SCF convergence          0.1000000E-05 Eh   :
          :  -> wf. convergence          0.1000000E-03 e    :
          :  Broyden damping             0.4000000          :
          :  net charge                          0          :
          :  unpaired electrons                  0          :
          ...................................................

 iter      E             dE          RMSdq      gap      omega  full diag
   1    -40.1101876 -0.401102E+02  0.492E+00    2.40       0.0  T
   2    -40.1279100 -0.177224E-01  0.293E+00    2.40       1.0  T
   3    -40.1168686  0.110414E-01  0.771E-01    2.39       1.0  T
   4    -40.1302927 -0.134241E-01  0.207E-01    2.39       1.0  T
   5    -40.1312746 -0.981853E-03  0.464E-02    2.39       1.0  T
   6    -40.1313020 -0.273857E-04  0.241E-02    2.39       1.0  T
   7    -40.1313027 -0.777479E-06  0.474E-03    2.39       4.1  T
   8    -40.1313031 -0.349383E-06  0.855E-04    2.39      22.9  T
   9    -40.1313031 -0.135859E-07  0.311E-04    2.39      63.0  T

   *** convergence criteria satisfied after 9 iterations ***

         #    Occupation            Energy/Eh            Energy/eV
      -------------------------------------------------------------
         1        2.0000           -0.6512078             -17.7203
       ...           ...                  ...                  ...
        31        2.0000           -0.4299725             -11.7001
        32        2.0000           -0.4163003             -11.3281
        33        2.0000           -0.4079384             -11.1006
        34        2.0000           -0.4040875             -10.9958
        35        2.0000           -0.4039310             -10.9915
        36        2.0000           -0.3889103             -10.5828
        37        2.0000           -0.3638944              -9.9021 (HOMO)
        38                         -0.2761596              -7.5147 (LUMO)
        39                         -0.2417964              -6.5796
        40                         -0.2210284              -6.0145
        41                         -0.2011326              -5.4731
        42                         -0.1818973              -4.9497
       ...                                ...                  ...
        74                          0.7106493              19.3378
      -------------------------------------------------------------
                  HL-Gap            0.0877347 Eh            2.3874 eV
             Fermi-level           -0.3200270 Eh           -8.7084 eV

 SCC (total)                   0 d,  0 h,  0 min,  0.017 sec
 SCC setup                      ...        0 min,  0.000 sec (  0.674%)
 Dispersion                     ...        0 min,  0.000 sec (  1.432%)
 classical contributions        ...        0 min,  0.000 sec (  0.233%)
 integral evaluation            ...        0 min,  0.003 sec ( 16.331%)
 iterations                     ...        0 min,  0.007 sec ( 40.049%)
 molecular gradient             ...        0 min,  0.007 sec ( 40.681%)
 printout                       ...        0 min,  0.000 sec (  0.551%)

         :::::::::::::::::::::::::::::::::::::::::::::::::::::
         ::                     SUMMARY                     ::
         :::::::::::::::::::::::::::::::::::::::::::::::::::::
         :: total energy             -39.378230747992 Eh    ::
         :: gradient norm              0.016854894899 Eh/a0 ::
         :: HOMO-LUMO gap              2.387384025905 eV    ::
         ::.................................................::
         :: SCC energy               -40.131179906773 Eh    ::
         :: -> isotropic ES            0.001214436792 Eh    ::
         :: -> anisotropic ES          0.004120231671 Eh    ::
         :: -> anisotropic XC          0.024191601881 Eh    ::
         :: -> dispersion             -0.031278006411 Eh    ::
         :: repulsion energy           0.752949158781 Eh    ::
         :: add. restraining           0.000000000000 Eh    ::
         :: total charge               0.000000000000 e     ::
         :::::::::::::::::::::::::::::::::::::::::::::::::::::

      ----------------------------------------------------------- 
     |                   =====================                   |
     |                        A N C O P T                        |
     |                   =====================                   |
     |               Approximate Normal Coordinate               |
     |                Rational Function Optimizer                |
      ----------------------------------------------------------- 

          ...................................................
          :                      SETUP                      :
          :.................................................:
          :   optimization level         verytight          :
          :   max. optcycles                   520          :
          :   ANC micro-cycles                  20          :
          :   degrees of freedom                72          :
          :.................................................:
          :   RF solver                   davidson          :
          :   write xtbopt.log                true          :
          :   linear?                        false          :
          :   energy convergence         0.1000000E-06 Eh   :
          :   grad. convergence          0.2000000E-03 Eh/α :
          :   maximum RF displ.          1.0000000          :
          :   Hlow (freq-cutoff)         0.1000000E-01      :
          :   Hmax (freq-cutoff)         5.0000000          :
          :   S6 in model hess.         20.0000000          :
          ...................................................

generating ANC from exact Hessian ...
Using Lindh-Hessian (1995)
 Shifting diagonal of input Hessian by    7.4405154799676585E-003
 Lowest  eigenvalues of input Hessian
    0.000000    0.000000    0.000000    0.000000    0.000000    0.000000
    0.010000    0.011995    0.015062    0.015667    0.019406    0.023360
    0.027079    0.027444    0.034409    0.034468    0.042802    0.050371
 Highest eigenvalues
    1.860072    1.895366    1.935378    2.015364    2.048157    2.114938


........................................................................
.............................. CYCLE    1 ..............................
........................................................................

 iter      E             dE          RMSdq      gap      omega  full diag
   1    -40.1313031 -0.401313E+02  0.138E-04    2.39       0.0  T
   2    -40.1313031 -0.127507E-09  0.824E-05    2.39     238.1  T
   3    -40.1313031 -0.471587E-10  0.465E-05    2.39     421.8  T
     SCC iter.                  ...        0 min,  0.003 sec
     gradient                   ...        0 min,  0.007 sec
 * total energy  :   -39.3782307 Eh     change       -0.4617817E-09 Eh
   gradient norm :     0.0168554 Eh/α   predicted     0.0000000E+00 (-100.00%)
   displ. norm   :     0.1077609 α      lambda       -0.1461443E-02
   maximum displ.:     0.0836233 α      in ANC's #29, #20, #14, ...

........................................................................
.............................. CYCLE    2 ..............................
........................................................................

 iter      E             dE          RMSdq      gap      omega  full diag
   1    -40.1571672 -0.401572E+02  0.861E-02    2.42       0.0  T
   2    -40.1571677 -0.575321E-06  0.516E-02    2.42       1.0  T
   3    -40.1571671  0.671134E-06  0.679E-03    2.42       2.9  T
   4    -40.1571679 -0.851603E-06  0.129E-03    2.42      15.2  T
   5    -40.1571679 -0.573220E-08  0.709E-04    2.42      27.6  T
   6    -40.1571679 -0.533249E-08  0.241E-04    2.42      81.2  T
     SCC iter.                  ...        0 min,  0.005 sec
     gradient                   ...        0 min,  0.007 sec
 * total energy  :   -39.3791029 Eh     change       -0.8721408E-03 Eh
   gradient norm :     0.0041113 Eh/α   predicted    -0.7447861E-03 ( -14.60%)
   displ. norm   :     0.0257241 α      lambda       -0.6598256E-04
   maximum displ.:     0.0164495 α      in ANC's #29, #20, #14, ...

........................................................................
.............................. CYCLE    3 ..............................
........................................................................

 iter      E             dE          RMSdq      gap      omega  full diag
   1    -40.1628525 -0.401629E+02  0.197E-02    2.43       0.0  T
   2    -40.1628525 -0.280996E-07  0.119E-02    2.43       1.7  T
   3    -40.1628524  0.102062E-06  0.200E-03    2.43       9.8  T
   4    -40.1628525 -0.118937E-06  0.280E-04    2.43      70.1  T
   5    -40.1628525 -0.238877E-09  0.167E-04    2.43     117.8  T
     SCC iter.                  ...        0 min,  0.004 sec
     gradient                   ...        0 min,  0.007 sec
 * total energy  :   -39.3791374 Eh     change       -0.3448512E-04 Eh
   gradient norm :     0.0013764 Eh/α   predicted    -0.3310750E-04 (  -3.99%)
   displ. norm   :     0.0050314 α      lambda       -0.2023650E-05
   maximum displ.:     0.0030695 α      in ANC's #26, #20, #14, ...

........................................................................
.............................. CYCLE    4 ..............................
........................................................................

 iter      E             dE          RMSdq      gap      omega  full diag
   1    -40.1629445 -0.401629E+02  0.490E-03    2.43       0.0  T
   2    -40.1629445 -0.487632E-08  0.290E-03    2.43       6.8  T
   3    -40.1629445  0.113027E-07  0.595E-04    2.43      33.0  T
   4    -40.1629445 -0.136519E-07  0.912E-05    2.43     215.1  T
     SCC iter.                  ...        0 min,  0.003 sec
     gradient                   ...        0 min,  0.007 sec
 * total energy  :   -39.3791393 Eh     change       -0.1965078E-05 Eh
   gradient norm :     0.0004009 Eh/α   predicted    -0.1055702E-05 ( -46.28%)
   displ. norm   :     0.0023449 α      lambda       -0.3194145E-06
   maximum displ.:     0.0016650 α      in ANC's #29, #26, #66, ...

........................................................................
.............................. CYCLE    5 ..............................
........................................................................

 iter      E             dE          RMSdq      gap      omega  full diag
   1    -40.1626176 -0.401626E+02  0.237E-03    2.43       0.0  T
   2    -40.1626176 -0.920778E-09  0.138E-03    2.43      14.2  T
   3    -40.1626176  0.536637E-09  0.198E-04    2.43      98.9  T
   4    -40.1626176 -0.800647E-09  0.373E-05    2.43     525.4  T
     SCC iter.                  ...        0 min,  0.003 sec
     gradient                   ...        0 min,  0.007 sec
 * total energy  :   -39.3791396 Eh     change       -0.2306430E-06 Eh
   gradient norm :     0.0000597 Eh/α   predicted    -0.1729650E-06 ( -25.01%)
   displ. norm   :     0.0004682 α      lambda       -0.4625917E-08
   maximum displ.:     0.0003598 α      in ANC's #29, #20, #14, ...

........................................................................
.............................. CYCLE    6 ..............................
........................................................................

 iter      E             dE          RMSdq      gap      omega  full diag
   1    -40.1627284 -0.401627E+02  0.377E-04    2.43       0.0  T
   2    -40.1627284 -0.208757E-10  0.226E-04    2.43      86.9  T
   3    -40.1627284  0.787637E-10  0.605E-05    2.43     324.2  T
     SCC iter.                  ...        0 min,  0.003 sec
     gradient                   ...        0 min,  0.007 sec
 * total energy  :   -39.3791396 Eh     change       -0.8491305E-08 Eh
   gradient norm :     0.0000231 Eh/α   predicted    -0.6877473E-08 ( -19.01%)
   displ. norm   :     0.0001310 α      lambda        0.2864109E-08
   maximum displ.:     0.0001130 α      in ANC's #26, #29, #14, ...

   *** GEOMETRY OPTIMIZATION CONVERGED AFTER 6 ITERATIONS ***

------------------------------------------------------------------------
 total energy gain   :        -0.0009088 Eh       -0.5703 kcal/mol
 total RMSD          :         0.0262823 a0        0.0139 Å
 total power (kW/mol):        -0.3976891 (step)  -28.7311 (real)
------------------------------------------------------------------------

 ANCopt (total)                0 d,  0 h,  0 min,  0.083 sec
 optimizer setup                ...        0 min,  0.000 sec (  0.055%)
 model hessian                  ...        0 min,  0.002 sec (  2.269%)
 ANC generation                 ...        0 min,  0.000 sec (  0.509%)
 coordinate transformation      ...        0 min,  0.000 sec (  0.044%)
 single point calculation       ...        0 min,  0.080 sec ( 96.170%)
 optimization log               ...        0 min,  0.000 sec (  0.445%)
 hessian update                 ...        0 min,  0.000 sec (  0.044%)
 rational function              ...        0 min,  0.000 sec (  0.280%)

================
 final structure:
================
$coord
        6.60918978139462       -0.00000642873095       -0.00000356595997      C
        5.31532514121798       -2.27066235844368       -0.00000106986534      C
        2.67857985724704       -2.31699063804284        0.00000226259611      C
        1.27820119142144       -4.62052962282167        0.00000514577688      C
       -1.27820673642312       -4.62052749909856        0.00000496670712      C
       -2.67858161495498       -2.31698637363908        0.00000137329859      C
       -5.31532672451390       -2.27065384401926       -0.00000300000236      C
       -6.60918776111763        0.00000408409927       -0.00000736294628      C
       -5.31532310970381        2.27065995951516       -0.00000574077739      C
       -2.67857793199943        2.31698829760955       -0.00000087440357      C
       -1.33731633106497       -0.00000010558180        0.00000134256117      C
        1.33731824989367       -0.00000223294339        0.00000212069403      C
        2.67858354551896        2.31698404039512        0.00000134913672      C
        5.31532875020744        2.27065156461371       -0.00000153530252      C
        1.27820853990047        4.62052525417095        0.00000275605845      C
       -1.27819938539351        4.62052719706087        0.00000144198820      C
        8.65124730647823       -0.00000804480185       -0.00000692320065      H
        6.34309065561877       -4.03563252474629       -0.00000222370003      H
        2.32131369168872       -6.37717651108701        0.00000756782447      H
       -2.32132191759293       -6.37717281960067        0.00000737805508      H
       -6.34309505519364       -4.03562246656690       -0.00000363664490      H
       -8.65124534865138        0.00000571597253       -0.00001196601700      H
       -6.34308864526923        4.03563020967799       -0.00000856688928      H
        6.34309708342298        4.03562008941550       -0.00000260332518      H
        2.32132383909117        6.37717048064399        0.00000439546876      H
       -2.32131177670310        6.37717417441188        0.00000186439838      H
$end

 Bond Distances (Angstroems)
 ---------------------------
C1-C2=1.3830         C1-C14=1.3830        C1-H17=1.0806        C2-C1=1.3830         C2-C3=1.3955         C2-H18=1.0808        
C3-C2=1.3955         C3-C4=1.4266         C3-C12=1.4167        C4-C3=1.4266         C4-C5=1.3528         C4-H19=1.0811        
C5-C4=1.3528         C5-C6=1.4266         C5-H20=1.0811        C6-C5=1.4266         C6-C7=1.3955         C6-C11=1.4167        
C7-C6=1.3955         C7-C8=1.3830         C7-H21=1.0808        C8-C7=1.3830         C8-C9=1.3830         C8-H22=1.0806        
C9-C8=1.3830         C9-C10=1.3955        C9-H23=1.0808        C10-C9=1.3955        C10-C11=1.4167       C10-C16=1.4266       
C11-C6=1.4167        C11-C10=1.4167       C11-C12=1.4154       C12-C3=1.4167        C12-C11=1.4154       C12-C13=1.4167       
C13-C12=1.4167       C13-C14=1.3955       C13-C15=1.4266       C14-C1=1.3830        C14-C13=1.3955       C14-H24=1.0808       
C15-C13=1.4266       C15-C16=1.3528       C15-H25=1.0811       C16-C10=1.4266       C16-C15=1.3528       C16-H26=1.0811       
H17-C1=1.0806        H18-C2=1.0808        H19-C4=1.0811        H20-C5=1.0811        H21-C7=1.0808        H22-C8=1.0806        
H23-C9=1.0808        H24-C14=1.0808       H25-C15=1.0811       H26-C16=1.0811       
 C  H  Rav=1.0809 sigma=0.0002  Rmin=1.0806  Rmax=1.0811    10
 C  C  Rav=1.4004 sigma=0.0228  Rmin=1.3528  Rmax=1.4266    19

 selected bond angles (degree)
 --------------------
C14-C1-C2=120.65               H17-C1-C2=119.68               H17-C1-C14=119.68              C3-C2-C1=120.68                
H18-C2-C1=120.11               H18-C2-C3=119.21               C4-C3-C2=122.30                C12-C3-C2=119.06               
C12-C3-C4=118.64               C5-C4-C3=121.30                H19-C4-C3=118.00               H19-C4-C5=120.70               
C6-C5-C4=121.30                H20-C5-C4=120.70               H20-C5-C6=118.00               C7-C6-C5=122.30                
C11-C6-C5=118.64               C11-C6-C7=119.06               C8-C7-C6=120.68                H21-C7-C6=119.21               
H21-C7-C8=120.11               C9-C8-C7=120.65                H22-C8-C7=119.68               H22-C8-C9=119.68               
C10-C9-C8=120.68               H23-C9-C8=120.11               H23-C9-C10=119.21              C11-C10-C9=119.06              
C16-C10-C9=122.30              C16-C10-C11=118.64             

 selected dihedral angles (degree)
 ---------------------------------
C3-C2-C1-C14=  0.00           C3-C2-C1-H17=180.00           H18-C2-C1-C14=180.00          H18-C2-C1-H17=  0.00          
C4-C3-C2-C1=180.00            C4-C3-C2-H18=  0.00           C12-C3-C2-C1=  0.00           C12-C3-C2-H18=180.00          
C5-C4-C3-C2=180.00            C5-C4-C3-C12=  0.00           H19-C4-C3-C2=  0.00           H19-C4-C3-C12=180.00          
C6-C5-C4-C3=  0.00            C6-C5-C4-H19=180.00           H20-C5-C4-C3=180.00           H20-C5-C4-H19=  0.00          
C7-C6-C5-C4=180.00            C7-C6-C5-H20=  0.00           C11-C6-C5-C4=  0.00           C11-C6-C5-H20=180.00          
C8-C7-C6-C5=180.00            C8-C7-C6-C11=  0.00           H21-C7-C6-C5=  0.00           H21-C7-C6-C11=180.00          
C9-C8-C7-C6=  0.00            C9-C8-C7-H21=180.00           H22-C8-C7-C6=180.00           H22-C8-C7-H21=  0.00          
C10-C9-C8-C7=  0.00           C10-C9-C8-H22=180.00          H23-C9-C8-C7=180.00           H23-C9-C8-H22=  0.00          
C11-C10-C9-C8=  0.00          C11-C10-C9-H23=180.00         C16-C10-C9-C8=180.00          C16-C10-C9-H23=  0.00         
           -------------------------------------------------
          |                Final Singlepoint                |
           -------------------------------------------------

          ...................................................
          :                      SETUP                      :
          :.................................................:
          :  # basis functions                  74          :
          :  # atomic orbitals                  74          :
          :  # shells                           42          :
          :  # electrons                        74          :
          :  max. iterations                   250          :
          :  Hamiltonian                  GFN2-xTB          :
          :  restarted?                      false          :
          :  GBSA solvation                  false          :
          :  PC potential                    false          :
          :  electronic temp.          300.0000000     K    :
          :  accuracy                    1.0000000          :
          :  -> integral cutoff          0.2500000E+02      :
          :  -> integral neglect         0.1000000E-07      :
          :  -> SCF convergence          0.1000000E-05 Eh   :
          :  -> wf. convergence          0.1000000E-03 e    :
          :  Broyden damping             0.4000000          :
          :  net charge                          0          :
          :  unpaired electrons                  0          :
          ...................................................

 iter      E             dE          RMSdq      gap      omega  full diag
   1    -40.1627284 -0.401627E+02  0.128E-05    2.43       0.0  T
   2    -40.1627284  0.213163E-13  0.121E-05    2.43    1618.0  T
   3    -40.1627284 -0.317613E-11  0.259E-06    2.43    7573.1  T

   *** convergence criteria satisfied after 3 iterations ***

         #    Occupation            Energy/Eh            Energy/eV
      -------------------------------------------------------------
         1        2.0000           -0.6531962             -17.7744
       ...           ...                  ...                  ...
        31        2.0000           -0.4313744             -11.7383
        32        2.0000           -0.4171952             -11.3525
        33        2.0000           -0.4075220             -11.0892
        34        2.0000           -0.4049268             -11.0186
        35        2.0000           -0.4035697             -10.9817
        36        2.0000           -0.3898948             -10.6096
        37        2.0000           -0.3645363              -9.9195 (HOMO)
        38                         -0.2752616              -7.4902 (LUMO)
        39                         -0.2403466              -6.5402
        40                         -0.2195577              -5.9745
        41                         -0.1997041              -5.4342
        42                         -0.1795350              -4.8854
       ...                                ...                  ...
        74                          0.7327842              19.9401
      -------------------------------------------------------------
                  HL-Gap            0.0892747 Eh            2.4293 eV
             Fermi-level           -0.3198989 Eh           -8.7049 eV

 SCC (total)                   0 d,  0 h,  0 min,  0.013 sec
 SCC setup                      ...        0 min,  0.000 sec (  0.631%)
 Dispersion                     ...        0 min,  0.000 sec (  0.623%)
 classical contributions        ...        0 min,  0.000 sec (  0.231%)
 integral evaluation            ...        0 min,  0.003 sec ( 20.368%)
 iterations                     ...        0 min,  0.003 sec ( 21.150%)
 molecular gradient             ...        0 min,  0.007 sec ( 56.466%)
 printout                       ...        0 min,  0.000 sec (  0.469%)

         :::::::::::::::::::::::::::::::::::::::::::::::::::::
         ::                     SUMMARY                     ::
         :::::::::::::::::::::::::::::::::::::::::::::::::::::
         :: total energy             -39.379139578674 Eh    ::
         :: gradient norm              0.000023086486 Eh/a0 ::
         :: HOMO-LUMO gap              2.429287979259 eV    ::
         ::.................................................::
         :: SCC energy               -40.162603194899 Eh    ::
         :: -> isotropic ES            0.001299662879 Eh    ::
         :: -> anisotropic ES          0.003967743816 Eh    ::
         :: -> anisotropic XC          0.023326220222 Eh    ::
         :: -> dispersion             -0.031441070199 Eh    ::
         :: repulsion energy           0.783463616225 Eh    ::
         :: add. restraining           0.000000000000 Eh    ::
         :: total charge               0.000000000000 e     ::
         :::::::::::::::::::::::::::::::::::::::::::::::::::::

           ------------------------------------------------- 
          |                Numerical Hessian                |
           ------------------------------------------------- 
step length          :   0.00500
SCC accuracy         :   0.30000
Hessian scale factor :   1.00000
frozen atoms in %    :   0.00000    0
RMS gradient         :   0.00002
estimated CPU  time      0.04 min
estimated wall time      0.04 min

writing file <hessian>, containing the non-mass-weighted Hessian matrix in atomic units (Eₕ/Bohr²).

 projected vibrational frequencies (cm⁻¹)
eigval :       -0.00    -0.00    -0.00    -0.00     0.00     0.00
eigval :       86.92   134.60   202.04   219.06   239.43   349.10
eigval :      358.35   392.00   440.22   452.59   472.92   487.53
eigval :      488.40   497.57   513.45   541.62   626.48   649.73
eigval :      679.14   680.04   719.68   757.64   758.57   777.32
eigval :      798.74   804.85   830.42   845.28   882.21   889.97
eigval :      918.86   920.50   923.00   927.44   991.91   995.34
eigval :     1107.92  1115.99  1132.35  1157.71  1172.63  1196.40
eigval :     1199.97  1219.16  1226.93  1239.27  1270.28  1325.25
eigval :     1327.55  1361.06  1391.49  1405.78  1419.42  1419.70
eigval :     1449.67  1489.61  1497.10  1559.91  1563.88  1585.80
eigval :     1607.14  1607.72  3063.43  3063.46  3068.05  3068.64
eigval :     3073.14  3074.80  3077.74  3077.99  3084.86  3086.72
           -------------------------------------------------
          |                Property Printout                |
           -------------------------------------------------

    * Orbital Energies and Occupations

         #    Occupation            Energy/Eh            Energy/eV
      -------------------------------------------------------------
         1        2.0000           -0.6531962             -17.7744
       ...           ...                  ...                  ...
        25        2.0000           -0.4615679             -12.5599
        26        2.0000           -0.4600255             -12.5179
        27        2.0000           -0.4572821             -12.4433
        28        2.0000           -0.4546594             -12.3719
        29        2.0000           -0.4369321             -11.8895
        30        2.0000           -0.4347833             -11.8311
        31        2.0000           -0.4313744             -11.7383
        32        2.0000           -0.4171951             -11.3525
        33        2.0000           -0.4075220             -11.0892
        34        2.0000           -0.4049268             -11.0186
        35        2.0000           -0.4035696             -10.9817
        36        2.0000           -0.3898948             -10.6096
        37        2.0000           -0.3645363              -9.9195 (HOMO)
        38                         -0.2752616              -7.4902 (LUMO)
        39                         -0.2403466              -6.5402
        40                         -0.2195577              -5.9745
        41                         -0.1997040              -5.4342
        42                         -0.1795350              -4.8854
        43                         -0.1246681              -3.3924
        44                         -0.0978403              -2.6624
        45                         -0.0239246              -0.6510
        46                          0.0998030               2.7158
        47                          0.1133592               3.0847
        48                          0.1270734               3.4578
       ...                                ...                  ...
        74                          0.7327842              19.9401
      -------------------------------------------------------------
                  HL-Gap            0.0892747 Eh            2.4293 eV
             Fermi-level           -0.3198989 Eh           -8.7049 eV

     #   Z          covCN         q      C6AA      α(0)
     1   6          2.914    -0.030    28.760     8.794
     2   6          2.920    -0.037    28.917     8.818
     3   6          2.982     0.011    27.754     8.642
     4   6          2.913    -0.036    28.895     8.815
     5   6          2.913    -0.036    28.895     8.815
     6   6          2.982     0.011    27.754     8.642
     7   6          2.920    -0.037    28.917     8.818
     8   6          2.914    -0.030    28.760     8.794
     9   6          2.920    -0.037    28.917     8.818
    10   6          2.982     0.011    27.754     8.642
    11   6          2.998     0.003    27.942     8.671
    12   6          2.998     0.003    27.942     8.671
    13   6          2.982     0.011    27.754     8.642
    14   6          2.920    -0.037    28.917     8.818
    15   6          2.913    -0.036    28.895     8.815
    16   6          2.913    -0.036    28.895     8.815
    17   1          0.926     0.029     2.597     2.520
    18   1          0.926     0.030     2.585     2.514
    19   1          0.926     0.030     2.581     2.512
    20   1          0.926     0.030     2.581     2.512
    21   1          0.926     0.030     2.585     2.514
    22   1          0.926     0.029     2.597     2.520
    23   1          0.926     0.030     2.585     2.514
    24   1          0.926     0.030     2.585     2.514
    25   1          0.926     0.030     2.581     2.512
    26   1          0.926     0.030     2.581     2.512

 Mol. C6AA /au·bohr⁶  :      10291.109921
 Mol. C8AA /au·bohr⁸  :     265245.860341
 Mol. α(0) /au        :        165.175767


Wiberg/Mayer (AO) data.
largest (>0.10) Wiberg bond orders for each atom

 ---------------------------------------------------------------------------
     #   Z sym  total        # sym  WBO       # sym  WBO       # sym  WBO
 ---------------------------------------------------------------------------
     1   6      3.985 --     2      1.443    14      1.443    17      0.971
     2   6      3.957 --     1      1.443     3      1.358    18      0.969
     3   6      3.990 --     2      1.358    12      1.253     4      1.199
     4   6      3.991 --     5      1.657     3      1.199    19      0.968
     5   6      3.991 --     4      1.657     6      1.199    20      0.968
     6   6      3.990 --     7      1.358    11      1.253     5      1.199
     7   6      3.957 --     8      1.443     6      1.358    21      0.969
     8   6      3.985 --     7      1.443     9      1.443    22      0.971
     9   6      3.957 --     8      1.443    10      1.358    23      0.969
    10   6      3.990 --     9      1.358    11      1.253    16      1.199
    11   6      3.991 --     6      1.253    10      1.253    12      1.252
    12   6      3.991 --     3      1.253    13      1.253    11      1.252
    13   6      3.990 --    14      1.358    12      1.253    15      1.199
    14   6      3.957 --     1      1.443    13      1.358    24      0.969
    15   6      3.991 --    16      1.657    13      1.199    25      0.968
    16   6      3.991 --    15      1.657    10      1.199    26      0.968
    17   1      0.998 --     1      0.971
    18   1      0.998 --     2      0.969
    19   1      0.998 --     4      0.968
    20   1      0.998 --     5      0.968
    21   1      0.998 --     7      0.969
    22   1      0.998 --     8      0.971
    23   1      0.998 --     9      0.969
    24   1      0.998 --    14      0.969
    25   1      0.998 --    15      0.968
    26   1      0.998 --    16      0.968
 ---------------------------------------------------------------------------

Topologies differ in total number of bonds
Writing topology from bond orders to xtbtopo.mol

molecular dipole:
                 x           y           z       tot (Debye)
 q only:        0.000       0.000      -0.000
   full:        0.000      -0.000      -0.000       0.000
molecular quadrupole (traceless):
                xx          xy          yy          xz          yz          zz
 q only:        1.495       0.000       1.734      -0.000      -0.000      -3.229
  q+dip:        6.544      -0.000       6.372      -0.000      -0.000     -12.916
   full:        2.967       0.000       3.237      -0.000      -0.000      -6.204

           -------------------------------------------------
          |                Geometry Summary                 |
           -------------------------------------------------

      molecular mass/u    :      202.2511819
   center of mass at/Å    :        0.0000005      -0.0000006      -0.0000001
  moments of inertia/u·Å² :        0.4931103E+03   0.8982208E+03   0.1391331E+04
rotational constants/cm⁻¹ :        0.3418633E-01   0.1876780E-01   0.1211619E-01

 * 29 selected distances

     #   Z          #   Z                                           value/Å
     1   6          2   6                                         1.3829624
     2   6          3   6                                         1.3955210
     3   6          4   6                                         1.4265575
     4   6          5   6                                         1.3527929
     5   6          6   6                                         1.4265574
     6   6          7   6                                         1.3955210
     7   6          8   6                                         1.3829624
     8   6          9   6                                         1.3829624
     9   6         10   6                                         1.3955209
     6   6         11   6                                         1.4167151
    10   6         11   6                                         1.4167151
     3   6         12   6                                         1.4167152
    11   6         12   6                                         1.4153558
    12   6         13   6                                         1.4167152
     1   6         14   6                                         1.3829624
    13   6         14   6                                         1.3955210
    13   6         15   6                                         1.4265575 (max)
    10   6         16   6                                         1.4265574
    15   6         16   6                                         1.3527929
     1   6         17   1                                         1.0806104 (min)
     2   6         18   1                                         1.0807947
     4   6         19   1                                         1.0811147
     5   6         20   1                                         1.0811147
     7   6         21   1                                         1.0807948
     8   6         22   1                                         1.0806104
     9   6         23   1                                         1.0807948
    14   6         24   1                                         1.0807947
    15   6         25   1                                         1.0811147
    16   6         26   1                                         1.0811147

 * 2 distinct bonds (by element types)

   Z      Z             #   av. dist./Å        max./Å        min./Å
   1 H    6 C          10     1.0808859     1.0811147     1.0806104
   6 C    6 C          19     1.4004192     1.4265575     1.3527929

           -------------------------------------------------
          |               Frequency Printout                |
           -------------------------------------------------
 projected vibrational frequencies (cm⁻¹)
eigval :       -0.00    -0.00    -0.00    -0.00     0.00     0.00
eigval :       86.92   134.60   202.04   219.06   239.43   349.10
eigval :      358.35   392.00   440.22   452.59   472.92   487.53
eigval :      488.40   497.57   513.45   541.62   626.48   649.73
eigval :      679.14   680.04   719.68   757.64   758.57   777.32
eigval :      798.74   804.85   830.42   845.28   882.21   889.97
eigval :      918.86   920.50   923.00   927.44   991.91   995.34
eigval :     1107.92  1115.99  1132.35  1157.71  1172.63  1196.40
eigval :     1199.97  1219.16  1226.93  1239.27  1270.28  1325.25
eigval :     1327.55  1361.06  1391.49  1405.78  1419.42  1419.70
eigval :     1449.67  1489.61  1497.10  1559.91  1563.88  1585.80
eigval :     1607.14  1607.72  3063.43  3063.46  3068.05  3068.64
eigval :     3073.14  3074.80  3077.74  3077.99  3084.86  3086.72
 reduced masses (amu)
    1:      5.30    2:      6.60    3:      6.02    4:      7.48    5:      7.16    6:      5.80
    7:      4.54    8:      4.08    9:      3.91   10:      3.38   11:      4.43   12:      4.69
   13:      3.55   14:      8.20   15:      7.12   16:      3.73   17:      4.06   18:      5.52
   19:      4.64   20:      3.47   21:      7.31   22:      3.76   23:      6.40   24:      6.08
   25:      5.23   26:      7.22   27:      5.30   28:      9.11   29:      1.17   30:      6.18
   31:      1.29   32:      4.50   33:      1.38   34:      1.47   35:      1.35   36:      1.38
   37:      1.24   38:      1.24   39:      1.26   40:      1.27   41:      6.97   42:      4.06
   43:      2.23   44:      1.76   45:      1.42   46:      1.18   47:      1.10   48:      1.16
   49:      1.18   50:      1.38   51:      1.83   52:      1.58   53:      4.08   54:      5.15
   55:      2.75   56:      1.81   57:      7.43   58:      2.34   59:      3.50   60:      7.63
   61:      7.15   62:      6.78   63:      4.68   64:      6.72   65:      9.33   66:      7.61
   67:      8.59   68:      8.28   69:      1.08   70:      1.08   71:      1.08   72:      1.07
   73:      1.08   74:      1.08   75:      1.09   76:      1.09   77:      1.09   78:      1.09
 IR intensities (km·mol⁻¹)
    1:      0.00    2:      0.05    3:      0.04    4:      0.02    5:      0.00    6:      0.02
    7:      0.15    8:      0.00    9:      2.82   10:      0.00   11:      0.00   12:      0.29
   13:      0.00   14:      0.00   15:      0.00   16:      0.41   17:      0.00   18:      0.00
   19:      0.00   20:      0.00   21:      1.51   22:      0.00   23:      0.00   24:      0.00
   25:      2.88   26:      0.24   27:      0.00   28:      0.00   29:      5.76   30:      0.00
   31:      0.00   32:      0.05   33:      0.00   34:     53.94   35:      0.00   36:      0.00
   37:      0.00   38:      0.00   39:      0.00   40:      0.00   41:      2.79   42:      0.66
   43:      0.00   44:      0.00   45:      0.18   46:      0.00   47:      0.03   48:      0.00
   49:      1.32   50:      0.00   51:      0.01   52:      0.37   53:      0.00   54:      0.69
   55:      0.00   56:      0.00   57:      0.00   58:      3.67   59:      0.01   60:      0.00
   61:      0.37   62:      0.01   63:      0.00   64:      0.00   65:      0.00   66:      0.74
   67:      0.00   68:      0.01   69:      4.22   70:      0.00   71:      0.00   72:      3.93
   73:      6.53   74:      0.00   75:      0.00   76:    235.75   77:    131.34   78:      0.00
 Raman intensities (Ä⁴*amu⁻¹)
    1:      0.00    2:      0.00    3:      0.00    4:      0.00    5:      0.00    6:      0.00
    7:      0.00    8:      0.00    9:      0.00   10:      0.00   11:      0.00   12:      0.00
   13:      0.00   14:      0.00   15:      0.00   16:      0.00   17:      0.00   18:      0.00
   19:      0.00   20:      0.00   21:      0.00   22:      0.00   23:      0.00   24:      0.00
   25:      0.00   26:      0.00   27:      0.00   28:      0.00   29:      0.00   30:      0.00
   31:      0.00   32:      0.00   33:      0.00   34:      0.00   35:      0.00   36:      0.00
   37:      0.00   38:      0.00   39:      0.00   40:      0.00   41:      0.00   42:      0.00
   43:      0.00   44:      0.00   45:      0.00   46:      0.00   47:      0.00   48:      0.00
   49:      0.00   50:      0.00   51:      0.00   52:      0.00   53:      0.00   54:      0.00
   55:      0.00   56:      0.00   57:      0.00   58:      0.00   59:      0.00   60:      0.00
   61:      0.00   62:      0.00   63:      0.00   64:      0.00   65:      0.00   66:      0.00
   67:      0.00   68:      0.00   69:      0.00   70:      0.00   71:      0.00   72:      0.00
   73:      0.00   74:      0.00   75:      0.00   76:      0.00   77:      0.00   78:      0.00
 output can be read by thermo (or use thermo option).
 writing <g98.out> molden fake output.
 recommended (thermochemical) frequency scaling factor: 1.0
           -------------------------------------------------
Molecule has the following symmetry elements: (i) 3*(C2) 3*(sigma) 
It seems to be the D2h point group
          |             Thermodynamic Functions             |
           -------------------------------------------------

d2h symmetry found (for desy threshold:  0.10E+00) used in thermo

          ...................................................
          :                      SETUP                      :
          :.................................................:
          :  # frequencies                          72      :
          :  # imaginary freq.                       0      :
          :  linear?                             false      :
          :  only rotor calc.                    false      :
          :  symmetry                              d2h      :
          :  rotational number                       4      :
          :  scaling factor                  1.0000000      :
          :  rotor cutoff                    0.0000000 cm⁻¹ :
          :  imag. cutoff                 -100.0000000 cm⁻¹ :
          :.................................................:

    mode    ω/cm⁻¹     T·S(HO)/kcal·mol⁻¹    T·S(FR)/kcal·mol⁻¹   T·S(vib)
   ------------------------------------------------------------------------
       1     86.92    -1.11159 (100.00%)    -0.89269 (  0.00%)    -1.11159
       2    134.60    -0.85844 (100.00%)    -0.76315 (  0.00%)    -0.85844
       3    202.04    -0.63041 (100.00%)    -0.64284 (  0.00%)    -0.63041
       4    219.06    -0.58642 (100.00%)    -0.61888 (  0.00%)    -0.58642
       5    239.43    -0.53879 (100.00%)    -0.59254 (  0.00%)    -0.53879
   ------------------------------------------------------------------------

   temp. (K)  partition function   enthalpy   heat capacity  entropy
                                   cal/mol     cal/K/mol   cal/K/mol   J/K/mol
 298.15  VIB   143.                 4893.959     40.608     26.279
         ROT  0.474E+06              888.727      2.981     28.952
         INT  0.679E+08             5782.686     43.588     55.231
         TR   0.880E+26             1481.212      4.968     41.818
         TOT                        7263.8986    48.5565    97.0485   406.0511

       T/K    H(0)-H(T)+PV         H(T)/Eh          T*S/Eh         G(T)/Eh
   ------------------------------------------------------------------------
    298.15    0.115758E-01    0.212149E+00    0.461109E-01    0.166038E+00
   ------------------------------------------------------------------------

         :::::::::::::::::::::::::::::::::::::::::::::::::::::
         ::                  THERMODYNAMIC                  ::
         :::::::::::::::::::::::::::::::::::::::::::::::::::::
         :: total free energy         -39.213101534041 Eh   ::
         ::.................................................::
         :: total energy              -39.379139578674 Eh   ::
         :: zero point energy           0.200573173781 Eh   ::
         :: G(RRHO) w/o ZPVE           -0.034535129148 Eh   ::
         :: G(RRHO) contrib.            0.166038044633 Eh   ::
         :::::::::::::::::::::::::::::::::::::::::::::::::::::

optimized geometry written to: xtbopt.coord


           -------------------------------------------------
          | TOTAL ENERGY              -39.379139578674 Eh   |
          | TOTAL ENTHALPY            -39.166990645720 Eh   |
          | TOTAL FREE ENERGY         -39.213101534041 Eh   |
          | GRADIENT NORM               0.000023084398 Eh/α |
          | HOMO-LUMO GAP               2.429287984382 eV   |
           -------------------------------------------------

------------------------------------------------------------------------
 * finished run on 2025/04/09 at 04:34:22.690     
------------------------------------------------------------------------
 total:
 * wall-time:     0 d,  0 h,  0 min,  2.342 sec
 *  cpu-time:     0 d,  0 h,  0 min,  2.323 sec
 * ratio c/w:     0.992 speedup
 SCF:
 * wall-time:     0 d,  0 h,  0 min,  0.017 sec
 *  cpu-time:     0 d,  0 h,  0 min,  0.017 sec
 * ratio c/w:     0.987 speedup
 ANC optimizer:
 * wall-time:     0 d,  0 h,  0 min,  0.096 sec
 *  cpu-time:     0 d,  0 h,  0 min,  0.095 sec
 * ratio c/w:     0.992 speedup
 analytical hessian:
 * wall-time:     0 d,  0 h,  0 min,  2.219 sec
 *  cpu-time:     0 d,  0 h,  0 min,  2.201 sec
 * ratio c/w:     0.992 speedup

