17
 energy: -22.489116278707 gnorm: 0.023902976472 xtb: 6.7.1 (41059b4)
C            1.83959710158711       -1.51632764880110       -0.00010358697921
C            0.57410069490184       -0.70151354476753       -0.00045257408213
C           -0.64960454774181       -1.38223682030982       -0.00024196592163
C           -1.84231706480828       -0.68009662763103        0.00008593425169
N           -1.90137196361388        0.65792652809938       -0.00019400974225
C           -0.73765059284494        1.30187646528884       -0.00046165287870
C            0.52911757050374        0.69903609031369       -0.00028840959323
C            1.73376448395948        1.60344863269637        0.00097278652906
H            2.74541799181304       -0.91198827765969       -0.01161760585895
H            1.87594674039527       -2.15782297050790        0.88684203386229
H            1.86493162220266       -2.17525578476418       -0.87444795731827
H           -0.66077064148725       -2.46914756626505       -0.00037415149418
H           -2.79472250042858       -1.20784673322846        0.00057257549143
H           -0.79636209526918        2.39202250958373       -0.00103773132975
H            1.72883804807859        2.24827636347819        0.88632118773828
H            2.67903678970851        1.06220618913172       -0.00622991529951
H            1.72186792692254        2.26009373717725       -0.87550678148287
17
 energy: -22.490061337371 gnorm: 0.006985605204 xtb: 6.7.1 (41059b4)
C            1.83649545024402       -1.51532809787608       -0.00009738294028
C            0.57866279264671       -0.69916711435858       -0.00043877859120
C           -0.64079721981611       -1.37830690554398       -0.00030208574116
C           -1.82788979247553       -0.67471443139093        0.00003553257395
N           -1.88150700036806        0.65231908948450       -0.00025547529150
C           -0.72943107859969        1.29540960396517       -0.00052121300217
C            0.53271933504053        0.69658108315754       -0.00026221351903
C            1.73018319082966        1.60005681986172        0.00094207846893
H            2.73601077735366       -0.90777817636104       -0.01198313949098
H            1.86445476306720       -2.15054308651017        0.88674799403720
H            1.85324517060280       -2.16873247291398       -0.87382232154920
H           -0.65260329501874       -2.46013873971687       -0.00039999770077
H           -2.78117453505151       -1.18968891598157        0.00039714326382
H           -0.79930581000487        2.37858249038725       -0.00074277617086
H            1.71403832109777        2.23816107877335        0.88599240187400
H            2.66985488545597        1.05557874848796       -0.00648933675275
H            1.70686360887506        2.25035956837012       -0.87496225357597
17
 energy: -22.490123602367 gnorm: 0.001753277560 xtb: 6.7.1 (41059b4)
C            1.83561348972573       -1.51637411154053       -0.00006384926238
C            0.57948924569802       -0.69837757803291       -0.00054374605549
C           -0.63857137614398       -1.37885566968108       -0.00040720142787
C           -1.82487779064664       -0.67428646960270       -0.00007797810483
N           -1.87459687703458        0.64923850408307       -0.00025301657496
C           -0.72703215606020        1.29454510438557       -0.00042598348474
C            0.53425078427522        0.69650434028195       -0.00029703430226
C            1.73030054622430        1.60090055955613        0.00095670342411
H            2.73525905970962       -0.91111724788421       -0.01250289389461
H            1.86028202989597       -2.14937111970406        0.88646909323864
H            1.84866051981244       -2.16854737140590       -0.87274034115383
H           -0.64883894555674       -2.45906241977687       -0.00050608113504
H           -2.77985721817449       -1.18302370785278        0.00024474063629
H           -0.80292640089700        2.37555419814125       -0.00067973848251
H            1.71029313921793        2.23680791961841        0.88543421821164
H            2.66962492514946        1.05853927642652       -0.00683586666111
H            1.70274658868380        2.24957633482256       -0.87393284907898
17
 energy: -22.490129217126 gnorm: 0.000533019214 xtb: 6.7.1 (41059b4)
C            1.83543950538871       -1.51613748365556       -0.00001102759380
C            0.57873887219834       -0.69782112302317       -0.00061510247979
C           -0.63850297762060       -1.38012286859905       -0.00053932006488
C           -1.82532308816370       -0.67530336210871       -0.00019532104786
N           -1.87310859339782        0.64786828800780       -0.00030504980605
C           -0.72674645322993        1.29549182602124       -0.00047069011012
C            0.53453872238362        0.69697157971635       -0.00033821998788
C            1.73156231165817        1.60094726887398        0.00099221257883
H            2.73505282236006       -0.91075731325585       -0.01327594561142
H            1.85971888725238       -2.14806746571424        0.88706126144233
H            1.84742120373501       -2.16867996598988       -0.87218489011121
H           -0.64655395393278       -2.46016956949898       -0.00069637221557
H           -2.78155198681599       -1.18145239723249        0.00003977658136
H           -0.80560700192712        2.37610126487575       -0.00049529756286
H            1.71114147421020        2.23609762305758        0.88574271492457
H            2.67049272001020        1.05802028394107       -0.00730018158534
H            1.70310709977009        2.24966395641859       -0.87357037145825
17
 energy: -22.490129688497 gnorm: 0.000147220541 xtb: 6.7.1 (41059b4)
C            1.83530783519547       -1.51606153049908        0.00003443553939
C            0.57831516541799       -0.69767037327186       -0.00068911447288
C           -0.63872162886032       -1.38030658378569       -0.00068736959483
C           -1.82564163100905       -0.67563570226013       -0.00035131004734
N           -1.87346377871175        0.64780079693613       -0.00034688579163
C           -0.72696303456409        1.29579399150225       -0.00041072354007
C            0.53437118706699        0.69714860131802       -0.00033714443451
C            1.73177282591122        1.60093755897758        0.00106593541633
H            2.73498772024408       -0.91072831601110       -0.01410705856082
H            1.86032469142651       -2.14735877762128        0.88771550030458
H            1.84727231105188       -2.16941837979648       -0.87170083149692
H           -0.64596575069240       -2.46051293729194       -0.00086478383271
H           -2.78205804663216       -1.18160764064958       -0.00012330224150
H           -0.80628284914680        2.37642618718064       -0.00055080188452
H            1.71224520931132        2.23581018322572        0.88622934125258
H            2.67064616731575        1.05779481097353       -0.00777100165433
H            1.70367317055421        2.25023865290769       -0.87326670906875
17
 energy: -22.490129855869 gnorm: 0.000103271072 xtb: 6.7.1 (41059b4)
C            1.83527542102317       -1.51598637786677        0.00007101971299
C            0.57829299138831       -0.69761735380428       -0.00074521999406
C           -0.63870814004517       -1.38028875529887       -0.00079485104965
C           -1.82558655060692       -0.67565839156682       -0.00044525846254
N           -1.87341339251897        0.64775876967293       -0.00044243378266
C           -0.72694068460610        1.29576803067938       -0.00052007349255
C            0.53437702764165        0.69717570524584       -0.00037638154256
C            1.73178279609877        1.60085339216923        0.00115227231900
H            2.73494603426234       -0.91067178620432       -0.01505790064783
H            1.86067691434299       -2.14646679505978        0.88832058941726
H            1.84675714724077       -2.17013670459719       -0.87106751731183
H           -0.64571553178827       -2.46048561569582       -0.00105201131798
H           -2.78207290035794       -1.18147169062707       -0.00031762396067
H           -0.80648770510644        2.37634985657603       -0.00047365028857
H            1.71256005577095        2.23528104676808        0.88664758822681
H            2.67060617336250        1.05762167799055       -0.00823455509294
H            1.70346990777722        2.25062553345329       -0.87282581684016
17
 energy: -22.490130230934 gnorm: 0.000156283389 xtb: 6.7.1 (41059b4)
C            1.83523048409199       -1.51595305912492        0.00015033277911
C            0.57835427506356       -0.69756647616195       -0.00076314871116
C           -0.63866759402246       -1.38023123310500       -0.00113320091521
C           -1.82546816263382       -0.67566224877673       -0.00083173026853
N           -1.87332313299243        0.64772847260936       -0.00066796411745
C           -0.72687438582513        1.29568263950856       -0.00054190563195
C            0.53443059063682        0.69721731560528       -0.00024002243733
C            1.73175118116335        1.60079268306322        0.00143706532828
H            2.73491877041652       -0.91076725884432       -0.01764704178569
H            1.86176935147738       -2.14436847694899        0.88981351931402
H            1.84533413598709       -2.17210842007220       -0.86946004220390
H           -0.64539374365008       -2.46039896310917       -0.00153006057623
H           -2.78204181069338       -1.18127312671241       -0.00083292181078
H           -0.80670376553116        2.37620856450572       -0.00054283103536
H            1.71320050727308        2.23424162050650        0.88763484395930
H            2.67054312107002        1.05754011635687       -0.00925366079832
H            1.70275974204750        2.25156839253460       -0.87175305519676
17
 energy: -22.490131145895 gnorm: 0.000431347295 xtb: 6.7.1 (41059b4)
C            1.83516868686269       -1.51590194987846        0.00026783856539
C            0.57846621039824       -0.69750033585277       -0.00090160089803
C           -0.63861866321036       -1.38013117429101       -0.00180212925071
C           -1.82530250639570       -0.67566281194061       -0.00153133562519
N           -1.87321389450828        0.64770424710465       -0.00119089742079
C           -0.72678679787059        1.29553681360631       -0.00077703201484
C            0.53450979142331        0.69727300791259       -0.00006418643898
C            1.73170077274054        1.60070072192719        0.00213506918359
H            2.73485629538807       -0.91092227309581       -0.02383250571905
H            1.86453262881806       -2.13944887885112        0.89328176639582
H            1.84213856316517       -2.17680360627919       -0.86573946216094
H           -0.64494473055692       -2.46025632663605       -0.00267863082726
H           -2.78199276512337       -1.18100228826959       -0.00209472710352
H           -0.80698259062784        2.37599761058144       -0.00046782917081
H            1.71449945529964        2.23204987281206        0.88985163631290
H            2.67043816073220        1.05741123438034       -0.01122927247589
H            1.70135094734400        2.25360667860447       -0.86938852545963
17
 energy: -22.490132368907 gnorm: 0.000629122218 xtb: 6.7.1 (41059b4)
C            1.83510474486419       -1.51580859711097        0.00032965853223
C            0.57848264971593       -0.69741991329009       -0.00121110173849
C           -0.63859690272235       -1.38007684270941       -0.00262229727652
C           -1.82519489954123       -0.67569448478775       -0.00241878792148
N           -1.87312391664790        0.64765270464699       -0.00170976428235
C           -0.72673544353621        1.29545713391417       -0.00087393999648
C            0.53454471136996        0.69732430712327        0.00002316961185
C            1.73169411368535        1.60058374210261        0.00285701630199
H            2.73474547415212       -0.91101263331095       -0.03026801179745
H            1.86740116181927       -2.13421977472188        0.89686165483846
H            1.83901794516438       -2.18169609498670       -0.86187193335072
H           -0.64451109715160       -2.46017691827555       -0.00373266695169
H           -2.78200626599193       -1.18075721397040       -0.00312649072370
H           -0.80730286139297        2.37584537142983       -0.00053916388535
H            1.71581818410203        2.22966067328727        0.89222210289839
H            2.67035116878298        1.05721161874545       -0.01317976592611
H            1.70013079720683        2.25577746374854       -0.86690150244050
17
 energy: -22.490134152226 gnorm: 0.000840675747 xtb: 6.7.1 (41059b4)
C            1.83504455467798       -1.51574504209348        0.00037947215654
C            0.57851954446167       -0.69735727301696       -0.00155331545344
C           -0.63857688904966       -1.38002495578645       -0.00345293877031
C           -1.82508986264758       -0.67571919917249       -0.00321915162248
N           -1.87304243063008        0.64761418189229       -0.00231564091972
C           -0.72667875691082        1.29537523494312       -0.00117252484373
C            0.53458964304589        0.69737695870254        0.00007081301371
C            1.73167479588369        1.60049185987618        0.00370329493859
H            2.73462116755864       -0.91121679631641       -0.03773607028626
H            1.87077111512390       -2.12821567122619        0.90092763358314
H            1.83544198191420       -2.18736311191428       -0.85739426825944
H           -0.64411957735982       -2.46009887046992       -0.00500765443835
H           -2.78201710012250       -1.18052697992215       -0.00443044440471
H           -0.80759200313819        2.37570194778642       -0.00050882804012
H            1.71723351391976        2.22700899593646        0.89491114023954
H            2.67026868936298        1.05709741618849       -0.01530510496172
H            1.69877117778878        2.25825184642725       -0.86405823603916
17
 energy: -22.490136760958 gnorm: 0.001048537978 xtb: 6.7.1 (41059b4)
C            1.83498658746348       -1.51562002216267        0.00041279481265
C            0.57851895341194       -0.69728623591899       -0.00200965283296
C           -0.63857240014889       -1.37997826993392       -0.00450280748551
C           -1.82500168034282       -0.67574917575979       -0.00430884557170
N           -1.87296868660867        0.64756620139036       -0.00301799298004
C           -0.72663709474450        1.29529963233976       -0.00140490343918
C            0.53461128444791        0.69742247425552        0.00012172972889
C            1.73167632075204        1.60034096782023        0.00470277859920
H            2.73441782959292       -0.91136766417480       -0.04640492937876
H            1.87474201590531       -2.12117321871114        0.90557674181605
H            1.83139430903081       -2.19386042322180       -0.85217813884954
H           -0.64371700384180       -2.46002770335341       -0.00640983311886
H           -2.78205066984014       -1.18028310035183       -0.00574534385659
H           -0.80791419734377        2.37555682774365       -0.00060354540059
H            1.71887589063173        2.22387907969807        0.89804954411422
H            2.67016591218006        1.05686124914330       -0.01769106731304
H            1.69729219333325        2.26106992303189       -0.86074835295216
17
 energy: -22.490140508250 gnorm: 0.001295941880 xtb: 6.7.1 (41059b4)
C            1.83492169109903       -1.51551261696567        0.00043782726186
C            0.57853274964153       -0.69722434806734       -0.00252709370075
C           -0.63856993563236       -1.37992759651161       -0.00565155146540
C           -1.82490480315065       -0.67577390317123       -0.00540940678028
N           -1.87288919981542        0.64752305080297       -0.00383705390948
C           -0.72658554284121        1.29521360127395       -0.00178773795226
C            0.53464198606710        0.69747272355216        0.00016268266302
C            1.73166302872460        1.60019982340941        0.00587813781924
H            2.73416093640439       -0.91168385417506       -0.05657772706691
H            1.87944310763578       -2.11293699226326        0.91092847547912
H            1.82668302414033       -2.20146256891929       -0.84601932811769
H           -0.64331143350215       -2.45994820217623       -0.00809431944824
H           -2.78208380129845       -1.18002007121333       -0.00739760752936
H           -0.80824455766571        2.37540105581398       -0.00064960587154
H            1.72072822875201        2.22028995892818        0.90167560161457
H            2.67005165298410        1.05669536648002       -0.02040465952847
H            1.69558243233591        2.26434511503678       -0.85688845757537
17
 energy: -22.490145724633 gnorm: 0.001555592062 xtb: 6.7.1 (41059b4)
C            1.83486108056182       -1.51533477638228        0.00045249222954
C            0.57850836997756       -0.69715990433653       -0.00316462490273
C           -0.63858993599911       -1.37988308485867       -0.00702491892176
C           -1.82483101428915       -0.67580180609993       -0.00679089242658
N           -1.87282340666686        0.64747491079732       -0.00477061712697
C           -0.72655033512235        1.29513273087472       -0.00215245343963
C            0.53464739684747        0.69751371071805        0.00019358599375
C            1.73167026003358        1.59998870112249        0.00722120490874
H            2.73378217391138       -0.91199911803981       -0.06810475668117
H            1.88485344848228       -2.10348917803146        0.91688632722276
H            1.82146931653597       -2.20997497287838       -0.83894898458082
H           -0.64290953178503       -2.45987600685109       -0.00995063064903
H           -2.78214606939447       -1.17974318896732       -0.00909925514226
H           -0.80860265806075        2.37524511289245       -0.00078010651190
H            1.72284493270422        2.21614416176627        0.90579783811122
H            2.66991008785202        1.05640455782965       -0.02343990099039
H            1.69372544829026        2.26800869227896       -0.85248613120070
17
 energy: -22.490152699980 gnorm: 0.001834070757 xtb: 6.7.1 (41059b4)
C            1.83480214486319       -1.51515708875138        0.00045995583455
C            0.57847869716735       -0.69711413841873       -0.00388085541537
C           -0.63862494352334       -1.37984423126185       -0.00848701302305
C           -1.82477039418457       -0.67582204186791       -0.00816954503921
N           -1.87276630454262        0.64743447566075       -0.00578928465597
C           -0.72651828048543        1.29505245244992       -0.00263139685379
C            0.53464614244355        0.69754876191880        0.00019624863143
C            1.73167107632533        1.59977120488563        0.00870016561774
H            2.73329741144957       -0.91249214223072       -0.08080122600779
H            1.89089112410135       -2.09302653579629        0.92330760802245
H            1.81582838863515       -2.21929790787528       -0.83103722714948
H           -0.64255772352772       -2.45980837550081       -0.01202310883983
H           -2.78221930372312       -1.17946693016210       -0.01104404005731
H           -0.80894513366215        2.37509492352811       -0.00090476573671
H            1.72514768547536        2.21157187558988        0.91031398881058
H            2.66975308540815        1.05616322013505       -0.02675925378513
H            1.69170589165879        2.27204301953136       -0.84761207446103
17
 energy: -22.490161616846 gnorm: 0.002088447724 xtb: 6.7.1 (41059b4)
C            1.83476125719053       -1.51491423465688        0.00046338154932
C            0.57840301706307       -0.69708443762644       -0.00468798245937
C           -0.63869259339397       -1.37982262362556       -0.01008842296809
C           -1.82475584145364       -0.67583881889589       -0.00972672605232
N           -1.87274137923738        0.64739904753403       -0.00687518114022
C           -0.72651320558960        1.29499002924989       -0.00311067608174
C            0.53460921285176        0.69756298966341        0.00016391464284
C            1.73169442824456        1.59948949090920        0.01026214768624
H            2.73266034191181       -0.91301790020812       -0.09415022481906
H            1.89736492744419       -2.08185066390369        0.92990622689076
H            1.81007711762748       -2.22897702108884       -0.82253756199101
H           -0.64229449038538       -2.45976301509464       -0.01416222415314
H           -2.78232504375521       -1.17921516548473       -0.01292580361259
H           -0.80926111804586        2.37497000226078       -0.00110419426038
H            1.72761788727922        2.20661752212915        0.91510033969616
H            2.66957355634137        1.05582481875748       -0.03027983612884
H            1.68964148978593        2.27628052191528       -0.84240900090650
17
 energy: -22.490168786966 gnorm: 0.002228101045 xtb: 6.7.1 (41059b4)
C            1.83474538858814       -1.51474917529149        0.00046651292844
C            0.57834158848269       -0.69708553512598       -0.00525652440247
C           -0.63875240979704       -1.37981862597734       -0.01115708960115
C           -1.82476816355550       -0.67584196167395       -0.01071202071056
N           -1.87274131144573        0.64738443280638       -0.00761419849432
C           -0.72651943904522        1.29495677338071       -0.00348193037563
C            0.53457213370274        0.69756091108150        0.00011414682027
C            1.73171031287523        1.59929490939502        0.01132841903583
H            2.73215506689965       -0.91346798735598       -0.10326369680978
H            1.90185933279989       -2.07413723523472        0.93430077294464
H            1.80624837326624       -2.23552955466425       -0.81660768273745
H           -0.64219843360354       -2.45974532285888       -0.01563365899516
H           -2.78240417634349       -1.17907140385004       -0.01424121087005
H           -0.80943172675874        2.37490495194801       -0.00126070155121
H            1.72932244420621        2.20316598883723        0.91838094811952
H            2.66944633125239        1.05562828727797       -0.03272420557266
H            1.68823425235492        2.27920108914025       -0.83879970383619
17
 energy: -22.490176828363 gnorm: 0.002384735665 xtb: 6.7.1 (41059b4)
C            1.83473826220776       -1.51456048287864        0.00047449938636
C            0.57826704433352       -0.69709241958856       -0.00583978733236
C           -0.63882159021789       -1.37981954949708       -0.01227060720352
C           -1.82479277030827       -0.67584364484685       -0.01176916186638
N           -1.87275093977069        0.64737113897170       -0.00838775763875
C           -0.72653272503035        1.29492677685591       -0.00386191943157
C            0.53452410461923        0.69755208096751        0.00006019130768
C            1.73173371356357        1.59907430188096        0.01242699294589
H            2.73159460634252       -0.91392340565387       -0.11263492600105
H            1.90651880108824       -2.06614689236232        0.93877760665000
H            1.80235277829402       -2.24222200534725       -0.81045377836796
H           -0.64212849178455       -2.45973374103617       -0.01713192030685
H           -2.78249192423715       -1.17893364871177       -0.01555113487034
H           -0.80959572002208        2.37484510325292       -0.00144525881804
H            1.73111128114327        2.19955161063714        0.92177544389818
H            2.66930860139459        1.05539330048097       -0.03527925823148
H            1.68678453226310        2.28221201870986       -0.83505104822773
17
 energy: -22.490185700177 gnorm: 0.002486687017 xtb: 6.7.1 (41059b4)
C            1.83474202728903       -1.51436526660993        0.00048642210306
C            0.57817533165379       -0.69711560830351       -0.00643901787339
C           -0.63890554613818       -1.37983182654418       -0.01335594481341
C           -1.82484424308670       -0.67583888536333       -0.01277672402906
N           -1.87277982550735        0.64736565513136       -0.00914100032010
C           -0.72656016985036        1.29491092050262       -0.00425189726847
C            0.53446008528751        0.69753131452491       -0.00002566486221
C            1.73176162882890        1.59884873769626        0.01348840361190
H            2.73097873744459       -0.91443253110839       -0.12169051144206
H            1.91110113603091       -2.05832194075225        0.94300501505772
H            1.79870255917362       -2.24863746804780       -0.80436575444584
H           -0.64213979251091       -2.45973724560006       -0.01857099035151
H           -2.78258967008158       -1.17882725921123       -0.01678724760580
H           -0.80971700557297        2.37480947524183       -0.00166004108187
H            1.73288017763699        2.19595000222802        0.92509195742329
H            2.66916876523210        1.05517293978015       -0.03781806122341
H            1.68538536804946        2.28516952826997       -0.83135076698678
17
 energy: -22.490195338653 gnorm: 0.002613727889 xtb: 6.7.1 (41059b4)
C            1.83475374576955       -1.51415653824968        0.00050711943822
C            0.57807828248252       -0.69714572606642       -0.00703214374361
C           -0.63899500733068       -1.37984766843315       -0.01445045365868
C           -1.82490242924838       -0.67583210579579       -0.01380548551582
N           -1.87281529828877        0.64736202325381       -0.00991895264595
C           -0.72659097092403        1.29489546559227       -0.00466206467285
C            0.53439002812828        0.69750576873506       -0.00011202944405
C            1.73179300566741        1.59860623634429        0.01456879520287
H            2.73032002410991       -0.91495880989002       -0.13090422460808
H            1.91579171973077       -2.05031414790405        0.94727030724609
H            1.79501001033387       -2.25512669308416       -0.79812080319902
H           -0.64217350925444       -2.45974486441996       -0.02003213256286
H           -2.78269100762810       -1.17872663709162       -0.01805236140923
H           -0.80983009194469        2.37477665182941       -0.00189719907332
H            1.73472157174368        2.19222410564248        0.92848511595962
H            2.66901963102531        1.05493706093650       -0.04046116740671
H            1.68393985950662        2.28819642043546       -0.82754414401456
17
 energy: -22.490205688073 gnorm: 0.002657524782 xtb: 6.7.1 (41059b4)
C            1.83477770048934       -1.51394225386427        0.00053511918730
C            0.57796272666832       -0.69719245969657       -0.00762925641041
C           -0.63909921729887       -1.37987603900036       -0.01549394191774
C           -1.82499006691553       -0.67581877438606       -0.01477017568474
N           -1.87287207693164        0.64736673843211       -0.01066100062997
C           -0.72663769247712        1.29489679048956       -0.00507295911119
C            0.53430262675208        0.69746746955005       -0.00023258936823
C            1.73182988318661        1.59836092987533        0.01558146266668
H            2.72961273474272       -0.91552743259135       -0.13954649266094
H            1.92028610234178       -2.04267215681377        0.95116030896186
H            1.79168096517918       -2.26115274349622       -0.79209016551598
H           -0.64229626123523       -2.45976958011138       -0.02138695552550
H           -2.78280187873611       -1.17866363308701       -0.01919427378165
H           -0.80989419991752        2.37477204835794       -0.00216745444711
H            1.73651170108137        2.18857890320039        0.93172137984286
H            2.66886995049739        1.05471768150077       -0.04304719477613
H            1.68257656645207        2.29110505347527       -0.82386763493704
17
 energy: -22.490216665592 gnorm: 0.002805031567 xtb: 6.7.1 (41059b4)
C            1.83480375692074       -1.51371368138899        0.00057723432006
C            0.57785251992978       -0.69723689737502       -0.00820660266951
C           -0.63920060774615       -1.37990006717461       -0.01657132330969
C           -1.82506583606516       -0.67580666709264       -0.01579716563050
N           -1.87292268559666        0.64736794683602       -0.01145984415527
C           -0.72667796113061        1.29488678115683       -0.00551223538887
C            0.53421858211378        0.69743220099051       -0.00033050864346
C            1.73186692898036        1.59809424761381        0.01665515099645
H            2.72887729953001       -0.91610068730804       -0.14871022843859
H            1.92502745917368       -2.03458743197871        0.95531184314632
H            1.78808403487031       -2.26753125602094       -0.78572950921250
H           -0.64238740230219       -2.45978728302566       -0.02282721531905
H           -2.78291068050477       -1.17858112336901       -0.02046050622076
H           -0.80998307091442        2.37475100957549       -0.00245330530858
H            1.73844695713306        2.18470574194201        0.93515266996203
H            2.66870500841407        1.05447190280320       -0.04583774100655
H            1.68108526107300        2.29418580565018       -0.81996253722946
17
 energy: -22.490234924517 gnorm: 0.001228894203 xtb: 6.7.1 (41059b4)
C            1.83509671228387       -1.51416069521136        0.00004759049158
C            0.57747062034654       -0.69768878573782       -0.00984243078528
C           -0.63965624003348       -1.38042288411190       -0.01689420760251
C           -1.82611530283414       -0.67591003755411       -0.01621340149728
N           -1.87370660360869        0.64761825733247       -0.01194872068642
C           -0.72717604905383        1.29551400013279       -0.00589827097035
C            0.53390696240285        0.69724556810413       -0.00181875338004