
                                 *****************
                                 * O   R   C   A *
                                 *****************

                                            #,                                       
                                            ###                                      
                                            ####                                     
                                            #####                                    
                                            ######                                   
                                           ########,                                 
                                     ,,################,,,,,                         
                               ,,#################################,,                 
                          ,,##########################################,,             
                       ,#########################################, ''#####,          
                    ,#############################################,,   '####,        
                  ,##################################################,,,,####,       
                ,###########''''           ''''###############################       
              ,#####''   ,,,,##########,,,,          '''####'''          '####       
            ,##' ,,,,###########################,,,                        '##       
           ' ,,###''''                  '''############,,,                           
         ,,##''                                '''############,,,,        ,,,,,,###''
      ,#''                                            '''#######################'''  
     '                                                          ''''####''''         
             ,#######,   #######,   ,#######,      ##                                
            ,#'     '#,  ##    ##  ,#'     '#,    #''#        ,####,   ,####,        
            ##       ##  ##   ,#'  ##            #'  '#       #'       #'  '#        
            ##       ##  #######   ##           ,######,      #####,   #    #        
            '#,     ,#'  ##    ##  '#,     ,#' ,#      #,     #,   #   #,  ,#        
             '#######'   ##     ##  '#######'  #'      '#     '####' # '####'        



                #########################################################
                #                        -***-                          #
                #          Department of theory and spectroscopy        #
                #                                                       #
                #                      Frank Neese                      #
                #                                                       #
                #     Directorship, Architecture, Infrastructure        #
                #                    SHARK, DRIVERS                     #
                #        Core code/Algorithms in most modules           #
                #                                                       #
                #        Max Planck Institute fuer Kohlenforschung      #
                #                Kaiser Wilhelm Platz 1                 #
                #                 D-45470 Muelheim/Ruhr                 #
                #                      Germany                          #
                #                                                       #
                #                  All rights reserved                  #
                #                        -***-                          #
                #########################################################


                         Program Version 6.0.1  -  RELEASE   -


 With contributions from (in alphabetic order):
[Max-Planck-Institut fuer Kohlenforschung]                               
  Daniel Aravena         : Magnetic Suceptibility                        
  Michael Atanasov       : Ab Initio Ligand Field Theory (pilot matlab implementation)
  Alexander A. Auer      : GIAO ZORA, VPT2 properties, NMR spectrum      
  Ute Becker             : All parallelization in ORCA, NUMFREQ, NUMCALC 
  Giovanni Bistoni       : ED, misc. LED, open-shell LED, HFLD           
  Martin Brehm           : Molecular dynamics                            
  Dmytro Bykov           : pre 5.0 version of the SCF Hessian            
  Marcos Casanova-Páez   : Triplet and SCS-CIS(D). UHF-(DLPNO)-IP/EA/STEOM-CCSD. UHF-CVS-IP/STEOM-CCSD   
  Vijay G. Chilkuri      : MRCI spin determinant printing, contributions to CSF-ICE 
  Pauline Colinet        : FMM embedding                                 
  Dipayan Datta          : RHF DLPNO-CCSD density                        
  Achintya Kumar Dutta   : EOM-CC, STEOM-CC                              
  Nicolas Foglia         : Exact transition moments, OPA infrastructure, MCD improvements    
  Dmitry Ganyushin       : Spin-Orbit,Spin-Spin,Magnetic field MRCI      
  Miquel Garcia-Rates    : C-PCM and meta-GGA Hessian, CCSD/C-PCM, Gaussian charge scheme 
  Tiago L. C. Gouveia    : GS-ROHF, GS-ROCIS                             
  Yang Guo               : DLPNO-NEVPT2, F12-NEVPT2, CIM, IAO-localization        
  Andreas Hansen         : Spin unrestricted coupled pair/coupled cluster methods 
  Ingolf Harden          : AUTO-CI MPn and infrastructure                
  Benjamin Helmich-Paris : MC-RPA, TRAH-(SCF,CASSCF), AVAS, COSX integrals, SCF dyn. polar. 
  Lee Huntington         : MR-EOM, pCC                                   
  Robert Izsak           : Overlap fitted RIJCOSX, COSX-SCS-MP3, EOM     
  Riya Kayal             : Wick's Theorem for AUTO-CI, AUTO-CI UHF-CCSDT 
  Emily Kempfer          : AUTO-CI, RHF CISDT and CCSDT                  
  Christian Kollmar      : KDIIS, OOCD, Brueckner-CCSD(T), CCSD density, CASPT2, CASPT2-K, improved NEVPT2 
  Axel Koslowski         : Symmetry handling                             
  Simone Kossmann        : meta-GGA functionals, TD-DFT gradient, OOMP2, (MP2 Hessian; deprecated post 5.0) 
  Lucas Lang             : DCDCAS                                        
  Marvin Lechner         : AUTO-CI (C++ implementation), FIC-MRCC        
  Spencer Leger          : CASSCF response                               
  Dagmar Lenk            : GEPOL surface, SMD, ORCA-2-JSON               
  Dimitrios Liakos       : Extrapolation schemes; Compound Job, initial MDCI parallelization 
  Dimitrios Manganas     : Further ROCIS development; embedding schemes. LFT, Crystal Embedding 
  Dimitrios Pantazis     : SARC Basis sets                               
  Anastasios Papadopoulos: AUTO-CI, single reference methods and gradients 
  Taras Petrenko         : pre 6.0 DFT Hessian and TD-DFT gradient, (ASA, deprecated), ECA, 1-Electron XAS/XES, NRVS 
  Peter Pinski           : DLPNO-MP2, DLPNO-MP2 Gradient                 
  Christoph Reimann      : Effective Core Potentials                     
  Marius Retegan         : Local ZFS, SOC                                
  Christoph Riplinger    : Optimizer, TS searches, QM/MM, DLPNO-CCSD(T), (RO)-DLPNO pert. Triples 
  Michael Roemelt        : Original ROCIS implementation                 
  Masaaki Saitow         : Open-shell DLPNO-CCSD energy and density      
  Barbara Sandhoefer     : DKH picture change effects                    
  Kantharuban Sivalingam : CASSCF convergence/infrastructure, NEVPT2 and variants, FIC-MRCI 
  Bernardo de Souza      : ESD, SOC TD-DFT                               
  Georgi L. Stoychev     : AutoAux, RI-MP2 NMR, DLPNO-MP2 response, X2C  
  Van Anh Tran           : RI-MP2 g-tensors                              
  Willem Van den Heuvel  : Paramagnetic NMR                              
  Zikuan Wang            : NOTCH, Electric field optimization            
  Frank Wennmohs         : Technical directorship and infrastructure     
  Hang Xu                : AUTO-CI-Response properties                   
                                                                         
[FACCTs GmbH]                                                            
  Markus Bursch, Miquel Garcia-Rates, Christoph Riplinger, Bernardo de Souza, Georgi L. Stoychev 
                                                                 
  APM, Basis sets (HGBS, AHGBS, def-TZVP (Ac-Lr), def2-XVPD (La-Lu)), CI-OPT, improved COSX, DLPNO-Multilevel,           
  DOCKER, DRACO, updates on ESD, GOAT, IRC, LR-CPCM, MBIS, meta-GGA TD-DFT gradient, ML-optimized integration grids, 
  MM, NACMEs, nearIR, NEB, NEB-TS, NL-DFT gradient (VV10), 2- and 3-layer-ONIOM, interface openCOSMO-RS, QMMM,   
  Crystal-QMMM, SF, symmetry and pop. for TD-DFT, r2SCAN hybrids, SOLVATOR                                   
                                                                         
[Other institutions]                                                     
  V. Asgeirsson          : NEB                                           
  Christoph Bannwarth    : sTDA-DFT, sTD-DFT, PBEh-3c, B97-3c, D3        
  Sebastian Ehlert       : rSCAN, r2SCAN, r2SCAN-3c, D4, dhf basis sets  
  Marvin Friede          : D4 for Fr, Ra, Ac-Lr                          
  Lars Goerigk           : TD-DFT with DH, B97 family of functionals     
  Stefan Grimme          : VdW corrections, initial TS optimization, DFT functionals, gCP, sTDA/sTD-DF 
  Waldemar Hujo          : DFT-NL                                        
  H. Jonsson             : NEB                                           
  Holger Kruse           : gCP                                           
  Marcel Mueller         : wB97X-3c, vDZP basis set                      
  Hagen Neugebauer       : wr2SCAN                                       
  Tobias Risthaus        : range-separated hybrid DFT                    
  Lukas Wittmann         : regularized MP2, r2SCAN double-hybrids, wr2SCAN        
                                                                         
We gratefully acknowledge several colleagues who have allowed us to      
interface, adapt or use parts of their codes:                            
  Ed Valeev, F. Pavosevic, A. Kumar             : LibInt (2-el integral package), F12 methods 
  Garnet Chan, S. Sharma, J. Yang, R. Olivares  : DMRG                   
  Ulf Ekstrom                                   : XCFun DFT Library      
  Mihaly Kallay                                 : mrcc  (arbitrary order and MRCC methods)
  Frank Weinhold                                : gennbo (NPA and NBO analysis)           
  Simon Mueller                                 : openCOSMO-RS                            
  Christopher J. Cramer and Donald G. Truhlar   : smd solvation model                     
  S Lehtola, MJT Oliveira, MAL Marques          : LibXC Library                           
  Liviu Ungur et al                             : ANISO software                          


 Your calculation uses the libint2 library for the computation of 2-el integrals
 For citations please refer to: http://libint.valeyev.net

 Your ORCA version has been built with support for libXC version: 6.2.2
 For citations please refer to: https://libxc.gitlab.io

 This ORCA versions uses:
   CBLAS   interface :  Fast vector & matrix operations
   LAPACKE interface :  Fast linear algebra routines
   SCALAPACK package :  Parallel linear algebra routines
   Shared memory     :  Shared parallel matrices
   BLAS/LAPACK       :  OpenBLAS 0.3.27  USE64BITINT DYNAMIC_ARCH NO_AFFINITY Zen SINGLE_THREADED
        Core in use  :  Zen
   Copyright (c) 2011-2014, The OpenBLAS Project


Your calculation utilizes the geometrical counterpoise correction gCP
Please cite in your paper:
H.Kruse, S. Grimme J.Chem.Phys., 136, (2012), 154101 
   

Your calculation utilizes the DFT-NL dispersion correction.
Cite in your paper:
Vydrov, O. A.; Van Voorhis, T. J. Chem. Phys. 2010, 133, 244103
Hujo, W.; Grimme, S. J. Chem. Theory Comput. 2011, 7, 3866 
   

================================================================================

----- Orbital basis set information -----
Your calculation utilizes the basis: def2-TZVP
   F. Weigend and R. Ahlrichs, Phys. Chem. Chem. Phys. 7, 3297 (2005).

----- AuxJ basis set information -----
Your calculation utilizes the auxiliary basis: def2/J
   F. Weigend, Phys. Chem. Chem. Phys. 8, 1057 (2006).

================================================================================
                                        WARNINGS
                       Please study these warnings very carefully!
================================================================================

WARNING: Old DensityContainer found on disk!
         Will remove this file - 
         If you want to keep old densities, please start your calculation with a different basename. 


================================================================================
                                       INPUT FILE
================================================================================
NAME = sp.inp
|  1> ! wb97x-v def2-tzvp def2/J RIJCOSX DEFGRID2 scfconv7 GCP(DFT/TZ) printgap
|  2> %output
|  3>     printlevel normal
|  4> end
|  5> * xyz 0 1
|  6> C -2.6156123770735555 1.4044538586963662 0.0007400693446153079
|  7> C -1.6179023023060175 0.2889472293701564 -0.0010746032260987113
|  8> C -1.8841297829722614 -1.05726307199085 -0.0013641536647197763
|  9> N -0.7000957847985175 -1.771993022347226 -0.00014668521845875596
| 10> C 0.3584062567787126 -0.8959488374892417 0.0004597754924775154
| 11> C -0.1878761772366538 0.41671871547267436 0.00023074160827107155
| 12> C 0.6907548516222386 1.509190541652008 0.0004168930190236613
| 13> C 2.056406761156138 1.2754141676116584 0.00028463846833873057
| 14> C 2.5716696701438715 -0.03320675648893673 0.0003166401983594492
| 15> C 1.7310164770501661 -1.1362090003910283 0.00043676335686476127
| 16> H -3.2866974338513297 1.3517019660584746 -0.8630354089611414
| 17> H -3.2358774960188765 1.3951852086138805 0.9035281620169003
| 18> H -2.1106561064184115 2.3726936666391403 -0.03745035858095795
| 19> H -2.8357977356870547 -1.5706582935713336 -0.0025630896187597268
| 20> H -0.6271893879548789 -2.7733879113379594 -0.0007111733710166094
| 21> H 0.3083900600170516 2.5254406627954156 0.0006570121866411733
| 22> H 2.7449754244736937 2.1141690561026425 0.00015659750184080526
| 23> H 3.6464860373171515 -0.18246565021456856 0.00016844758538377084
| 24> H 2.1288988689159547 -2.1465293241891006 0.0003872137489726045
| 25> *
| 26> 
| 27>                          ****END OF INPUT****
================================================================================

                       ****************************
                       * Single Point Calculation *
                       ****************************

---------------------------------
CARTESIAN COORDINATES (ANGSTROEM)
---------------------------------
  C     -2.615612    1.404454    0.000740
  C     -1.617902    0.288947   -0.001075
  C     -1.884130   -1.057263   -0.001364
  N     -0.700096   -1.771993   -0.000147
  C      0.358406   -0.895949    0.000460
  C     -0.187876    0.416719    0.000231
  C      0.690755    1.509191    0.000417
  C      2.056407    1.275414    0.000285
  C      2.571670   -0.033207    0.000317
  C      1.731016   -1.136209    0.000437
  H     -3.286697    1.351702   -0.863035
  H     -3.235877    1.395185    0.903528
  H     -2.110656    2.372694   -0.037450
  H     -2.835798   -1.570658   -0.002563
  H     -0.627189   -2.773388   -0.000711
  H      0.308390    2.525441    0.000657
  H      2.744975    2.114169    0.000157
  H      3.646486   -0.182466    0.000168
  H      2.128899   -2.146529    0.000387

----------------------------
CARTESIAN COORDINATES (A.U.)
----------------------------
  NO LB      ZA    FRAG     MASS         X           Y           Z
   0 C     6.0000    0    12.011   -4.942791    2.654033    0.001399
   1 C     6.0000    0    12.011   -3.057392    0.546031   -0.002031
   2 C     6.0000    0    12.011   -3.560489   -1.997938   -0.002578
   3 N     7.0000    0    14.007   -1.322989   -3.348582   -0.000277
   4 C     6.0000    0    12.011    0.677290   -1.693098    0.000869
   5 C     6.0000    0    12.011   -0.355035    0.787484    0.000436
   6 C     6.0000    0    12.011    1.305337    2.851957    0.000788
   7 C     6.0000    0    12.011    3.886046    2.410183    0.000538
   8 C     6.0000    0    12.011    4.859751   -0.062752    0.000598
   9 C     6.0000    0    12.011    3.271147   -2.147124    0.000825
  10 H     1.0000    0     1.008   -6.210958    2.554347   -1.630901
  11 H     1.0000    0     1.008   -6.114922    2.636518    1.707421
  12 H     1.0000    0     1.008   -3.988562    4.483741   -0.070771
  13 H     1.0000    0     1.008   -5.358881   -2.968114   -0.004844
  14 H     1.0000    0     1.008   -1.185216   -5.240944   -0.001344
  15 H     1.0000    0     1.008    0.582773    4.772391    0.001242
  16 H     1.0000    0     1.008    5.187252    3.995201    0.000296
  17 H     1.0000    0     1.008    6.890860   -0.344810    0.000318
  18 H     1.0000    0     1.008    4.023036   -4.056353    0.000732

--------------------------------
INTERNAL COORDINATES (ANGSTROEM)
--------------------------------
 C      0   0   0     0.000000000000     0.00000000     0.00000000
 C      1   0   0     1.496590701027     0.00000000     0.00000000
 C      2   1   0     1.372282525864   127.00399796     0.00000000
 N      3   2   1     1.383031775845   109.93031781   180.13591690
 C      4   3   2     1.374001584294   109.27111147     0.00000000
 C      5   4   3     1.421801904194   107.01682158     0.02719679
 C      6   5   4     1.401958348355   118.59645524   180.01557591
 C      7   6   5     1.385516708151   119.09440699     0.02515153
 C      8   7   6     1.406408400642   121.20569909     0.00000000
 C      9   8   7     1.386835158028   121.19537077     0.00000000
 H      1   2   3     1.095100905182   111.81861641   301.73889188
 H      1   2   3     1.095372569460   111.85088062    62.52283331
 H      1   2   3     1.092669972931   110.63178754   182.12926444
 H      3   2   1     1.081317706881   129.53197794     0.15027438
 H      4   3   2     1.004045509449   125.28085542   180.04399849
 H      7   6   5     1.085802560432   120.57284073   180.02488134
 H      8   7   6     1.085189653224   119.67008340   179.98358572
 H      9   8   7     1.085130620000   119.39784630   179.99746837
 H     10   9   8     1.085844167867   121.19174479   179.99541996

---------------------------
INTERNAL COORDINATES (A.U.)
---------------------------
 C      0   0   0     0.000000000000     0.00000000     0.00000000
 C      1   0   0     2.828146559514     0.00000000     0.00000000
 C      2   1   0     2.593238152249   127.00399796     0.00000000
 N      3   2   1     2.613551290858   109.93031781   180.13591690
 C      4   3   2     2.596486701889   109.27111147     0.00000000
 C      5   4   3     2.686816215614   107.01682158     0.02719679
 C      6   5   4     2.649317329555   118.59645524   180.01557591
 C      7   6   5     2.618247132377   119.09440699     0.02515153
 C      8   7   6     2.657726709660   121.20569909     0.00000000
 C      9   8   7     2.620738641565   121.19537077     0.00000000
 H      1   2   3     2.069440799803   111.81861641   301.73889188
 H      1   2   3     2.069954170889   111.85088062    62.52283331
 H      1   2   3     2.064847003598   110.63178754   182.12926444
 H      3   2   1     2.043394329764   129.53197794     0.15027438
 H      4   3   2     1.897371038852   125.28085542   180.04399849
 H      7   6   5     2.051869474727   120.57284073   180.02488134
 H      8   7   6     2.050711247959   119.67008340   179.98358572
 H      9   8   7     2.050599691332   119.39784630   179.99746837
 H     10   9   8     2.051948101385   121.19174479   179.99541996

---------------------
BASIS SET INFORMATION
---------------------
There are 3 groups of distinct atoms

 Group   1 Type C   : 11s6p2d1f contracted to 5s3p2d1f pattern {62111/411/11/1}
 Group   2 Type N   : 11s6p2d1f contracted to 5s3p2d1f pattern {62111/411/11/1}
 Group   3 Type H   : 5s1p contracted to 3s1p pattern {311/1}

Atom   0C    basis set group =>   1
Atom   1C    basis set group =>   1
Atom   2C    basis set group =>   1
Atom   3N    basis set group =>   2
Atom   4C    basis set group =>   1
Atom   5C    basis set group =>   1
Atom   6C    basis set group =>   1
Atom   7C    basis set group =>   1
Atom   8C    basis set group =>   1
Atom   9C    basis set group =>   1
Atom  10H    basis set group =>   3
Atom  11H    basis set group =>   3
Atom  12H    basis set group =>   3
Atom  13H    basis set group =>   3
Atom  14H    basis set group =>   3
Atom  15H    basis set group =>   3
Atom  16H    basis set group =>   3
Atom  17H    basis set group =>   3
Atom  18H    basis set group =>   3
---------------------------------
AUXILIARY/J BASIS SET INFORMATION
---------------------------------
There are 3 groups of distinct atoms

 Group   1 Type C   : 12s5p4d2f1g contracted to 6s4p3d1f1g pattern {711111/2111/211/2/1}
 Group   2 Type N   : 12s5p4d2f1g contracted to 6s4p3d1f1g pattern {711111/2111/211/2/1}
 Group   3 Type H   : 5s2p1d contracted to 3s1p1d pattern {311/2/1}

Atom   0C    basis set group =>   1
Atom   1C    basis set group =>   1
Atom   2C    basis set group =>   1
Atom   3N    basis set group =>   2
Atom   4C    basis set group =>   1
Atom   5C    basis set group =>   1
Atom   6C    basis set group =>   1
Atom   7C    basis set group =>   1
Atom   8C    basis set group =>   1
Atom   9C    basis set group =>   1
Atom  10H    basis set group =>   3
Atom  11H    basis set group =>   3
Atom  12H    basis set group =>   3
Atom  13H    basis set group =>   3
Atom  14H    basis set group =>   3
Atom  15H    basis set group =>   3
Atom  16H    basis set group =>   3
Atom  17H    basis set group =>   3
Atom  18H    basis set group =>   3

Checking for AutoStart:
The File: sp.gbw exists
Trying to determine its content:
     ... Fine, the file contains calculation information
     ... Fine, the calculation information was read
     ... Fine, the file contains a basis set
     ... Fine, the basis set was read
     ... Fine, the file contains a geometry
     ... Fine, the geometry was read
     ... Fine, the file contains a set of orbitals
     ... Fine, the orbitals can be read
     => possible old guess file was deleted
     => GBW file was renamed to GES file
     => GES file is set as startup file
     => Guess is set to MORead
     ... now leaving AutoStart

------------------------------------------------------------------------------
                             ORCA STARTUP CALCULATIONS
                           -- RI-GTO INTEGRALS CHOSEN --
------------------------------------------------------------------------------
------------------------------------------------------------------------------
                   ___                                                        
                  /   \      - P O W E R E D   B Y -                         
                 /     \                                                     
                 |  |  |   _    _      __       _____    __    __             
                 |  |  |  | |  | |    /  \     |  _  \  |  |  /  |          
                  \  \/   | |  | |   /    \    | | | |  |  | /  /          
                 / \  \   | |__| |  /  /\  \   | |_| |  |  |/  /          
                |  |  |   |  __  | /  /__\  \  |    /   |      \           
                |  |  |   | |  | | |   __   |  |    \   |  |\   \          
                \     /   | |  | | |  |  |  |  | |\  \  |  | \   \       
                 \___/    |_|  |_| |__|  |__|  |_| \__\ |__|  \__/        
                                                                              
                      - O R C A' S   B I G   F R I E N D -                    
                                      &                                       
                       - I N T E G R A L  F E E D E R -                       
                                                                              
 v1 FN, 2020, v2 2021, v3 2022-2024                                           
------------------------------------------------------------------------------


----------------------
SHARK INTEGRAL PACKAGE
----------------------

Number of atoms                             ...     19
Number of basis functions                   ...    364
Number of shells                            ...    146
Maximum angular momentum                    ...      3
Integral batch strategy                     ... SHARK/LIBINT Hybrid
RI-J (if used) integral strategy            ... SPLIT-RIJ (Revised 2003 algorithm where possible)
Printlevel                                  ...      1
Contraction scheme used                     ... SEGMENTED contraction
Prescreening option                         ... SCHWARTZ
   Thresh                                   ... 3.000e-11
   Tcut                                     ... 1.000e-12
   Tpresel                                  ... 1.000e-12 
Coulomb Range Separation                    ... NOT USED
Exchange Range Separation                   ... Long Range
   Mu parameter                             ... 3.000e-01
   Scaling (regular/separated)              ... 1.670e-01 8.330e-01
Multipole approximations                    ... NOT USED
Finite Nucleus Model                        ... NOT USED
CABS basis                                  ... NOT available
Auxiliary Coulomb fitting basis             ... AVAILABLE
   # of basis functions in Aux-J            ...    589
   # of shells in Aux-J                     ...    195
   Maximum angular momentum in Aux-J        ...      4
Auxiliary J/K fitting basis                 ... NOT available
Auxiliary Correlation fitting basis         ... NOT available
Auxiliary 'external' fitting basis          ... NOT available

Checking pre-screening integrals            ... done (  0.0 sec) Dimension = 146
Check shell pair data                       ... done (  0.0 sec)
Shell pair information
Shell pair cut-off parameter TPreSel        ...   1.0e-12
Total number of shell pairs                 ...     10731
Shell pairs after pre-screening             ...      9697
Total number of primitive shell pairs       ...     32632
Primitive shell pairs kept                  ...     21859
          la=0 lb=0:   2579 shell pairs
          la=1 lb=0:   2712 shell pairs
          la=1 lb=1:    733 shell pairs
          la=2 lb=0:   1422 shell pairs
          la=2 lb=1:    738 shell pairs
          la=2 lb=2:    204 shell pairs
          la=3 lb=0:    691 shell pairs
          la=3 lb=1:    368 shell pairs
          la=3 lb=2:    196 shell pairs
          la=3 lb=3:     54 shell pairs

Calculating one electron integrals          ... done (  0.0 sec)
Calculating RI/J V-Matrix + Cholesky decomp.... done (  0.0 sec)
Calculating Nuclear repulsion               ... done (  0.0 sec) ENN=    484.080452508854 Eh

Diagonalization of the overlap matrix:
Smallest eigenvalue                        ... 8.142e-06
Time for diagonalization                   ...    0.009 sec
Threshold for overlap eigenvalues          ... 1.000e-07
Number of eigenvalues below threshold      ... 0
Time for construction of square roots      ...    0.004 sec
Total time needed                          ...    0.014 sec

-------------------
DFT GRID GENERATION
-------------------

General Integration Accuracy     IntAcc      ... 4.388
Radial Grid Type                 RadialGrid  ... OptM3 with GC (2021)
Angular Grid (max. ang.)         AngularGrid ... 4 (Lebedev-302)
Angular grid pruning method      GridPruning ... 4 (adaptive)
Weight generation scheme         WeightScheme... mBecke (2022)
Basis function cutoff            BFCut       ... 1.0000e-11
Integration weight cutoff        WCut        ... 1.0000e-14
Partially contracted basis set               ... off
Rotationally invariant grid construction     ... off
Angular grids for H and He will be reduced by one unit

Total number of grid points                  ...    88871
Total number of batches                      ...     1399
Average number of points per batch           ...       63
Average number of grid points per atom       ...     4677

--------------------
COSX GRID GENERATION
--------------------

GRIDX 1
-------
General Integration Accuracy     IntAcc      ... 3.816
Radial Grid Type                 RadialGrid  ... OptM3 with GC (2021)
Angular Grid (max. ang.)         AngularGrid ... 1 (Lebedev-50)
Angular grid pruning method      GridPruning ... 4 (adaptive)
Weight generation scheme         WeightScheme... mBecke (2022)
Basis function cutoff            BFCut       ... 1.0000e-11
Integration weight cutoff        WCut        ... 1.0000e-14
Partially contracted basis set               ... on
Rotationally invariant grid construction     ... off
Angular grids for H and He will be reduced by one unit

Total number of grid points                  ...    11369
Total number of batches                      ...       98
Average number of points per batch           ...      116
Average number of grid points per atom       ...      598
UseSFitting                                  ... on

GRIDX 2
-------
General Integration Accuracy     IntAcc      ... 4.020
Radial Grid Type                 RadialGrid  ... OptM3 with GC (2021)
Angular Grid (max. ang.)         AngularGrid ... 2 (Lebedev-110)
Angular grid pruning method      GridPruning ... 4 (adaptive)
Weight generation scheme         WeightScheme... mBecke (2022)
Basis function cutoff            BFCut       ... 1.0000e-11
Integration weight cutoff        WCut        ... 1.0000e-14
Partially contracted basis set               ... on
Rotationally invariant grid construction     ... off
Angular grids for H and He will be reduced by one unit

Total number of grid points                  ...    24670
Total number of batches                      ...      202
Average number of points per batch           ...      122
Average number of grid points per atom       ...     1298
UseSFitting                                  ... on

GRIDX 3
-------
General Integration Accuracy     IntAcc      ... 4.338
Radial Grid Type                 RadialGrid  ... OptM3 with GC (2021)
Angular Grid (max. ang.)         AngularGrid ... 3 (Lebedev-194)
Angular grid pruning method      GridPruning ... 4 (adaptive)
Weight generation scheme         WeightScheme... mBecke (2022)
Basis function cutoff            BFCut       ... 1.0000e-11
Integration weight cutoff        WCut        ... 1.0000e-14
Partially contracted basis set               ... on
Rotationally invariant grid construction     ... off
Angular grids for H and He will be reduced by one unit

Total number of grid points                  ...    54137
Total number of batches                      ...      434
Average number of points per batch           ...      124
Average number of grid points per atom       ...     2849
UseSFitting                                  ... on
Initializing property integral containers    ... done (  0.0 sec)

SHARK setup successfully completed in   1.5 seconds

Maximum memory used throughout the entire STARTUP-calculation: 57.7 MB
-------------------------------------------------------------------------------
                                 ORCA GUESS
                   Start orbitals & Density for SCF / CASSCF
-------------------------------------------------------------------------------

------------
SCF SETTINGS
------------
Hamiltonian:
 Density Functional     Method          .... DFT(GTOs)
 Exchange Functional    Exchange        .... WB97X-V
 Correlation Functional Correlation     .... WB97X-V
 Gradients option       PostSCFGGA      .... off
 Hybrid DFT is turned on
   Fraction HF Exchange ScalHFX         ....  0.167000
   Scaling of DF-GGA-X  ScalDFX         ....  0.000000
   Scaling of DF-GGA-C  ScalDFC         ....  1.000000
   Scaling of DF-LDA-C  ScalLDAC        ....  1.000000
   Perturbative correction              ....  0.000000
 Long-range corrected/Screened/Range-Separated Hybrid DFT is turned on
   Amount of maximum screened exact exchange              ....  0.833000
   Range separation parameter mu (erf(mu*r12)/r12)        ....  0.300000
   NL short-range parameter             ....  6.000000
   NL long-range parameter              ....  0.010000
 RI-approximation to the Coulomb term is turned on
   Number of AuxJ basis functions       .... 589
   RIJ-COSX (HFX calculated with COS-X)).... on


General Settings:
 Integral files         IntName         .... sp
 Hartree-Fock type      HFTyp           .... RHF
 Total Charge           Charge          ....    0
 Multiplicity           Mult            ....    1
 Number of Electrons    NEL             ....   70
 Basis Dimension        Dim             ....  364
 Nuclear Repulsion      ENuc            ....    484.0804525089 Eh

Convergence Acceleration:
 AO-DIIS                CNVDIIS         .... on
   Start iteration      DIISMaxIt       ....    12
   Startup error        DIISStart       ....  0.200000
   # of expansion vecs  DIISMaxEq       ....     5
   Bias factor          DIISBfac        ....   1.050
   Max. coefficient     DIISMaxC        ....  10.000
 MO-DIIS                CNVKDIIS        .... off
 Trust-Rad. Augm. Hess. CNVTRAH         .... auto
   Auto Start mean grad. ratio tolernc. ....  1.125000
   Auto Start start iteration           ....     1
   Auto Start num. interpolation iter.  ....    10
   Max. Number of Micro iterations      ....    24
   Max. Number of Macro iterations      .... Maxiter - #DIIS iter
   Number of Davidson start vectors     ....     2
   Converg. threshold    (grad. norm)   ....   1.000e-04
   Grad. Scal. Fac. for Micro threshold ....   0.100
   Minimum threshold for Micro iter.    ....   1.000e-02
   NR start threshold (gradient norm)   ....   1.000e-04
   Initial trust radius                 ....   0.400
   Minimum AH scaling param. (alpha)    ....   1.000
   Maximum AH scaling param. (alpha)    .... 1000.000
   Quad. conv. algorithm                .... NR
   White noise on init. David. guess    .... on
   Maximum white noise                  ....   0.010
   Pseudo random numbers                .... off
   Inactive MOs                         .... canonical
   Orbital update algorithm             .... Taylor
   Preconditioner                       .... Diag
   Full preconditioner red. dimension   ....   250
 SOSCF                  CNVSOSCF        .... on
   Start iteration      SOSCFMaxIt      ....   150
   Startup grad/error   SOSCFStart      ....  0.003300
   Hessian update       SOSCFHessUp     .... L-BFGS
 Level Shifting         CNVShift        .... on
   Level shift para.    LevelShift      ....    0.2500
   Turn off err/grad.   ShiftErr        ....    0.0010
 Zerner damping         CNVZerner       .... off
 Static damping         CNVDamp         .... on
   Fraction old density DampFac         ....    0.7000
   Max. Damping (<1)    DampMax         ....    0.9800
   Min. Damping (>=0)   DampMin         ....    0.0000
   Turn off err/grad.   DampErr         ....    0.1000

SCF Procedure:
 Maximum # iterations   MaxIter         ....   125
 SCF integral mode      SCFMode         .... Direct
   Integral package                     .... SHARK and LIBINT hybrid scheme
 Reset frequency        DirectResetFreq ....    20
 Integral Threshold     Thresh          ....  3.000e-11 Eh
 Primitive CutOff       TCut            ....  1.000e-12 Eh

Convergence Tolerance:
 Convergence Check Mode ConvCheckMode   .... Total+1el-Energy
 Convergence forced     ConvForced      .... 0
 Energy Change          TolE            ....  1.000e-07 Eh
 1-El. energy change                    ....  1.000e-04 Eh
 Orbital Gradient       TolG            ....  1.000e-04
 Orbital Rotation angle TolX            ....  1.000e-04
 DIIS Error             TolErr          ....  1.000e-07

---------------------
INITIAL GUESS: MOREAD
---------------------
Guess MOs are being read from file: sp.ges
Input Geometry matches current geometry (good)
Atom 0: N(Shells)= 11 and 9 - projection required
Input basis set needs projection
NBasis(read)= 240
NBasis(calc)= 364
Basis set overlap was calculated
Using GuessMode=FMatrix for the initial guess
C*T matrix was formed
Effective Fockian was calculated
Effective Fockian was diagonalized
Initial density was built
                      ------------------
                      INITIAL GUESS DONE (   0.0 sec)
                      ------------------
             **** ENERGY FILE WAS UPDATED (sp.en.tmp) ****
Finished Guess after   0.1 sec
Maximum memory used throughout the entire GUESS-calculation: 39.1 MB

-------------------------------------------------------------------------------------------
                                      ORCA LEAN-SCF
                              memory conserving SCF solver
-------------------------------------------------------------------------------------------

----------------------------------------D-I-I-S--------------------------------------------
Iteration    Energy (Eh)           Delta-E    RMSDP     MaxDP     DIISErr   Damp  Time(sec)
-------------------------------------------------------------------------------------------
               ***  Starting incremental Fock matrix formation  ***
    1    -403.4018978366745500     0.00e+00  1.71e-03  8.18e-02  6.24e-02  0.700  16.7
    2    -403.4085308120359628    -6.63e-03  1.40e-03  6.20e-02  4.55e-02  0.700   7.8
                               ***Turning on AO-DIIS***
    3    -403.4135187210324034    -4.99e-03  1.11e-03  4.49e-02  3.26e-02  0.700   7.7
    4    -403.4171840156382700    -3.67e-03  2.70e-03  1.05e-01  2.30e-02  0.000   7.6
                              *** Initializing SOSCF ***
---------------------------------------S-O-S-C-F--------------------------------------
Iteration    Energy (Eh)           Delta-E    RMSDP     MaxDP     MaxGrad    Time(sec)
--------------------------------------------------------------------------------------
    5    -403.4264744184723099    -9.29e-03  9.43e-05  2.70e-03  1.47e-03     7.9
               *** Restarting incremental Fock matrix formation ***
    6    -403.4264967314944101    -2.23e-05  4.27e-05  8.80e-04  7.81e-04    17.1
    7    -403.4265121605506579    -1.54e-05  2.68e-05  8.33e-04  3.72e-04    12.7
    8    -403.4265157726751454    -3.61e-06  6.93e-06  2.74e-04  9.53e-05    12.5
    9    -403.4265160109138719    -2.38e-07  2.53e-06  1.20e-04  7.76e-05    11.3
   10    -403.4265161933379318    -1.82e-07  9.33e-07  2.55e-05  1.48e-05    10.6
                  *** Gradient check signals convergence ***

               *****************************************************
               *                     SUCCESS                       *
               *           SCF CONVERGED AFTER  10 CYCLES          *
               *****************************************************


------------------
NL GRID GENERATION
------------------

General Integration Accuracy     IntAcc      ... 4.004
Radial Grid Type                 RadialGrid  ... OptM3 with GC (2021)
Angular Grid (max. ang.)         AngularGrid ... 2 (Lebedev-110)
Angular grid pruning method      GridPruning ... 4 (adaptive)
Weight generation scheme         WeightScheme... mBecke (2022)
Basis function cutoff            BFCut       ... 1.0000e-10
Integration weight cutoff        WCut        ... 1.0000e-14
Partially contracted basis set               ... off
Rotationally invariant grid construction     ... off
Angular grids for H and He will be reduced by one unit

Total number of grid points                  ...    28180
Total number of batches                      ...      451
Average number of points per batch           ...       62
Average number of grid points per atom       ...     1483
Final grid set up in    0.1 sec

-------------------------------------------------------------------------------
                    post-SCF DFT-NL dispersion correction                      
-------------------------------------------------------------------------------

SCF Energy:     -403.426516193 
NL    Energy:      0.262945191 
SC+NL Energy:   -403.163571002 
NL done in  :              2.5 sec
-------------------------------------------------------------------------------
Recomputing exchange energy using gridx3       ... done (   31.962 sec)
Old exchange energy                            :    -18.540504628 Eh
New exchange energy                            :    -18.540499013 Eh
Exchange energy change after final integration :      0.000005615 Eh
Total energy after final integration           :   -403.163565387 Eh
             **** ENERGY FILE WAS UPDATED (sp.en.tmp) ****

----------------
TOTAL SCF ENERGY
----------------

Total Energy       :       -403.16356538683391 Eh          -10970.63835 eV

Components:
Nuclear Repulsion  :        484.08045250885397 Eh           13172.49879 eV
Electronic Energy  :       -887.50696870219190 Eh          -24150.29240 eV
One Electron Energy:      -1502.83931395064519 Eh          -40894.33676 eV
Two Electron Energy:        615.33234524845329 Eh           16744.04436 eV

Virial components:
Potential Energy   :       -804.70866688250874 Eh          -21897.23606 eV
Kinetic Energy     :        401.54510149567483 Eh           10926.59771 eV
Virial Ratio       :          2.00403059054918

DFT components:
N(Alpha)           :       34.999994949333 electrons
N(Beta)            :       34.999994949333 electrons
N(Total)           :       69.999989898666 electrons
E(X)               :      -37.962961844307 Eh       
E(C)               :       -2.892618228006 Eh       
NL Energy, E(C,NL) :        0.262945191330 Eh       
E(XC)              :      -40.592634880983 Eh       

---------------
SCF CONVERGENCE
---------------

  Last Energy change         ...    1.8242e-07  Tolerance :   1.0000e-07
  Last MAX-Density change    ...    2.5508e-05  Tolerance :   1.0000e-05
  Last RMS-Density change    ...    9.3258e-07  Tolerance :   1.0000e-06
  Last DIIS Error            ...    1.4728e-03  Tolerance :   1.0000e-07
  Last Orbital Gradient      ...    1.4754e-05  Tolerance :   1.0000e-04
  Last Orbital Rotation      ...    4.2851e-05  Tolerance :   1.0000e-04


----------------
ORBITAL ENERGIES
----------------

  NO   OCC          E(Eh)            E(eV) 
   0   2.0000     -14.450327      -393.2134 
   1   2.0000     -10.300623      -280.2942 
   2   2.0000     -10.298364      -280.2327 
   3   2.0000     -10.270736      -279.4809 
   4   2.0000     -10.267318      -279.3879 
   5   2.0000     -10.266175      -279.3568 
   6   2.0000     -10.265108      -279.3278 
   7   2.0000     -10.264734      -279.3176 
   8   2.0000     -10.264234      -279.3040 
   9   2.0000     -10.260384      -279.1992 
  10   2.0000      -1.113042       -30.2874 
  11   2.0000      -0.974361       -26.5137 
  12   2.0000      -0.929583       -25.2952 
  13   2.0000      -0.866049       -23.5664 
  14   2.0000      -0.857434       -23.3320 
  15   2.0000      -0.818677       -22.2773 
  16   2.0000      -0.744125       -20.2487 
  17   2.0000      -0.712419       -19.3859 
  18   2.0000      -0.677363       -18.4320 
  19   2.0000      -0.652298       -17.7499 
  20   2.0000      -0.594873       -16.1873 
  21   2.0000      -0.583322       -15.8730 
  22   2.0000      -0.550072       -14.9682 
  23   2.0000      -0.549824       -14.9615 
  24   2.0000      -0.537354       -14.6221 
  25   2.0000      -0.517365       -14.0782 
  26   2.0000      -0.510543       -13.8926 
  27   2.0000      -0.496202       -13.5023 
  28   2.0000      -0.478478       -13.0200 
  29   2.0000      -0.450947       -12.2709 
  30   2.0000      -0.446695       -12.1552 
  31   2.0000      -0.432692       -11.7741 
  32   2.0000      -0.374284       -10.1848 
  33   2.0000      -0.310649        -8.4532 
  34   2.0000      -0.287559        -7.8249 
  35   0.0000       0.059094         1.6080 
  36   0.0000       0.100426         2.7327 
  37   0.0000       0.110076         2.9953 
  38   0.0000       0.125397         3.4122 
  39   0.0000       0.138668         3.7733 
  40   0.0000       0.141804         3.8587 
  41   0.0000       0.158581         4.3152 
  42   0.0000       0.165646         4.5075 
  43   0.0000       0.181788         4.9467 
  44   0.0000       0.195029         5.3070 
  45   0.0000       0.203374         5.5341 
*Only the first 10 virtual orbitals were printed.

                    ********************************
                    * MULLIKEN POPULATION ANALYSIS *
                    ********************************

-----------------------
MULLIKEN ATOMIC CHARGES
-----------------------
   0 C :   -0.365175
   1 C :   -0.024767
   2 C :   -0.060013
   3 N :   -0.228124
   4 C :    0.158760
   5 C :    0.052878
   6 C :   -0.208036
   7 C :   -0.132611
   8 C :   -0.096739
   9 C :   -0.239726
  10 H :    0.121856
  11 H :    0.122488
  12 H :    0.115035
  13 H :    0.136363
  14 H :    0.220062
  15 H :    0.104874
  16 H :    0.108078
  17 H :    0.111182
  18 H :    0.103616
Sum of atomic charges:    0.0000000

--------------------------------
MULLIKEN REDUCED ORBITAL CHARGES
--------------------------------
  0 C s       :     3.287091  s :     3.287091
      pz      :     1.054350  p :     3.018750
      px      :     1.009586
      py      :     0.954814
      dz2     :     0.005039  d :     0.056062
      dxz     :     0.018805
      dyz     :     0.009485
      dx2y2   :     0.015528
      dxy     :     0.007206
      f0      :     0.000333  f :     0.003271
      f+1     :     0.001002
      f-1     :     0.000019
      f+2     :    -0.000001
      f-2     :     0.000465
      f+3     :     0.000879
      f-3     :     0.000574

  1 C s       :     3.223142  s :     3.223142
      pz      :     1.019546  p :     2.654919
      px      :     0.809984
      py      :     0.825389
      dz2     :     0.005961  d :     0.136382
      dxz     :     0.024877
      dyz     :     0.026137
      dx2y2   :     0.038477
      dxy     :     0.040930
      f0      :     0.001827  f :     0.010324
      f+1     :     0.000850
      f-1     :     0.000819
      f+2     :     0.001390
      f-2     :     0.000733
      f+3     :     0.002089
      f-3     :     0.002616

  2 C s       :     3.150290  s :     3.150290
      pz      :     1.043126  p :     2.795439
      px      :     0.859314
      py      :     0.892999
      dz2     :     0.004096  d :     0.103280
      dxz     :     0.013485
      dyz     :     0.030099
      dx2y2   :     0.021738
      dxy     :     0.033862
      f0      :     0.001970  f :     0.011005
      f+1     :     0.001144
      f-1     :     0.000775
      f+2     :     0.001059
      f-2     :     0.001573
      f+3     :     0.002452
      f-3     :     0.002031

  3 N s       :     3.389457  s :     3.389457
      pz      :     1.589523  p :     3.766348
      px      :     1.118252
      py      :     1.058573
      dz2     :     0.004719  d :     0.067615
      dxz     :     0.019035
      dyz     :     0.004755
      dx2y2   :     0.023158
      dxy     :     0.015948
      f0      :     0.000833  f :     0.004705
      f+1     :     0.000614
      f-1     :     0.000758
      f+2     :     0.000018
      f-2     :     0.000693
      f+3     :     0.000978
      f-3     :     0.000811

  4 C s       :     3.010953  s :     3.010953
      pz      :     0.953957  p :     2.672643
      px      :     0.858010
      py      :     0.860676
      dz2     :     0.003400  d :     0.143174
      dxz     :     0.035063
      dyz     :     0.028974
      dx2y2   :     0.034224
      dxy     :     0.041514
      f0      :     0.002453  f :     0.014470
      f+1     :     0.001162
      f-1     :     0.000915
      f+2     :     0.001124
      f-2     :     0.002332
      f+3     :     0.002844
      f-3     :     0.003640

  5 C s       :     3.229088  s :     3.229088
      pz      :     0.976763  p :     2.561534
      px      :     0.766085
      py      :     0.818686
      dz2     :     0.006227  d :     0.145387
      dxz     :     0.030451
      dyz     :     0.020395
      dx2y2   :     0.038984
      dxy     :     0.049330
      f0      :     0.002030  f :     0.011113
      f+1     :     0.000846
      f-1     :     0.000812
      f+2     :     0.001161
      f-2     :     0.001146
      f+3     :     0.001697
      f-3     :     0.003421

  6 C s       :     3.229087  s :     3.229087
      pz      :     0.982784  p :     2.879981
      px      :     0.935286
      py      :     0.961911
      dz2     :     0.004119  d :     0.091646
      dxz     :     0.024376
      dyz     :     0.007539
      dx2y2   :     0.029521
      dxy     :     0.026091
      f0      :     0.001540  f :     0.007322
      f+1     :     0.000598
      f-1     :     0.000665
      f+2     :     0.000587
      f-2     :     0.000733
      f+3     :     0.001291
      f-3     :     0.001907

  7 C s       :     3.160407  s :     3.160407
      pz      :     1.003906  p :     2.879253
      px      :     0.935905
      py      :     0.939441
      dz2     :     0.004658  d :     0.085460
      dxz     :     0.016914
      dyz     :     0.012182
      dx2y2   :     0.021094
      dxy     :     0.030612
      f0      :     0.001627  f :     0.007491
      f+1     :     0.000646
      f-1     :     0.000689
      f+2     :     0.001114
      f-2     :     0.000241
      f+3     :     0.001293
      f-3     :     0.001881

  8 C s       :     3.144991  s :     3.144991
      pz      :     0.981089  p :     2.857838
      px      :     0.954287
      py      :     0.922462
      dz2     :     0.004450  d :     0.086364
      dxz     :     0.005449
      dyz     :     0.026089
      dx2y2   :     0.029203
      dxy     :     0.021174
      f0      :     0.001625  f :     0.007546
      f+1     :     0.000692
      f-1     :     0.000638
      f+2     :     0.000266
      f-2     :     0.001166
      f+3     :     0.001235
      f-3     :     0.001924

  9 C s       :     3.247258  s :     3.247258
      pz      :     1.026860  p :     2.903170
      px      :     0.884675
      py      :     0.991635
      dz2     :     0.004341  d :     0.082055
      dxz     :     0.022100
      dyz     :     0.007196
      dx2y2   :     0.026514
      dxy     :     0.021903
      f0      :     0.001586  f :     0.007243
      f+1     :     0.000622
      f-1     :     0.000719
      f+2     :     0.000605
      f-2     :     0.000666
      f+3     :     0.001169
      f-3     :     0.001878

 10 H s       :     0.857188  s :     0.857188
      pz      :     0.009379  p :     0.020956
      px      :     0.007417
      py      :     0.004161

 11 H s       :     0.856541  s :     0.856541
      pz      :     0.009855  p :     0.020971
      px      :     0.006955
      py      :     0.004161

 12 H s       :     0.863447  s :     0.863447
      pz      :     0.004342  p :     0.021519
      px      :     0.005776
      py      :     0.011401

 13 H s       :     0.841976  s :     0.841976
      pz      :     0.004943  p :     0.021661
      px      :     0.011517
      py      :     0.005201

 14 H s       :     0.740816  s :     0.740816
      pz      :     0.012182  p :     0.039122
      px      :     0.005848
      py      :     0.021092

 15 H s       :     0.873095  s :     0.873095
      pz      :     0.004594  p :     0.022031
      px      :     0.004738
      py      :     0.012699

 16 H s       :     0.869774  s :     0.869774
      pz      :     0.004906  p :     0.022148
      px      :     0.007604
      py      :     0.009638

 17 H s       :     0.866725  s :     0.866725
      pz      :     0.004765  p :     0.022093
      px      :     0.013611
      py      :     0.003717

 18 H s       :     0.874470  s :     0.874470
      pz      :     0.004825  p :     0.021914
      px      :     0.004871
      py      :     0.012217


------------------------
MULLIKEN OVERLAP CHARGES
------------------------
B(  0-C ,  1-C ) :   0.4918 B(  0-C ,  2-C ) :  -0.1374 B(  0-C ,  5-C ) :  -0.0885 
B(  0-C , 10-H ) :   0.8371 B(  0-C , 11-H ) :   0.8296 B(  0-C , 12-H ) :   0.8965 
B(  1-C ,  2-C ) :   1.2370 B(  1-C ,  3-N ) :  -0.1938 B(  1-C ,  4-C ) :  -0.1303 
B(  1-C ,  5-C ) :   0.9197 B(  1-C ,  6-C ) :  -0.2578 B(  1-C , 10-H ) :  -0.0808 
B(  1-C , 11-H ) :  -0.0754 B(  1-C , 12-H ) :  -0.1458 B(  2-C ,  3-N ) :   0.7798 
B(  2-C ,  4-C ) :  -0.2113 B(  2-C ,  5-C ) :  -0.1999 B(  2-C , 13-H ) :   0.8151 
B(  2-C , 14-H ) :  -0.0810 B(  3-N ,  4-C ) :   0.8163 B(  3-N ,  5-C ) :  -0.1519 
B(  3-N ,  9-C ) :  -0.0972 B(  3-N , 13-H ) :  -0.0631 B(  3-N , 14-H ) :   0.7661 
B(  4-C ,  5-C ) :   0.9470 B(  4-C ,  6-C ) :  -0.1193 B(  4-C ,  7-C ) :  -0.1224 
B(  4-C ,  8-C ) :  -0.1021 B(  4-C ,  9-C ) :   0.9116 B(  4-C , 14-H ) :  -0.0748 
B(  4-C , 18-H ) :  -0.1085 B(  5-C ,  6-C ) :   0.9146 B(  5-C ,  7-C ) :  -0.0692 
B(  5-C ,  8-C ) :  -0.1167 B(  5-C , 15-H ) :  -0.1200 B(  6-C ,  7-C ) :   1.1075 
B(  6-C ,  9-C ) :  -0.0828 B(  6-C , 15-H ) :   0.8493 B(  6-C , 16-H ) :  -0.1086 
B(  7-C ,  8-C ) :   0.9964 B(  7-C , 15-H ) :  -0.0706 B(  7-C , 16-H ) :   0.8690 
B(  7-C , 17-H ) :  -0.0979 B(  8-C ,  9-C ) :   1.1038 B(  8-C , 16-H ) :  -0.1058 
B(  8-C , 17-H ) :   0.8619 B(  8-C , 18-H ) :  -0.0582 B(  9-C , 17-H ) :  -0.1088 
B(  9-C , 18-H ) :   0.8356 B( 10-H , 11-H ) :  -0.0656 


                     *******************************
                     * LOEWDIN POPULATION ANALYSIS *
                     *******************************

----------------------
LOEWDIN ATOMIC CHARGES
----------------------
   0 C :   -0.257482
   1 C :   -0.181397
   2 C :   -0.177890
   3 N :    0.187529
   4 C :   -0.161256
   5 C :   -0.100224
   6 C :   -0.111291
   7 C :   -0.160582
   8 C :   -0.150922
   9 C :   -0.134178
  10 H :    0.125150
  11 H :    0.125102
  12 H :    0.125292
  13 H :    0.131292
  14 H :    0.182044
  15 H :    0.140573
  16 H :    0.138904
  17 H :    0.139736
  18 H :    0.139600

-------------------------------
LOEWDIN REDUCED ORBITAL CHARGES
-------------------------------
  0 C s       :     2.810292  s :     2.810292
      pz      :     1.069186  p :     3.162605
      px      :     1.048183
      py      :     1.045236
      dz2     :     0.033387  d :     0.259472
      dxz     :     0.081789
      dyz     :     0.026824
      dx2y2   :     0.063658
      dxy     :     0.053814
      f0      :     0.002289  f :     0.025112
      f+1     :     0.003894
      f-1     :     0.002732
      f+2     :     0.003156
      f-2     :     0.003267
      f+3     :     0.005771
      f-3     :     0.004003

  1 C s       :     2.704769  s :     2.704769
      pz      :     0.905368  p :     2.903330
      px      :     0.977457
      py      :     1.020505
      dz2     :     0.032156  d :     0.513768
      dxz     :     0.074386
      dyz     :     0.082253
      dx2y2   :     0.166770
      dxy     :     0.158202
      f0      :     0.004316  f :     0.059529
      f+1     :     0.003957
      f-1     :     0.004502
      f+2     :     0.009767
      f-2     :     0.005126
      f+3     :     0.013827
      f-3     :     0.018033

  2 C s       :     2.765405  s :     2.765405
      pz      :     0.959988  p :     2.888488
      px      :     0.914147
      py      :     1.014353
      dz2     :     0.031750  d :     0.459023
      dxz     :     0.047543
      dyz     :     0.095559
      dx2y2   :     0.115549
      dxy     :     0.168623
      f0      :     0.004607  f :     0.064974
      f+1     :     0.005390
      f-1     :     0.004657
      f+2     :     0.007902
      f-2     :     0.010228
      f+3     :     0.018792
      f-3     :     0.013400

  3 N s       :     2.892927  s :     2.892927
      pz      :     1.392611  p :     3.660287
      px      :     1.160632
      py      :     1.107044
      dz2     :     0.013308  d :     0.241542
      dxz     :     0.056054
      dyz     :     0.013979
      dx2y2   :     0.093531
      dxy     :     0.064670
      f0      :     0.001283  f :     0.017715
      f+1     :     0.001653
      f-1     :     0.001816
      f+2     :     0.000225
      f-2     :     0.004056
      f+3     :     0.006159
      f-3     :     0.002524

  4 C s       :     2.684419  s :     2.684419
      pz      :     0.875395  p :     2.787017
      px      :     0.970720
      py      :     0.940902
      dz2     :     0.040936  d :     0.608695
      dxz     :     0.111418
      dyz     :     0.091886
      dx2y2   :     0.163815
      dxy     :     0.200640
      f0      :     0.005592  f :     0.081125
      f+1     :     0.006189
      f-1     :     0.004705
      f+2     :     0.007071
      f-2     :     0.015540
      f+3     :     0.018650
      f-3     :     0.023378

  5 C s       :     2.682132  s :     2.682132
      pz      :     0.872848  p :     2.836932
      px      :     0.972053
      py      :     0.992031
      dz2     :     0.034766  d :     0.520303
      dxz     :     0.091193
      dyz     :     0.066419
      dx2y2   :     0.165182
      dxy     :     0.162743
      f0      :     0.003959  f :     0.060857
      f+1     :     0.004120
      f-1     :     0.004284
      f+2     :     0.008094
      f-2     :     0.006995
      f+3     :     0.011114
      f-3     :     0.022291

  6 C s       :     2.755329  s :     2.755329
      pz      :     0.890296  p :     2.928843
      px      :     1.049765
      py      :     0.988782
      dz2     :     0.024101  d :     0.384512
      dxz     :     0.076642
      dyz     :     0.021916
      dx2y2   :     0.131869
      dxy     :     0.129984
      f0      :     0.003037  f :     0.042607
      f+1     :     0.004046
      f-1     :     0.003336
      f+2     :     0.004244
      f-2     :     0.005142
      f+3     :     0.009379
      f-3     :     0.013425

  7 C s       :     2.761939  s :     2.761939
      pz      :     0.917610  p :     2.970552
      px      :     1.038371
      py      :     1.014572
      dz2     :     0.024795  d :     0.385703
      dxz     :     0.054247
      dyz     :     0.040341
      dx2y2   :     0.102221
      dxy     :     0.164099
      f0      :     0.003024  f :     0.042388
      f+1     :     0.003910
      f-1     :     0.003590
      f+2     :     0.007372
      f-2     :     0.001603
      f+3     :     0.009238
      f-3     :     0.013650

  8 C s       :     2.762832  s :     2.762832
      pz      :     0.899922  p :     2.954868
      px      :     0.988779
      py      :     1.066167
      dz2     :     0.024761  d :     0.390541
      dxz     :     0.013578
      dyz     :     0.087561
      dx2y2   :     0.160344
      dxy     :     0.104297
      f0      :     0.003057  f :     0.042681
      f+1     :     0.003165
      f-1     :     0.004275
      f+2     :     0.001808
      f-2     :     0.007664
      f+3     :     0.008942
      f-3     :     0.013770

  9 C s       :     2.755871  s :     2.755871
      pz      :     0.924131  p :     2.956913
      px      :     1.028241
      py      :     1.004541
      dz2     :     0.024512  d :     0.378428
      dxz     :     0.076469
      dyz     :     0.020884
      dx2y2   :     0.137233
      dxy     :     0.119331
      f0      :     0.003148  f :     0.042966
      f+1     :     0.004220
      f-1     :     0.003431
      f+2     :     0.004708
      f-2     :     0.004898
      f+3     :     0.009007
      f-3     :     0.013553

 10 H s       :     0.814860  s :     0.814860
      pz      :     0.026924  p :     0.059990
      px      :     0.020311
      py      :     0.012754

 11 H s       :     0.814914  s :     0.814914
      pz      :     0.028157  p :     0.059985
      px      :     0.019153
      py      :     0.012674

 12 H s       :     0.814669  s :     0.814669
      pz      :     0.013476  p :     0.060039
      px      :     0.017768
      py      :     0.028794

 13 H s       :     0.807419  s :     0.807419
      pz      :     0.015375  p :     0.061289
      px      :     0.030884
      py      :     0.015030

 14 H s       :     0.711383  s :     0.711383
      pz      :     0.033540  p :     0.106572
      px      :     0.016988
      py      :     0.056044

 15 H s       :     0.801188  s :     0.801188
      pz      :     0.013459  p :     0.058238
      px      :     0.013612
      py      :     0.031167

 16 H s       :     0.802824  s :     0.802824
      pz      :     0.014064  p :     0.058273
      px      :     0.019717
      py      :     0.024491

 17 H s       :     0.802124  s :     0.802124
      pz      :     0.013670  p :     0.058139
      px      :     0.033326
      py      :     0.011143

 18 H s       :     0.801815  s :     0.801815
      pz      :     0.014231  p :     0.058585
      px      :     0.014008
      py      :     0.030346


---------------------------------
LOEWDIN BOND ORDERS (THRESH 0.050000)
---------------------------------
B(  0-C ,  1-C ) :   1.2355 B(  0-C ,  2-C ) :   0.1800 B(  0-C ,  5-C ) :   0.1365 
B(  0-C , 10-H ) :   0.8979 B(  0-C , 11-H ) :   0.8979 B(  0-C , 12-H ) :   0.8929 
B(  1-C ,  2-C ) :   1.6738 B(  1-C ,  3-N ) :   0.2300 B(  1-C ,  4-C ) :   0.2246 
B(  1-C ,  5-C ) :   1.2327 B(  1-C ,  6-C ) :   0.1560 B(  1-C , 10-H ) :   0.0821 
B(  1-C , 11-H ) :   0.0818 B(  1-C , 12-H ) :   0.0854 B(  1-C , 13-H ) :   0.0884 
B(  2-C ,  3-N ) :   1.4400 B(  2-C ,  4-C ) :   0.2609 B(  2-C ,  5-C ) :   0.2778 
B(  2-C , 13-H ) :   0.8650 B(  2-C , 14-H ) :   0.0800 B(  3-N ,  4-C ) :   1.3948 
B(  3-N ,  5-C ) :   0.1938 B(  3-N ,  9-C ) :   0.1418 B(  3-N , 13-H ) :   0.0623 
B(  3-N , 14-H ) :   0.8777 B(  4-C ,  5-C ) :   1.2537 B(  4-C ,  6-C ) :   0.2041 
B(  4-C ,  7-C ) :   0.0879 B(  4-C ,  8-C ) :   0.2479 B(  4-C ,  9-C ) :   1.4598 
B(  4-C , 14-H ) :   0.0815 B(  4-C , 18-H ) :   0.0948 B(  5-C ,  6-C ) :   1.4211 
B(  5-C ,  7-C ) :   0.2371 B(  5-C ,  8-C ) :   0.0850 B(  5-C ,  9-C ) :   0.1932 
B(  5-C , 15-H ) :   0.0911 B(  6-C ,  7-C ) :   1.6446 B(  6-C ,  8-C ) :   0.2361 
B(  6-C ,  9-C ) :   0.1043 B(  6-C , 15-H ) :   0.8276 B(  6-C , 16-H ) :   0.0988 
B(  7-C ,  8-C ) :   1.5195 B(  7-C ,  9-C ) :   0.2333 B(  7-C , 15-H ) :   0.0970 
B(  7-C , 16-H ) :   0.8324 B(  7-C , 17-H ) :   0.0930 B(  8-C ,  9-C ) :   1.6358 
B(  8-C , 16-H ) :   0.0938 B(  8-C , 17-H ) :   0.8322 B(  8-C , 18-H ) :   0.0955 
B(  9-C , 17-H ) :   0.0987 B(  9-C , 18-H ) :   0.8314 

------------------------------------------
LOEWDIN REDUCED ORBITAL POPULATIONS PER MO
-------------------------------------------
THRESHOLD FOR PRINTING IS 0.1%%
                      0         1         2         3         4         5   
                 -14.45033 -10.30062 -10.29836 -10.27074 -10.26732 -10.26618
                   2.00000   2.00000   2.00000   2.00000   2.00000   2.00000
                  --------  --------  --------  --------  --------  --------
 1 C  py              0.0       0.0       0.1       0.0       0.0       0.0
 1 C  dx2y2           0.0       0.0       0.2       0.0       0.0       0.0
 2 C  s               0.0       0.0      98.9       0.0       0.0       0.0
 3 N  s              99.3       0.0       0.0       0.0       0.0       0.0
 3 N  dxy             0.0       0.1       0.1       0.0       0.0       0.0
 4 C  s               0.0      98.6       0.0       0.0       0.0       0.0
 4 C  px              0.0       0.0       0.0       0.1       0.0       0.0
 4 C  dx2y2           0.0       0.0       0.0       0.2       0.0       0.0
 4 C  dxy             0.1       0.0       0.0       0.0       0.0       0.0
 5 C  s               0.0       0.0       0.0       0.0       1.1       0.0
 5 C  py              0.0       0.1       0.0       0.0       0.1       0.0
 5 C  dx2y2           0.0       0.1       0.0       0.0       0.0       0.0
 5 C  dxy             0.0       0.1       0.0       0.0       0.2       0.0
 6 C  s               0.0       0.0       0.0       0.0      97.5       0.0
 7 C  s               0.0       0.0       0.0       0.0       0.2       0.2
 7 C  px              0.0       0.0       0.0       0.0       0.1       0.0
 7 C  py              0.0       0.0       0.0       0.0       0.0       0.1
 7 C  dx2y2           0.0       0.0       0.0       0.0       0.2       0.1
 7 C  dxy             0.0       0.0       0.0       0.0       0.0       0.1
 8 C  s               0.0       0.0       0.0       0.4       0.0      98.2
 8 C  dxy             0.0       0.0       0.0       0.2       0.0       0.0
 9 C  s               0.0       0.0       0.0      98.3       0.0       0.4
 9 C  px              0.0       0.1       0.0       0.0       0.0       0.1
 9 C  dx2y2           0.0       0.2       0.0       0.0       0.0       0.0
 9 C  dxy             0.0       0.0       0.0       0.0       0.0       0.2

                      6         7         8         9        10        11   
                 -10.26511 -10.26473 -10.26423 -10.26038  -1.11304  -0.97436
                   2.00000   2.00000   2.00000   2.00000   2.00000   2.00000
                  --------  --------  --------  --------  --------  --------
 0 C  s               0.9       2.8      95.7       0.0       0.2       0.2
 0 C  px              0.0       0.0       0.0       0.0       0.1       0.1
 0 C  py              0.0       0.0       0.0       0.0       0.2       0.0
 1 C  s              51.4      43.8       3.4       0.0       3.6       0.7
 1 C  px              0.0       0.1       0.0       0.0       0.8       1.0
 1 C  py              0.0       0.0       0.1       0.0       2.4       0.6
 1 C  dz2             0.1       0.0       0.1       0.0       0.4       0.0
 1 C  dx2y2           0.1       0.1       0.0       0.0       0.1       0.4
 1 C  dxy             0.0       0.0       0.1       0.0       0.1       0.0
 2 C  s               0.0       0.0       0.0       0.0      10.0       0.7
 2 C  px              0.0       0.0       0.0       0.0       6.0       0.3
 2 C  py              0.1       0.1       0.0       0.0       0.4       1.2
 2 C  dz2             0.0       0.0       0.0       0.0       0.9       0.0
 2 C  dx2y2           0.1       0.1       0.0       0.0       0.3       0.0
 2 C  dxy             0.0       0.0       0.0       0.0       0.6       0.4
 2 C  f+1             0.0       0.0       0.0       0.0       0.1       0.0
 2 C  f-3             0.0       0.0       0.0       0.0       0.2       0.0
 3 N  s               0.0       0.0       0.0       0.0      31.7       3.6
 3 N  px              0.0       0.0       0.0       0.0       0.0       1.0
 3 N  py              0.0       0.0       0.0       0.0       1.6       0.5
 3 N  dz2             0.0       0.0       0.0       0.0       0.4       0.0
 4 C  s               0.0       0.0       0.0       0.0      11.2       4.0
 4 C  px              0.0       0.0       0.0       0.0       4.7       3.9
 4 C  py              0.1       0.0       0.0       0.0       1.0       3.9
 4 C  dz2             0.0       0.0       0.0       0.0       1.2       0.2
 4 C  dx2y2           0.0       0.1       0.0       0.0       0.1       0.0
 4 C  dxy             0.0       0.1       0.0       0.0       0.8       0.5
 4 C  f-3             0.0       0.0       0.0       0.0       0.2       0.0
 5 C  s              45.6      51.5       0.3       0.0       4.0       8.1
 5 C  px              0.1       0.0       0.0       0.0       0.2       2.7
 5 C  py              0.0       0.0       0.0       0.0       2.8       0.3
 5 C  dz2             0.0       0.0       0.0       0.0       0.5       0.4
 5 C  dx2y2           0.1       0.1       0.0       0.0       0.2       0.0
 6 C  s               0.6       0.5       0.0       0.2       0.4      11.2
 6 C  px              0.0       0.0       0.0       0.1       0.1       0.5
 6 C  py              0.0       0.0       0.0       0.0       0.4       2.1
 6 C  dz2             0.0       0.0       0.0       0.1       0.0       0.5
 6 C  dx2y2           0.0       0.0       0.0       0.2       0.0       0.0
 6 C  dxy             0.1       0.1       0.0       0.0       0.0       0.0
 7 C  s               0.0       0.0       0.0      98.4       0.1      11.7
 7 C  px              0.0       0.0       0.0       0.0       0.1       1.1
 7 C  py              0.0       0.0       0.0       0.0       0.1       1.6
 7 C  dz2             0.0       0.0       0.0       0.0       0.0       0.6
 8 C  s               0.0       0.0       0.0       0.2       0.2      11.4
 8 C  px              0.0       0.0       0.0       0.0       0.2       2.5
 8 C  py              0.0       0.0       0.0       0.1       0.0       0.1
 8 C  dz2             0.0       0.0       0.0       0.1       0.0       0.6
 8 C  dx2y2           0.0       0.0       0.0       0.1       0.0       0.1
 8 C  dxy             0.0       0.0       0.0       0.1       0.0       0.0
 9 C  s               0.0       0.0       0.0       0.0       1.2       9.0
 9 C  px              0.0       0.0       0.0       0.0       1.5       0.0
 9 C  py              0.0       0.0       0.0       0.0       0.0       3.0
 9 C  dz2             0.0       0.0       0.0       0.0       0.1       0.4
 9 C  dx2y2           0.0       0.0       0.0       0.0       0.2       0.0
13 H  s               0.0       0.0       0.0       0.0       1.0       0.1
14 H  s               0.0       0.0       0.0       0.0       5.4       1.1
14 H  py              0.0       0.0       0.0       0.0       0.8       0.2
15 H  s               0.0       0.0       0.0       0.0       0.1       1.5
16 H  s               0.0       0.0       0.0       0.0       0.0       1.6
17 H  s               0.0       0.0       0.0       0.0       0.0       1.5
17 H  px              0.0       0.0       0.0       0.0       0.0       0.1
18 H  s               0.0       0.0       0.0       0.0       0.2       1.1

                     12        13        14        15        16        17   
                  -0.92958  -0.86605  -0.85743  -0.81868  -0.74413  -0.71242
                   2.00000   2.00000   2.00000   2.00000   2.00000   2.00000
                  --------  --------  --------  --------  --------  --------
 0 C  s               9.2       2.8       7.4      17.8       0.3       0.2
 0 C  px              1.1       0.0       0.0       0.1       0.0       1.2
 0 C  py              1.3       0.1       0.2       0.7       0.1       0.1
 0 C  dz2             0.1       0.0       0.0       0.0       0.0       0.0
 0 C  dx2y2           0.0       0.0       0.1       0.0       0.0       0.2
 0 C  dxy             0.4       0.0       0.0       0.0       0.0       0.0
 1 C  s              18.5       1.3       1.4       0.4       0.1       0.3
 1 C  px              0.1       0.3       7.8       1.6       0.5       6.3
 1 C  py              0.2       0.3       0.0      12.9       0.2       3.5
 1 C  dz2             0.7       0.0       0.0       0.0       0.0       0.0
 1 C  dx2y2           0.0       0.0       1.1       0.1       0.1       0.7
 1 C  dxy             0.0       0.3       0.1       1.1       1.0       0.0
 1 C  f+3             0.1       0.0       0.0       0.0       0.0       0.0
 2 C  s               4.3       0.4       4.9       7.6       4.5       3.2
 2 C  px              0.2       0.2       0.7       0.1       2.4       1.8
 2 C  py              7.0       2.2       0.1       0.7       2.4       0.3
 2 C  dx2y2           0.7       0.0       0.3       0.0       0.2       0.1
 2 C  dxy             0.7       0.2       0.3       0.7       0.1       0.0
 2 C  f+3             0.0       0.0       0.0       0.0       0.1       0.1
 3 N  s               3.5       1.5       0.4       2.2       0.1       1.0
 3 N  px              2.2       3.3       4.6       5.8       6.9       0.3
 3 N  py              2.1       1.1       1.3       5.2       5.5       6.8
 3 N  dx2y2           0.0       0.0       0.1       0.0       0.1       0.7
 3 N  dxy             0.2       0.2       0.5       0.3       0.4       0.0
 4 C  s               1.4       5.7       4.5       0.4       1.0       3.3
 4 C  px              2.4       3.4       0.9       0.0       8.3       1.8
 4 C  py              4.3       0.2       1.7       2.3       0.1       1.2
 4 C  dx2y2           0.1       0.6       0.9       0.7       0.0       0.5
 4 C  dxy             0.9       0.6       0.4       0.5       0.1       0.0
 5 C  s               5.8       0.0       7.6       0.1       0.2       5.0
 5 C  px              5.0       1.2       1.2       0.9       1.5       2.0
 5 C  py              0.5       4.8       0.2       2.0       6.4       2.5
 5 C  dz2             0.2       0.0       0.1       0.0       0.0       0.0
 5 C  dx2y2           0.6       0.0       0.7       0.1       0.0       0.1
 5 C  dxy             0.2       1.8       0.0       0.1       0.2       0.0
 6 C  s               0.8      12.4       1.5       2.1       4.8       0.2
 6 C  px              1.8       2.1       3.2       0.1       3.3       9.1
 6 C  py              0.1       0.3       0.7       0.1       0.1       1.4
 6 C  dz2             0.0       0.2       0.0       0.0       0.0       0.0
 6 C  dx2y2           0.0       0.5       0.4       0.0       0.2       0.1
 6 C  dxy             0.3       0.0       0.6       0.0       0.1       0.2
 7 C  s               0.4      11.1       3.8       0.0       4.6       2.9
 7 C  px              0.4       1.9       2.7       1.2       6.4       1.5
 7 C  py              0.6       1.2       1.5       0.9       0.3       4.5
 7 C  dz2             0.0       0.2       0.1       0.0       0.0       0.0
 7 C  dx2y2           0.2       0.7       0.6       0.3       0.3       0.1
 7 C  dxy             0.0       0.1       0.3       0.0       0.0       0.1
 8 C  s               3.1       0.1      11.3       2.0       1.6       5.9
 8 C  px              0.3       0.1       0.1       0.1       1.4       2.5
 8 C  py              0.3       8.7       0.1       0.1       8.7       1.2
 8 C  dz2             0.1       0.0       0.2       0.0       0.0       0.0
 8 C  dx2y2           0.0       0.1       0.3       0.0       0.1       0.0
 8 C  dxy             0.1       1.6       0.0       0.0       0.4       0.0
 9 C  s               5.0      11.3       1.4       0.2       5.8       0.3
 9 C  px              0.0       0.6       5.1       1.6       0.0       8.9
 9 C  py              0.1       0.2       0.7       0.6       0.9       1.3
 9 C  dz2             0.2       0.2       0.0       0.0       0.0       0.0
 9 C  dx2y2           0.0       0.4       0.4       0.1       0.0       0.1
 9 C  dxy             0.2       0.0       0.9       0.0       0.2       0.5
10 H  s               1.8       0.7       2.0       5.2       0.1       0.3
10 H  pz              0.1       0.0       0.1       0.3       0.0       0.0
10 H  px              0.1       0.0       0.1       0.2       0.0       0.0
11 H  s               1.8       0.7       1.9       5.2       0.1       0.3
11 H  pz              0.1       0.0       0.1       0.4       0.0       0.0
11 H  px              0.1       0.0       0.1       0.2       0.0       0.0
12 H  s               1.9       0.6       1.6       6.0       0.1       0.0
12 H  px              0.0       0.0       0.0       0.1       0.0       0.0
12 H  py              0.1       0.1       0.1       0.4       0.0       0.0
13 H  s               0.6       0.2       1.9       1.6       4.9       2.2
13 H  px              0.0       0.0       0.1       0.1       0.3       0.1
14 H  s               2.1       1.0       0.6       3.8       1.6       4.4
14 H  px              0.0       0.0       0.0       0.0       0.1       0.0
14 H  py              0.3       0.1       0.1       0.4       0.1       0.3
15 H  s               0.2       2.9       0.3       0.8       2.3       0.1
15 H  py              0.0       0.2       0.0       0.1       0.2       0.0
16 H  s               0.1       2.6       1.0       0.0       2.8       1.8
16 H  px              0.0       0.2       0.0       0.0       0.0       0.2
16 H  py              0.0       0.1       0.1       0.0       0.2       0.0
17 H  s               0.5       0.0       3.0       0.7       1.0       4.7
17 H  px              0.0       0.0       0.3       0.1       0.1       0.4
18 H  s               1.0       2.7       0.4       0.0       2.9       0.1
18 H  py              0.1       0.2       0.1       0.0       0.2       0.0

                     18        19        20        21        22        23   
                  -0.67736  -0.65230  -0.59487  -0.58332  -0.55007  -0.54982
                   2.00000   2.00000   2.00000   2.00000   2.00000   2.00000
                  --------  --------  --------  --------  --------  --------
 0 C  s               2.2       0.5       0.0       0.0       0.0       0.1
 0 C  pz              0.0       0.0       0.0       0.0      12.1       0.2
 0 C  px              3.6       0.8       0.4       0.2       0.2      11.7
 0 C  py              3.5       3.0       2.1       2.6       0.0       0.6
 0 C  dz2             0.2       0.0       0.0       0.0       0.0       0.3
 0 C  dyz             0.0       0.0       0.0       0.0       0.1       0.0
 0 C  dx2y2           0.0       0.0       0.1       0.1       0.0       0.0
 0 C  dxy             0.5       0.2       0.0       0.1       0.0       0.0
 1 C  s               6.6       1.9       0.1       0.8       0.0       0.2
 1 C  pz              0.0       0.0       0.0       0.0      12.1       0.2
 1 C  px              0.1       0.4       6.0       2.6       0.0       0.2
 1 C  py              0.0       0.2       0.9       1.6       0.1       3.9
 1 C  dz2             0.1       0.0       0.0       0.1       0.0       0.0
 1 C  dx2y2           0.0       0.3       0.0       0.1       0.0       0.9
 1 C  dxy             0.4       0.4       0.7       0.3       0.0       0.0
 1 C  f0              0.0       0.0       0.0       0.0       0.2       0.0
 2 C  s               0.6       0.3       0.9       0.6       0.0       0.0
 2 C  pz              0.0       0.0       0.0       0.0      11.9       0.2
 2 C  px              0.1       6.0      11.5       3.7       0.0       0.8
 2 C  py              9.2       0.8       1.2       7.6       0.0       1.6
 2 C  dxz             0.0       0.0       0.0       0.0       0.8       0.0
 2 C  dx2y2           0.6       0.9       0.3       0.4       0.0       0.0
 2 C  dxy             0.1       0.1       0.2       0.7       0.0       0.1
 2 C  f0              0.0       0.0       0.0       0.0       0.2       0.0
 2 C  f+3             0.0       0.1       0.2       0.0       0.0       0.0
 3 N  s               0.0       0.2       0.0       0.3       0.0       0.0
 3 N  pz              0.0       0.0       0.0       0.0      20.5       0.3
 3 N  px              8.0       0.7      14.2       0.5       0.0       0.7
 3 N  py              1.6      19.0       0.5       0.0       0.0       2.8
 3 N  dyz             0.0       0.0       0.0       0.0       0.2       0.0
 3 N  dx2y2           0.1       0.4       0.1       0.4       0.0       1.0
 3 N  dxy             0.0       0.0       0.3       0.1       0.0       0.0
 4 C  s               0.3       0.4       0.9       0.7       0.0       0.2
 4 C  pz              0.0       0.0       0.0       0.0      13.3       0.2
 4 C  px              0.1       4.0       1.7       0.5       0.1       3.9
 4 C  py              9.2       0.9       2.6       0.1       0.0       3.7
 4 C  dxz             0.0       0.0       0.0       0.0       0.5       0.0
 4 C  dx2y2           0.0       1.0       0.9       0.2       0.0       1.8
 4 C  dxy             0.2       0.1       1.1       1.7       0.0       0.4
 4 C  f0              0.0       0.0       0.0       0.0       0.2       0.0
 4 C  f+3             0.0       0.2       0.0       0.0       0.0       0.0
[...]
 7 C  dz2             0.1       0.1       0.0       0.2       0.0       0.0
 7 C  dx2y2           0.3       0.0       0.0       0.0       0.0       0.2
 7 C  dxy             0.1       0.0       0.1       0.2       0.1       0.1
 7 C  f+1             0.3       0.0       0.2       0.0       0.0       0.0
 7 C  f-1             0.2       0.0       0.5       0.0       0.0       0.0
 7 C  f+3             0.0       0.5       0.1       0.4       0.4       0.3
 7 C  f-3             0.7       0.2       1.2       0.1       0.0       0.5
 8 C  s               0.0       0.5       0.0       0.8       0.1       0.0
 8 C  px              0.2       0.1       0.4       0.0       0.1       0.2
 8 C  py              1.6       0.1       3.2       0.1       0.0       0.4
 8 C  dz2             0.0       0.3       0.1       0.2       0.0       0.0
 8 C  dx2y2           0.1       0.6       0.1       0.1       0.1       0.2
 8 C  dxy             0.1       0.1       0.0       0.0       0.0       0.3
 8 C  f-1             0.4       0.1       0.5       0.0       0.0       0.1
 8 C  f+3             0.2       0.4       0.8       0.6       0.0       0.0
 8 C  f-3             0.1       0.2       0.9       0.3       0.0       1.1
 9 C  s               0.3       1.4       0.1       1.3       0.3       0.3
 9 C  px              0.6       0.1       3.9       0.2       0.2       0.5
 9 C  py              0.5       0.9       0.6       0.1       0.2       1.0
 9 C  dz2             0.1       0.3       0.1       0.4       0.1       0.0
 9 C  dx2y2           0.1       0.6       0.5       0.4       0.2       0.2
 9 C  dxy             0.1       0.4       0.2       0.1       0.1       2.3
 9 C  f+1             0.1       0.2       0.9       0.0       0.0       0.1
 9 C  f-1             0.1       0.1       0.1       0.2       0.0       0.1
 9 C  f+3             0.0       0.1       0.1       1.9       0.0       0.9
 9 C  f-3             0.1       1.2       2.4       0.1       0.1       2.3
13 H  s               0.1       0.4       0.1       0.4       0.4       0.1
13 H  py              0.0       0.2       0.0       0.0       0.0       0.1
14 H  s               0.6       1.3       0.8       0.0       7.7       0.3
14 H  px              0.0       0.0       0.1       0.0       0.0       0.3
14 H  py              0.5       0.3       0.2       0.0       1.4       0.0
15 H  s               0.0       0.0       0.0       0.2       0.0       0.0
16 H  s               0.0       0.1       0.0       0.1       0.0       0.0
17 H  s               0.0       0.0       0.1       0.2       0.0       0.1
18 H  s               0.0       0.0       0.3       0.3       0.0       0.0

                    354       355       356       357       358       359   
                  22.34989  22.49161  22.69844  22.73889  22.76720  23.03274
                   0.00000   0.00000   0.00000   0.00000   0.00000   0.00000
                  --------  --------  --------  --------  --------  --------
 0 C  s               3.9      83.5       3.5       1.3       5.3       0.5
 1 C  s               2.6       2.5       5.4       0.5       1.4       1.7
 1 C  py              0.0       0.2       0.1       0.0       0.0       0.0
 1 C  dxy             0.0       0.1       0.0       0.0       0.1       0.1
 2 C  s               8.0       6.1      40.7       0.8       3.1       5.8
 3 N  s               0.5       0.1       0.4       0.0       0.0       0.0
 3 N  py              0.1       0.0       0.1       0.0       0.0       0.0
 4 C  s               5.9       0.9       9.8       0.6       0.0       7.4
 4 C  px              0.2       0.0       0.2       0.1       0.0       0.1
 4 C  py              0.1       0.0       0.1       0.0       0.0       0.0
 5 C  s               5.1       1.5       4.5       2.0       0.4       0.2
 5 C  px              0.1       0.0       0.2       0.0       0.2       0.0
 5 C  py              0.1       0.0       0.0       0.1       0.1       0.1
 5 C  dxy             0.0       0.0       0.0       0.1       0.1       0.2
 6 C  s              13.7       2.1       0.0       0.3      45.7      32.8
 6 C  px              0.1       0.0       0.2       0.3       0.0       0.0
 7 C  s              19.3       0.0       0.4      60.2       0.3      14.6
 7 C  px              0.0       0.0       0.1       0.0       0.2       0.0
 7 C  dx2y2           0.0       0.0       0.0       0.0       0.1       0.0
 8 C  s              22.9       1.3      24.1       0.3      32.7      14.3
 8 C  py              0.0       0.0       0.0       0.5       0.0       0.0
 8 C  dxy             0.0       0.0       0.0       0.2       0.0       0.0
 9 C  s              16.3       0.5       8.8      32.1       9.5      21.0
 9 C  px              0.0       0.0       0.3       0.0       0.0       0.0
 9 C  py              0.1       0.0       0.0       0.0       0.0       0.0
10 H  s               0.0       0.2       0.0       0.0       0.0       0.0
11 H  s               0.0       0.2       0.0       0.0       0.0       0.0
12 H  s               0.0       0.1       0.0       0.0       0.0       0.0
13 H  s               0.0       0.0       0.1       0.0       0.0       0.0
16 H  s               0.1       0.0       0.0       0.1       0.0       0.0

                    360       361       362       363   
                  23.09249  23.36250  23.73055  32.47497
                   0.00000   0.00000   0.00000   0.00000
                  --------  --------  --------  --------
 0 C  s               0.1       0.2       0.1       0.0
 1 C  s               4.2      75.3       4.4       0.0
 1 C  px              0.1       0.1       0.0       0.0
 1 C  py              0.2       0.1       0.0       0.0
 1 C  dx2y2           0.2       0.0       0.0       0.0
 1 C  dxy             0.0       0.2       0.1       0.0
 2 C  s              31.1       1.4       0.6       0.0
 2 C  py              0.0       0.1       0.0       0.0
 3 N  s               0.0       0.0       0.0      99.5
 3 N  px              0.3       0.0       0.1       0.0
 3 N  dxy             0.1       0.0       0.0       0.0
 4 C  s              18.0      18.8      36.4       0.0
 4 C  py              0.2       0.0       0.0       0.0
 4 C  dx2y2           0.1       0.0       0.2       0.0
 4 C  dxy             0.1       0.0       0.0       0.0
 5 C  s              31.1       1.2      52.2       0.0
 5 C  px              0.0       0.4       0.0       0.0
 5 C  py              0.0       0.2       0.1       0.0
 5 C  dx2y2           0.0       0.4       0.0       0.0
 5 C  dxy             0.0       0.0       0.2       0.0
 6 C  s               1.7       0.7       0.9       0.0
 7 C  s               1.8       0.0       1.5       0.0
 8 C  s               0.5       0.2       1.7       0.0
 9 C  s               9.2       0.0       0.7       0.0


                      *****************************
                      * MAYER POPULATION ANALYSIS *
                      *****************************

  NA   - Mulliken gross atomic population
  ZA   - Total nuclear charge
  QA   - Mulliken gross atomic charge
  VA   - Mayer's total valence
  BVA  - Mayer's bonded valence
  FA   - Mayer's free valence

  ATOM       NA         ZA         QA         VA         BVA        FA
  0 C      6.3652     6.0000    -0.3652     3.8853     3.8853     0.0000
  1 C      6.0248     6.0000    -0.0248     3.7176     3.7176     0.0000
  2 C      6.0600     6.0000    -0.0600     3.9093     3.9093     0.0000
  3 N      7.2281     7.0000    -0.2281     3.3089     3.3089     0.0000
  4 C      5.8412     6.0000     0.1588     3.8570     3.8570     0.0000
  5 C      5.9471     6.0000     0.0529     3.8181     3.8181     0.0000
  6 C      6.2080     6.0000    -0.2080     3.9543     3.9543     0.0000
  7 C      6.1326     6.0000    -0.1326     3.9815     3.9815    -0.0000
  8 C      6.0967     6.0000    -0.0967     3.9561     3.9561    -0.0000
  9 C      6.2397     6.0000    -0.2397     4.0170     4.0170    -0.0000
 10 H      0.8781     1.0000     0.1219     0.9646     0.9646    -0.0000
 11 H      0.8775     1.0000     0.1225     0.9633     0.9633    -0.0000
 12 H      0.8850     1.0000     0.1150     0.9793     0.9793    -0.0000
 13 H      0.8636     1.0000     0.1364     0.9778     0.9778     0.0000
 14 H      0.7799     1.0000     0.2201     0.9563     0.9563     0.0000
 15 H      0.8951     1.0000     0.1049     0.9808     0.9808     0.0000
 16 H      0.8919     1.0000     0.1081     0.9722     0.9722     0.0000
 17 H      0.8888     1.0000     0.1112     0.9703     0.9703    -0.0000
 18 H      0.8964     1.0000     0.1036     0.9826     0.9826    -0.0000

  Mayer bond orders larger than 0.100000
B(  0-C ,  1-C ) :   0.8807 B(  0-C , 10-H ) :   0.9831 B(  0-C , 11-H ) :   0.9802 
B(  0-C , 12-H ) :   1.0099 B(  1-C ,  2-C ) :   1.6815 B(  1-C ,  5-C ) :   1.1737 
B(  2-C ,  3-N ) :   1.1459 B(  2-C , 13-H ) :   0.9501 B(  3-N ,  4-C ) :   1.1586 
B(  3-N , 14-H ) :   0.9247 B(  4-C ,  5-C ) :   1.3094 B(  4-C ,  9-C ) :   1.3127 
B(  5-C ,  6-C ) :   1.2685 B(  6-C ,  7-C ) :   1.5480 B(  6-C , 15-H ) :   0.9753 
B(  7-C ,  8-C ) :   1.3488 B(  7-C , 16-H ) :   0.9788 B(  8-C ,  9-C ) :   1.5283 
B(  8-C , 17-H ) :   0.9747 B(  9-C , 18-H ) :   0.9728 

-------
TIMINGS
-------

Total SCF time: 0 days 0 hours 2 min 26 sec 

Total time                  ....     146.644 sec
Sum of individual times     ....     144.139 sec  ( 98.3%)

SCF preparation             ....       0.063 sec  (  0.0%)
Fock matrix formation       ....     143.426 sec  ( 97.8%)
  Startup                   ....       0.006 sec  (  0.0% of F)
  Split-RI-J                ....       5.626 sec  (  3.9% of F)
  Chain of spheres X        ....     128.292 sec  ( 89.4% of F)
  XC integration            ....      11.940 sec  (  8.3% of F)
    Basis function eval.    ....       2.775 sec  ( 23.2% of XC)
    Density eval.           ....       2.791 sec  ( 23.4% of XC)
    XC-Functional eval.     ....       2.755 sec  ( 23.1% of XC)
    XC-Potential eval.      ....       3.498 sec  ( 29.3% of XC)
Diagonalization             ....       0.000 sec  (  0.0%)
Density matrix formation    ....       0.024 sec  (  0.0%)
Total Energy calculation    ....       0.005 sec  (  0.0%)
Population analysis         ....       0.232 sec  (  0.2%)
Orbital Transformation      ....       0.038 sec  (  0.0%)
Orbital Orthonormalization  ....       0.000 sec  (  0.0%)
DIIS solution               ....       0.130 sec  (  0.1%)
  MO trafo                  ....       0.000 sec  (  0.0 % of DIIS)
  Orb grad                  ....       0.000 sec  (  0.0 % of DIIS)
  Energy W gradient         ....       0.000 sec  (  0.0 % of DIIS)
  DIIS error                ....       0.019 sec  ( 14.6 % of DIIS)
  DIIS work                 ....       0.091 sec  ( 70.1 % of DIIS)
  Form Q                    ....       0.000 sec  (  0.0 % of DIIS)
  Form QpQm                 ....       0.000 sec  (  0.0 % of DIIS)
  Exp/Cayley                ....       0.000 sec  (  0.0 % of DIIS)
  Orb update                ....       0.000 sec  (  0.0 % of DIIS)
  Wake-sleep                ....       0.001 sec  (  0.7 % of DIIS)
SOSCF solution              ....       0.075 sec  (  0.1%)
  MO trafo                  ....       0.041 sec  ( 54.8 % of SOSCF)
  Orb grad                  ....       0.000 sec  (  0.5 % of SOSCF)
  Rot update                ....       0.002 sec  (  2.1 % of SOSCF)
  Step                      ....       0.032 sec  ( 42.5 % of SOSCF)
Grid generation             ....       0.145 sec  (  0.1%)
Finished LeanSCF after 146.7 sec

Maximum memory used throughout the entire LEANSCF-calculation: 55.0 MB
------------------   -----------------
gCP correction             0.010093887
------------------   -----------------

-------------------------   --------------------
FINAL SINGLE POINT ENERGY      -403.153471499634
-------------------------   --------------------


------------------------------------------------------------------------------
                              ORCA PROPERTY CALCULATIONS
------------------------------------------------------------------------------

GBWName                                 ... sp.gbw
Number of atoms                         ...     19
Number of basis functions               ...    364
Max core memory                         ...   1024 MB

Electric properties:
Dipole moment                           ... YES
Quadrupole moment                       ...  NO
Static polarizability (Dipole/Dipole)   ...  NO
Static polarizability (Dipole/Quad.)    ...  NO
Static polarizability (Quad./Quad.)     ...  NO
Static polarizability (Velocity)        ...  NO

Atomic electric properties:
Dipole moment                           ...  NO
Quadrupole moment                       ...  NO
Static polarizability                   ...  NO

Choice of electric origin               ... Center of mass
Position of electric origin             ...     0.002090    -0.006120     0.000064

General magnetic properties:
Magnetizability                         ...  NO

EPR properties:
g-Tensor (aka g-matrix)                 ...  NO
Zero-Field splitting spin-orbit         ...  NO
Zero-field splitting spin-spin          ...  NO
Hyperfine couplings                     ...  NO (   0 nuclei)
Quadrupole couplings                    ...  NO (   0 nuclei)
Contact density                         ...  NO (   0 nuclei)

NMR properties:
Chemical shifts                         ...  NO (   0 nuclei)
Spin-rotation constants                 ...  NO (   0 nuclei)
Spin-spin couplings                     ...  NO (   0 nuclei,    0 pairs)

Choice of magnetic origin               ... GIAO
Position of magnetic origin             ...     0.000000     0.000000     0.000000

Properties with geometric perturbations:
SCF Hessian                             ...  NO
IR spectrum                             ...  NO
VCD spectrum                            ...  NO
X-ray spectroscopy properties:
SCF XES/XAS/RIXS spectra                ...  NO


-------------
DIPOLE MOMENT
-------------

Method             : SCF
Type of density    : Electron Density
Multiplicity       :   1
Irrep              :   0
Energy             :  -403.1635653868339091 Eh
Relativity type    : 
Basis              : AO
                                X                 Y                 Z
Electronic contribution:      2.677618756      -3.622494897      -0.000711998
Nuclear contribution   :     -3.078660992       2.912956725       0.000779141
                        -----------------------------------------
Total Dipole Moment    :     -0.401042236      -0.709538172       0.000067143
                        -----------------------------------------
Magnitude (a.u.)       :      0.815033311
Magnitude (Debye)      :      2.071650039



--------------------
Rotational spectrum 
--------------------
 
Rotational constants in cm-1:             0.087279             0.042281             0.028635 
Rotational constants in MHz :          2616.551217          1267.550586           858.463320 

Dipole components along the rotational axes: 
x,y,z [a.u.] :    -0.399892     0.710187     0.000296 
x,y,z [Debye]:    -1.016444     1.805152     0.000751 

 

Dipole moment calculation done in   0.0 sec 

Maximum memory used throughout the entire PROP-calculation: 35.7 MB

--------------------------------
SUGGESTED CITATIONS FOR THIS RUN
--------------------------------

Below you find a list of papers that are relevant to this ORCA run
We neither can nor want to force you to cite these papers, but we appreciate if you do
You receive ORCA, which is the product of decades of hard work by many enthusiastic individuals, for free
The only thing we kindly ask in return is that you cite our papers,
We deeply appreciate it, if you show your appreciation for ORCA by not just citing the generic ORCA reference.

Please note that relegating all ORCA citations to the supporting information does *not* help us.
SI sections are not indexed - citations you put there will not count into any citation statistics
But we need these citations in order to attract the funding resources that allow us to do what we are doing

Therefore, if you are a happy ORCA user, please consider citing a few of the papers listed below in the main body of your paper

In addition to the list printed below, the program has created the file sp.bibtex that contains the list in bibtex format
You can import this file easily into all common literature databanks and citation aid programs


List of essential papers. We consider these as the minimum necessary citations

  1. Neese,F.
     Software update: the ORCA program system, version 5.0
     WIRES Comput. Molec. Sci., 2022 12(1)e1606
     doi.org/10.1002/wcms.1606

List of papers to cite with high priority. The work reported in these papers was absolutely
necessary for this run to complete.
Our perspective: the developers of density functionals and basis sets usually get cited in chemistry papers
Good! But without the algorithms to do something with them, the functionals or basis sets would not do anything.
Hence, in our opinion, the algorithm design and method developments papers are equally worthy of getting cited

  1. Neese,F.
     An improvement of the resolution of the identity approximation for the formation of the Coulomb matrix
     J. Comp. Chem., 2003 24(14)1740-1747
     doi.org/10.1002/jcc.10318
  2. Neese,F.; Wennmohs,F.; Hansen,A.; Becker,U.
     Efficient, approximate and parallel Hartree-Fock and hybrid DFT calculations. A 'chain-of-spheres' algorithm for the Hartree-Fock exchange
     Chem. Phys., 2009 356(1-3)98-109
     doi.org/10.1016/j.chemphys.2008.10.036
  3. Helmich-Paris,B.; de Souza,B.; Neese,F.; Izsák,R.
     An improved chain of spheres for exchange algorithm
     J. Chem. Phys., 2021 155 104109
     doi.org/doi: 10.1063/5.0058766.
  4. Neese,F.
     The SHARK Integral Generation and Digestion System
     J. Comp. Chem., 2022  1-16
     doi.org/10.1002/jcc.26942

List of suggested additional citations. These are papers that are important in the 'surrounding' of 
of this run, or papers that preceded the highly important papers. If you like your results we are grateful for a citation.

  1. Izsak,R.; Neese,F.
     An overlap fitted chain of spheres exchange method
     J. Chem. Phys., 2011 135 144105
     doi.org/10.1063/1.3646921
  2. Izsak,R.; Hansen,A.; Neese,F.
     The resolution of identity and chain of spheres approximations for the LPNO-CCSD singles Fock term
     Molec. Phys., 2012 110 2413-2417
     doi.org/10.1080/00268976.2012.687466
  3. Neese,F.
     The ORCA program system
     WIRES Comput. Molec. Sci., 2012 2(1)73-78
     doi.org/10.1002/wcms.81
  4. Izsak,R.; Neese,F.; Klopper,W.
     Robust fitting techniques in the chain of spheres approximation to the Fock exchange: The role of the complementary space
     J. Chem. Phys., 2013 139 
     doi.org/10.1063/1.4819264
  5. Neese,F.
     Software update: the ORCA program system, version 4.0
     WIRES Comput. Molec. Sci., 2018 8(1)1-6
     doi.org/10.1002/wcms.1327
  6. Neese,F.; Wennmohs,F.; Becker,U.; Riplinger,C.
     The ORCA quantum chemistry program package
     J. Chem. Phys., 2020 152 Art. No. L224108
     doi.org/10.1063/5.0004608

List of optional additional citations

  1. Neese,F.
     Approximate second-order SCF convergence for spin unrestricted wavefunctions
     Chem. Phys. Lett., 2000 325(1-3)93-98
     doi.org/10.1016/s0009-2614(00)00662-x

Timings for individual modules:

Sum of individual times          ...      148.372 sec (=   2.473 min)
Startup calculation              ...        1.557 sec (=   0.026 min)   1.0 %
SCF iterations                   ...      146.764 sec (=   2.446 min)  98.9 %
Property calculations            ...        0.050 sec (=   0.001 min)   0.0 %
                             ****ORCA TERMINATED NORMALLY****
TOTAL RUN TIME: 0 days 0 hours 2 minutes 28 seconds 425 msec
