
                                 *****************
                                 * O   R   C   A *
                                 *****************

                                            #,                                       
                                            ###                                      
                                            ####                                     
                                            #####                                    
                                            ######                                   
                                           ########,                                 
                                     ,,################,,,,,                         
                               ,,#################################,,                 
                          ,,##########################################,,             
                       ,#########################################, ''#####,          
                    ,#############################################,,   '####,        
                  ,##################################################,,,,####,       
                ,###########''''           ''''###############################       
              ,#####''   ,,,,##########,,,,          '''####'''          '####       
            ,##' ,,,,###########################,,,                        '##       
           ' ,,###''''                  '''############,,,                           
         ,,##''                                '''############,,,,        ,,,,,,###''
      ,#''                                            '''#######################'''  
     '                                                          ''''####''''         
             ,#######,   #######,   ,#######,      ##                                
            ,#'     '#,  ##    ##  ,#'     '#,    #''#        ,####,   ,####,        
            ##       ##  ##   ,#'  ##            #'  '#       #'       #'  '#        
            ##       ##  #######   ##           ,######,      #####,   #    #        
            '#,     ,#'  ##    ##  '#,     ,#' ,#      #,     #,   #   #,  ,#        
             '#######'   ##     ##  '#######'  #'      '#     '####' # '####'        



                #########################################################
                #                        -***-                          #
                #          Department of theory and spectroscopy        #
                #                                                       #
                #                      Frank Neese                      #
                #                                                       #
                #     Directorship, Architecture, Infrastructure        #
                #                    SHARK, DRIVERS                     #
                #        Core code/Algorithms in most modules           #
                #                                                       #
                #        Max Planck Institute fuer Kohlenforschung      #
                #                Kaiser Wilhelm Platz 1                 #
                #                 D-45470 Muelheim/Ruhr                 #
                #                      Germany                          #
                #                                                       #
                #                  All rights reserved                  #
                #                        -***-                          #
                #########################################################


                         Program Version 6.0.1  -  RELEASE   -


 With contributions from (in alphabetic order):
[Max-Planck-Institut fuer Kohlenforschung]                               
  Daniel Aravena         : Magnetic Suceptibility                        
  Michael Atanasov       : Ab Initio Ligand Field Theory (pilot matlab implementation)
  Alexander A. Auer      : GIAO ZORA, VPT2 properties, NMR spectrum      
  Ute Becker             : All parallelization in ORCA, NUMFREQ, NUMCALC 
  Giovanni Bistoni       : ED, misc. LED, open-shell LED, HFLD           
  Martin Brehm           : Molecular dynamics                            
  Dmytro Bykov           : pre 5.0 version of the SCF Hessian            
  Marcos Casanova-Páez   : Triplet and SCS-CIS(D). UHF-(DLPNO)-IP/EA/STEOM-CCSD. UHF-CVS-IP/STEOM-CCSD   
  Vijay G. Chilkuri      : MRCI spin determinant printing, contributions to CSF-ICE 
  Pauline Colinet        : FMM embedding                                 
  Dipayan Datta          : RHF DLPNO-CCSD density                        
  Achintya Kumar Dutta   : EOM-CC, STEOM-CC                              
  Nicolas Foglia         : Exact transition moments, OPA infrastructure, MCD improvements    
  Dmitry Ganyushin       : Spin-Orbit,Spin-Spin,Magnetic field MRCI      
  Miquel Garcia-Rates    : C-PCM and meta-GGA Hessian, CCSD/C-PCM, Gaussian charge scheme 
  Tiago L. C. Gouveia    : GS-ROHF, GS-ROCIS                             
  Yang Guo               : DLPNO-NEVPT2, F12-NEVPT2, CIM, IAO-localization        
  Andreas Hansen         : Spin unrestricted coupled pair/coupled cluster methods 
  Ingolf Harden          : AUTO-CI MPn and infrastructure                
  Benjamin Helmich-Paris : MC-RPA, TRAH-(SCF,CASSCF), AVAS, COSX integrals, SCF dyn. polar. 
  Lee Huntington         : MR-EOM, pCC                                   
  Robert Izsak           : Overlap fitted RIJCOSX, COSX-SCS-MP3, EOM     
  Riya Kayal             : Wick's Theorem for AUTO-CI, AUTO-CI UHF-CCSDT 
  Emily Kempfer          : AUTO-CI, RHF CISDT and CCSDT                  
  Christian Kollmar      : KDIIS, OOCD, Brueckner-CCSD(T), CCSD density, CASPT2, CASPT2-K, improved NEVPT2 
  Axel Koslowski         : Symmetry handling                             
  Simone Kossmann        : meta-GGA functionals, TD-DFT gradient, OOMP2, (MP2 Hessian; deprecated post 5.0) 
  Lucas Lang             : DCDCAS                                        
  Marvin Lechner         : AUTO-CI (C++ implementation), FIC-MRCC        
  Spencer Leger          : CASSCF response                               
  Dagmar Lenk            : GEPOL surface, SMD, ORCA-2-JSON               
  Dimitrios Liakos       : Extrapolation schemes; Compound Job, initial MDCI parallelization 
  Dimitrios Manganas     : Further ROCIS development; embedding schemes. LFT, Crystal Embedding 
  Dimitrios Pantazis     : SARC Basis sets                               
  Anastasios Papadopoulos: AUTO-CI, single reference methods and gradients 
  Taras Petrenko         : pre 6.0 DFT Hessian and TD-DFT gradient, (ASA, deprecated), ECA, 1-Electron XAS/XES, NRVS 
  Peter Pinski           : DLPNO-MP2, DLPNO-MP2 Gradient                 
  Christoph Reimann      : Effective Core Potentials                     
  Marius Retegan         : Local ZFS, SOC                                
  Christoph Riplinger    : Optimizer, TS searches, QM/MM, DLPNO-CCSD(T), (RO)-DLPNO pert. Triples 
  Michael Roemelt        : Original ROCIS implementation                 
  Masaaki Saitow         : Open-shell DLPNO-CCSD energy and density      
  Barbara Sandhoefer     : DKH picture change effects                    
  Kantharuban Sivalingam : CASSCF convergence/infrastructure, NEVPT2 and variants, FIC-MRCI 
  Bernardo de Souza      : ESD, SOC TD-DFT                               
  Georgi L. Stoychev     : AutoAux, RI-MP2 NMR, DLPNO-MP2 response, X2C  
  Van Anh Tran           : RI-MP2 g-tensors                              
  Willem Van den Heuvel  : Paramagnetic NMR                              
  Zikuan Wang            : NOTCH, Electric field optimization            
  Frank Wennmohs         : Technical directorship and infrastructure     
  Hang Xu                : AUTO-CI-Response properties                   
                                                                         
[FACCTs GmbH]                                                            
  Markus Bursch, Miquel Garcia-Rates, Christoph Riplinger, Bernardo de Souza, Georgi L. Stoychev 
                                                                 
  APM, Basis sets (HGBS, AHGBS, def-TZVP (Ac-Lr), def2-XVPD (La-Lu)), CI-OPT, improved COSX, DLPNO-Multilevel,           
  DOCKER, DRACO, updates on ESD, GOAT, IRC, LR-CPCM, MBIS, meta-GGA TD-DFT gradient, ML-optimized integration grids, 
  MM, NACMEs, nearIR, NEB, NEB-TS, NL-DFT gradient (VV10), 2- and 3-layer-ONIOM, interface openCOSMO-RS, QMMM,   
  Crystal-QMMM, SF, symmetry and pop. for TD-DFT, r2SCAN hybrids, SOLVATOR                                   
                                                                         
[Other institutions]                                                     
  V. Asgeirsson          : NEB                                           
  Christoph Bannwarth    : sTDA-DFT, sTD-DFT, PBEh-3c, B97-3c, D3        
  Sebastian Ehlert       : rSCAN, r2SCAN, r2SCAN-3c, D4, dhf basis sets  
  Marvin Friede          : D4 for Fr, Ra, Ac-Lr                          
  Lars Goerigk           : TD-DFT with DH, B97 family of functionals     
  Stefan Grimme          : VdW corrections, initial TS optimization, DFT functionals, gCP, sTDA/sTD-DF 
  Waldemar Hujo          : DFT-NL                                        
  H. Jonsson             : NEB                                           
  Holger Kruse           : gCP                                           
  Marcel Mueller         : wB97X-3c, vDZP basis set                      
  Hagen Neugebauer       : wr2SCAN                                       
  Tobias Risthaus        : range-separated hybrid DFT                    
  Lukas Wittmann         : regularized MP2, r2SCAN double-hybrids, wr2SCAN        
                                                                         
We gratefully acknowledge several colleagues who have allowed us to      
interface, adapt or use parts of their codes:                            
  Ed Valeev, F. Pavosevic, A. Kumar             : LibInt (2-el integral package), F12 methods 
  Garnet Chan, S. Sharma, J. Yang, R. Olivares  : DMRG                   
  Ulf Ekstrom                                   : XCFun DFT Library      
  Mihaly Kallay                                 : mrcc  (arbitrary order and MRCC methods)
  Frank Weinhold                                : gennbo (NPA and NBO analysis)           
  Simon Mueller                                 : openCOSMO-RS                            
  Christopher J. Cramer and Donald G. Truhlar   : smd solvation model                     
  S Lehtola, MJT Oliveira, MAL Marques          : LibXC Library                           
  Liviu Ungur et al                             : ANISO software                          


 Your calculation uses the libint2 library for the computation of 2-el integrals
 For citations please refer to: http://libint.valeyev.net

 Your ORCA version has been built with support for libXC version: 6.2.2
 For citations please refer to: https://libxc.gitlab.io

 This ORCA versions uses:
   CBLAS   interface :  Fast vector & matrix operations
   LAPACKE interface :  Fast linear algebra routines
   SCALAPACK package :  Parallel linear algebra routines
   Shared memory     :  Shared parallel matrices
   BLAS/LAPACK       :  OpenBLAS 0.3.27  USE64BITINT DYNAMIC_ARCH NO_AFFINITY Zen SINGLE_THREADED
        Core in use  :  Zen
   Copyright (c) 2011-2014, The OpenBLAS Project


Your calculation utilizes the geometrical counterpoise correction gCP
Please cite in your paper:
H.Kruse, S. Grimme J.Chem.Phys., 136, (2012), 154101 
   

Your calculation utilizes the atom-pairwise dispersion correction
based on EEQ partial charges (D4)


================================================================================

----- Orbital basis set information -----
Your calculation utilizes the basis: def2-mTZVPP
   Stefan Grimme, Andreas Hansen, Sebastian Ehlert, and Jan-Michael Mewes 
   J. Chem. Phys. 154, 064103 (2021). DOI: 10.1063/5.0040021

----- AuxJ basis set information -----
Your calculation utilizes the auxiliary basis: def2/J
   F. Weigend, Phys. Chem. Chem. Phys. 8, 1057 (2006).

================================================================================
                                        WARNINGS
                       Please study these warnings very carefully!
================================================================================



WARNING: SCAN, rSCAN, or r2SCAN functional requested.
  ===> : libXC variant has now been activated.



================================================================================
                                       INPUT FILE
================================================================================
NAME = sp.inp
|  1> ! r2scan-3c def2/J RI DEFGRID2 scfconv6 printgap
|  2> %output
|  3>     printlevel normal
|  4> end
|  5> * xyz 0 1
|  6> C 1.9379280523 -0.1336695738 2.89172e-05
|  7> C 0.5606774207 0.5180947989 -3.46759e-05
|  8> C -0.5606787477 -0.5180966341 -3.49591e-05
|  9> C -1.9379276314 0.1336708019 2.91038e-05
| 10> H 2.7203077388 0.6218585905 0.0003070764
| 11> H 2.064099348 -0.7586993625 0.8816464595
| 12> H 2.0643749526 -0.758380759 -0.8817788396
| 13> H 0.4608680083 1.1557067494 0.8815779102
| 14> H 0.4609137291 1.1556570793 -0.8816887265
| 15> H -0.4609211878 -1.1556678762 -0.8816809668
| 16> H -0.4608591114 -1.1556993577 0.8815836008
| 17> H -2.0642754876 0.7585684051 -0.8816612268
| 18> H -2.0641872624 0.7585199712 0.8817601834
| 19> H -2.7203099296 -0.6218562058 7.29319e-05
| 20> *
| 21> 
| 22>                          ****END OF INPUT****
================================================================================

                       ****************************
                       * Single Point Calculation *
                       ****************************

---------------------------------
CARTESIAN COORDINATES (ANGSTROEM)
---------------------------------
  C      1.937928   -0.133670    0.000029
  C      0.560677    0.518095   -0.000035
  C     -0.560679   -0.518097   -0.000035
  C     -1.937928    0.133671    0.000029
  H      2.720308    0.621859    0.000307
  H      2.064099   -0.758699    0.881646
  H      2.064375   -0.758381   -0.881779
  H      0.460868    1.155707    0.881578
  H      0.460914    1.155657   -0.881689
  H     -0.460921   -1.155668   -0.881681
  H     -0.460859   -1.155699    0.881584
  H     -2.064275    0.758568   -0.881661
  H     -2.064187    0.758520    0.881760
  H     -2.720310   -0.621856    0.000073

----------------------------
CARTESIAN COORDINATES (A.U.)
----------------------------
  NO LB      ZA    FRAG     MASS         X           Y           Z
   0 C     6.0000    0    12.011    3.662153   -0.252599    0.000055
   1 C     6.0000    0    12.011    1.059527    0.979057   -0.000066
   2 C     6.0000    0    12.011   -1.059529   -0.979061   -0.000066
   3 C     6.0000    0    12.011   -3.662152    0.252601    0.000055
   4 H     1.0000    0     1.008    5.140637    1.175142    0.000580
   5 H     1.0000    0     1.008    3.900582   -1.433734    1.666070
   6 H     1.0000    0     1.008    3.901103   -1.433132   -1.666321
   7 H     1.0000    0     1.008    0.870914    2.183969    1.665941
   8 H     1.0000    0     1.008    0.871001    2.183875   -1.666150
   9 H     1.0000    0     1.008   -0.871015   -2.183896   -1.666136
  10 H     1.0000    0     1.008   -0.870898   -2.183955    1.665952
  11 H     1.0000    0     1.008   -3.900915    1.433487   -1.666098
  12 H     1.0000    0     1.008   -3.900749    1.433395    1.666285
  13 H     1.0000    0     1.008   -5.140641   -1.175138    0.000138

--------------------------------
INTERNAL COORDINATES (ANGSTROEM)
--------------------------------
 C      0   0   0     0.000000000000     0.00000000     0.00000000
 C      1   0   0     1.523685040882     0.00000000     0.00000000
 C      2   1   0     1.526804618224   111.93526815     0.00000000
 C      3   2   1     1.523684771331   111.93513591   179.99482507
 H      1   2   3     1.087630846506   110.67507875   180.01571108
 H      1   2   3     1.088039945734   110.52263230   300.09822753
 H      1   2   3     1.088043107355   110.52477605    59.92968186
 H      2   1   3     1.092589433499   109.40036402   121.18512591
 H      2   1   3     1.092589731093   109.40097114   238.81449776
 H      3   2   1     1.092587910607   109.20645387   301.29338875
 H      3   2   1     1.092589803217   109.20505582    58.69757981
 H      4   3   2     1.088043489170   110.52426965    59.91618859
 H      4   3   2     1.088038453148   110.52288891   300.08523625
 H      4   3   2     1.087631887093   110.67508605   180.00254026

---------------------------
INTERNAL COORDINATES (A.U.)
---------------------------
 C      0   0   0     0.000000000000     0.00000000     0.00000000
 C      1   0   0     2.879347441620     0.00000000     0.00000000
 C      2   1   0     2.885242588450   111.93526815     0.00000000
 C      3   2   1     2.879346932243   111.93513591   179.99482507
 H      1   2   3     2.055324434701   110.67507875   180.01571108
 H      1   2   3     2.056097520203   110.52263230   300.09822753
 H      1   2   3     2.056103494801   110.52477605    59.92968186
 H      2   1   3     2.064694806130   109.40036402   121.18512591
 H      2   1   3     2.064695368500   109.40097114   238.81449776
 H      3   2   1     2.064691928280   109.20645387   301.29338875
 H      3   2   1     2.064695504795   109.20505582    58.69757981
 H      4   3   2     2.056104216327   110.52426965    59.91618859
 H      4   3   2     2.056094699624   110.52288891   300.08523625
 H      4   3   2     2.055326401126   110.67508605   180.00254026

---------------------
BASIS SET INFORMATION
---------------------
There are 2 groups of distinct atoms

 Group   1 Type C   : 11s6p1d contracted to 5s3p1d pattern {62111/411/1}
 Group   2 Type H   : 4s1p contracted to 2s1p pattern {31/1}

Atom   0C    basis set group =>   1
Atom   1C    basis set group =>   1
Atom   2C    basis set group =>   1
Atom   3C    basis set group =>   1
Atom   4H    basis set group =>   2
Atom   5H    basis set group =>   2
Atom   6H    basis set group =>   2
Atom   7H    basis set group =>   2
Atom   8H    basis set group =>   2
Atom   9H    basis set group =>   2
Atom  10H    basis set group =>   2
Atom  11H    basis set group =>   2
Atom  12H    basis set group =>   2
Atom  13H    basis set group =>   2
---------------------------------
AUXILIARY/J BASIS SET INFORMATION
---------------------------------
There are 2 groups of distinct atoms

 Group   1 Type C   : 12s5p4d2f1g contracted to 6s4p3d1f1g pattern {711111/2111/211/2/1}
 Group   2 Type H   : 5s2p1d contracted to 3s1p1d pattern {311/2/1}

Atom   0C    basis set group =>   1
Atom   1C    basis set group =>   1
Atom   2C    basis set group =>   1
Atom   3C    basis set group =>   1
Atom   4H    basis set group =>   2
Atom   5H    basis set group =>   2
Atom   6H    basis set group =>   2
Atom   7H    basis set group =>   2
Atom   8H    basis set group =>   2
Atom   9H    basis set group =>   2
Atom  10H    basis set group =>   2
Atom  11H    basis set group =>   2
Atom  12H    basis set group =>   2
Atom  13H    basis set group =>   2

Checking for AutoStart:
The File: sp.gbw exists
Trying to determine its content:
     ... Fine, the file contains calculation information
     ... Fine, the calculation information was read
     ... Fine, the file contains a basis set
     ... Fine, the basis set was read
     ... Fine, the file contains a geometry
     ... Fine, the geometry was read
     ... Fine, the file contains a set of orbitals
     ... Fine, the orbitals can be read
     => possible old guess file was deleted
     => GBW file was renamed to GES file
     => GES file is set as startup file
     => Guess is set to MORead
     ... now leaving AutoStart

------------------------------------------------------------------------------
                             ORCA STARTUP CALCULATIONS
                           -- RI-GTO INTEGRALS CHOSEN --
------------------------------------------------------------------------------
------------------------------------------------------------------------------
                   ___                                                        
                  /   \      - P O W E R E D   B Y -                         
                 /     \                                                     
                 |  |  |   _    _      __       _____    __    __             
                 |  |  |  | |  | |    /  \     |  _  \  |  |  /  |          
                  \  \/   | |  | |   /    \    | | | |  |  | /  /          
                 / \  \   | |__| |  /  /\  \   | |_| |  |  |/  /          
                |  |  |   |  __  | /  /__\  \  |    /   |      \           
                |  |  |   | |  | | |   __   |  |    \   |  |\   \          
                \     /   | |  | | |  |  |  |  | |\  \  |  | \   \       
                 \___/    |_|  |_| |__|  |__|  |_| \__\ |__|  \__/        
                                                                              
                      - O R C A' S   B I G   F R I E N D -                    
                                      &                                       
                       - I N T E G R A L  F E E D E R -                       
                                                                              
 v1 FN, 2020, v2 2021, v3 2022-2024                                           
------------------------------------------------------------------------------


----------------------
SHARK INTEGRAL PACKAGE
----------------------

Number of atoms                             ...     14
Number of basis functions                   ...    126
Number of shells                            ...     66
Maximum angular momentum                    ...      2
Integral batch strategy                     ... SHARK/LIBINT Hybrid
RI-J (if used) integral strategy            ... SPLIT-RIJ (Revised 2003 algorithm where possible)
Printlevel                                  ...      1
Contraction scheme used                     ... SEGMENTED contraction
Prescreening option                         ... SCHWARTZ
   Thresh                                   ... 1.000e-10
   Tcut                                     ... 1.000e-11
   Tpresel                                  ... 1.000e-11 
Coulomb Range Separation                    ... NOT USED
Exchange Range Separation                   ... NOT USED
Multipole approximations                    ... NOT USED
Finite Nucleus Model                        ... NOT USED
CABS basis                                  ... NOT available
Auxiliary Coulomb fitting basis             ... AVAILABLE
   # of basis functions in Aux-J            ...    306
   # of shells in Aux-J                     ...    110
   Maximum angular momentum in Aux-J        ...      4
Auxiliary J/K fitting basis                 ... NOT available
Auxiliary Correlation fitting basis         ... NOT available
Auxiliary 'external' fitting basis          ... NOT available

Checking pre-screening integrals            ... done (  0.0 sec) Dimension = 66
Check shell pair data                       ... done (  0.0 sec)
Shell pair information
Shell pair cut-off parameter TPreSel        ...   1.0e-11
Total number of shell pairs                 ...      2211
Shell pairs after pre-screening             ...      2112
Total number of primitive shell pairs       ...      7621
Primitive shell pairs kept                  ...      5698
          la=0 lb=0:    780 shell pairs
          la=1 lb=0:    838 shell pairs
          la=1 lb=1:    242 shell pairs
          la=2 lb=0:    156 shell pairs
          la=2 lb=1:     86 shell pairs
          la=2 lb=2:     10 shell pairs

Calculating one electron integrals          ... done (  0.0 sec)
Calculating RI/J V-Matrix + Cholesky decomp.... done (  0.0 sec)
Calculating Nuclear repulsion               ... done (  0.0 sec) ENN=    131.251632543128 Eh

Diagonalization of the overlap matrix:
Smallest eigenvalue                        ... 3.062e-04
Time for diagonalization                   ...    0.001 sec
Threshold for overlap eigenvalues          ... 1.000e-07
Number of eigenvalues below threshold      ... 0
Time for construction of square roots      ...    0.000 sec
Total time needed                          ...    0.002 sec

-------------------
DFT GRID GENERATION
-------------------

General Integration Accuracy     IntAcc      ... 4.388
Radial Grid Type                 RadialGrid  ... OptM3 with GC (2021)
Angular Grid (max. ang.)         AngularGrid ... 4 (Lebedev-302)
Angular grid pruning method      GridPruning ... 4 (adaptive)
Weight generation scheme         WeightScheme... mBecke (2022)
Basis function cutoff            BFCut       ... 1.0000e-10
Integration weight cutoff        WCut        ... 1.0000e-14
Partially contracted basis set               ... off
Rotationally invariant grid construction     ... off
Angular grids for H and He will be reduced by one unit

Total number of grid points                  ...    56364
Total number of batches                      ...      888
Average number of points per batch           ...       63
Average number of grid points per atom       ...     4026
Initializing property integral containers    ... done (  0.0 sec)

SHARK setup successfully completed in   0.3 seconds

Maximum memory used throughout the entire STARTUP-calculation: 23.4 MB
-------------------------------------------------------------------------------
                                 ORCA GUESS
                   Start orbitals & Density for SCF / CASSCF
-------------------------------------------------------------------------------

------------
SCF SETTINGS
------------
Hamiltonian:
 Density Functional     Method          .... DFT(GTOs)
  Functional kind                       .... Exchange
  Functional name                       .... Re-regularized SCAN exchange by Furness et al
  Functional family                     .... MGGA
  Functional refs                              
    [ 0] J. W. Furness, A. D. Kaplan, J. Ning, J. P. Perdew, and J. Sun.,  J. Phys. Chem. Lett. 11, 8208-8215 (2020), doi: 10.1021/acs.jpclett.0c02405
    [ 1] J. W. Furness, A. D. Kaplan, J. Ning, J. P. Perdew, and J. Sun.,  J. Phys. Chem. Lett. 11, 9248-9248 (2020), doi: 10.1021/acs.jpclett.0c03077
  Functional external parameters        .... 6
    Parameter  0 _c1        =  6.670000e-01 : c1 parameter        
    Parameter  1 _c2        =  8.000000e-01 : c2 parameter        
    Parameter  2 _d         =  1.240000e+00 : d parameter         
    Parameter  3 _k1        =  6.500000e-02 : k1 parameter        
    Parameter  4 _eta       =  1.000000e-03 : eta parameter       
    Parameter  5 _dp2       =  3.610000e-01 : dp2 parameter       
  Functional kind                       .... Correlation
  Functional name                       .... Re-regularized SCAN correlation by Furness et al
  Functional family                     .... MGGA
  Functional refs                              
    [ 0] J. W. Furness, A. D. Kaplan, J. Ning, J. P. Perdew, and J. Sun.,  J. Phys. Chem. Lett. 11, 8208-8215 (2020), doi: 10.1021/acs.jpclett.0c02405
    [ 1] J. W. Furness, A. D. Kaplan, J. Ning, J. P. Perdew, and J. Sun.,  J. Phys. Chem. Lett. 11, 9248-9248 (2020), doi: 10.1021/acs.jpclett.0c03077
  Functional external parameters        .... 1
    Parameter  0 _eta       =  1.000000e-03 : Regularization parameter
 Gradients option       PostSCFGGA      .... off
 RI-approximation to the Coulomb term is turned on
   Number of AuxJ basis functions       .... 306


General Settings:
 Integral files         IntName         .... sp
 Hartree-Fock type      HFTyp           .... RHF
 Total Charge           Charge          ....    0
 Multiplicity           Mult            ....    1
 Number of Electrons    NEL             ....   34
 Basis Dimension        Dim             ....  126
 Nuclear Repulsion      ENuc            ....    131.2516325431 Eh

Convergence Acceleration:
 AO-DIIS                CNVDIIS         .... on
   Start iteration      DIISMaxIt       ....    12
   Startup error        DIISStart       ....  0.200000
   # of expansion vecs  DIISMaxEq       ....     5
   Bias factor          DIISBfac        ....   1.050
   Max. coefficient     DIISMaxC        ....  10.000
 MO-DIIS                CNVKDIIS        .... off
 Trust-Rad. Augm. Hess. CNVTRAH         .... auto
   Auto Start mean grad. ratio tolernc. ....  1.125000
   Auto Start start iteration           ....     1
   Auto Start num. interpolation iter.  ....    10
   Max. Number of Micro iterations      ....    24
   Max. Number of Macro iterations      .... Maxiter - #DIIS iter
   Number of Davidson start vectors     ....     2
   Converg. threshold    (grad. norm)   ....   3.330e-04
   Grad. Scal. Fac. for Micro threshold ....   0.100
   Minimum threshold for Micro iter.    ....   1.000e-02
   NR start threshold (gradient norm)   ....   1.000e-04
   Initial trust radius                 ....   0.400
   Minimum AH scaling param. (alpha)    ....   1.000
   Maximum AH scaling param. (alpha)    .... 1000.000
   Quad. conv. algorithm                .... NR
   White noise on init. David. guess    .... on
   Maximum white noise                  ....   0.010
   Pseudo random numbers                .... off
   Inactive MOs                         .... canonical
   Orbital update algorithm             .... Taylor
   Preconditioner                       .... Diag
   Full preconditioner red. dimension   ....   250
   COSX micro iterations for RIJONX calc.... off
 SOSCF                  CNVSOSCF        .... on
   Start iteration      SOSCFMaxIt      ....   150
   Startup grad/error   SOSCFStart      ....  0.003300
   Hessian update       SOSCFHessUp     .... L-BFGS
 Level Shifting         CNVShift        .... on
   Level shift para.    LevelShift      ....    0.2500
   Turn off err/grad.   ShiftErr        ....    0.0010
 Zerner damping         CNVZerner       .... off
 Static damping         CNVDamp         .... on
   Fraction old density DampFac         ....    0.7000
   Max. Damping (<1)    DampMax         ....    0.9800
   Min. Damping (>=0)   DampMin         ....    0.0000
   Turn off err/grad.   DampErr         ....    0.1000

SCF Procedure:
 Maximum # iterations   MaxIter         ....   125
 SCF integral mode      SCFMode         .... Direct
   Integral package                     .... SHARK and LIBINT hybrid scheme
 Reset frequency        DirectResetFreq ....    20
 Integral Threshold     Thresh          ....  1.000e-10 Eh
 Primitive CutOff       TCut            ....  1.000e-11 Eh

Convergence Tolerance:
 Convergence Check Mode ConvCheckMode   .... Total+1el-Energy
 Convergence forced     ConvForced      .... 0
 Energy Change          TolE            ....  1.000e-06 Eh
 1-El. energy change                    ....  1.000e-03 Eh
 Orbital Gradient       TolG            ....  3.330e-04
 Orbital Rotation angle TolX            ....  3.330e-04
 DIIS Error             TolErr          ....  1.000e-06

---------------------
INITIAL GUESS: MOREAD
---------------------
Guess MOs are being read from file: sp.ges
Input Geometry matches current geometry (good)
Atom 0: N(Shells)= 9 and 6 - projection required
Input basis set needs projection
NBasis(read)= 76
NBasis(calc)= 126
Basis set overlap was calculated
Using GuessMode=FMatrix for the initial guess
C*T matrix was formed
Effective Fockian was calculated
Effective Fockian was diagonalized
Initial density was built
                      ------------------
                      INITIAL GUESS DONE (   0.0 sec)
                      ------------------
             **** ENERGY FILE WAS UPDATED (sp.en.tmp) ****
Finished Guess after   0.0 sec
Maximum memory used throughout the entire GUESS-calculation: 9.3 MB

-------------------------------------------------------------------------------------------
                                      ORCA LEAN-SCF
                              memory conserving SCF solver
-------------------------------------------------------------------------------------------

----------------------------------------D-I-I-S--------------------------------------------
Iteration    Energy (Eh)           Delta-E    RMSDP     MaxDP     DIISErr   Damp  Time(sec)
-------------------------------------------------------------------------------------------
               ***  Starting incremental Fock matrix formation  ***
    1    -158.3083781717062948     0.00e+00  3.59e-03  7.10e-02  2.79e-01  0.700   0.5
    2    -158.3334426306017235    -2.51e-02  3.01e-03  6.04e-02  1.96e-01  0.700   0.5
                               ***Turning on AO-DIIS***
    3    -158.3512046023514017    -1.78e-02  2.27e-03  4.49e-02  1.38e-01  0.700   0.4
    4    -158.3636807985612336    -1.25e-02  1.64e-03  3.21e-02  9.62e-02  0.700   0.4
    5    -158.3724344024258812    -8.75e-03  3.88e-03  7.55e-02  6.73e-02  0.000   0.4
                              *** Initializing SOSCF ***
---------------------------------------S-O-S-C-F--------------------------------------
Iteration    Energy (Eh)           Delta-E    RMSDP     MaxDP     MaxGrad    Time(sec)
--------------------------------------------------------------------------------------
    6    -158.3929352292275894    -2.05e-02  5.72e-05  8.78e-04  1.45e-04     0.5
               *** Restarting incremental Fock matrix formation ***
    7    -158.3929356969244964    -4.68e-07  2.19e-05  2.97e-04  4.18e-05     0.5
                  *** Gradient check signals convergence ***

               *****************************************************
               *                     SUCCESS                       *
               *           SCF CONVERGED AFTER   7 CYCLES          *
               *****************************************************

             **** ENERGY FILE WAS UPDATED (sp.en.tmp) ****

----------------
TOTAL SCF ENERGY
----------------

Total Energy       :       -158.39293569692450 Eh           -4310.09090 eV

Components:
Nuclear Repulsion  :        131.25163254312815 Eh            3571.53850 eV
Electronic Energy  :       -289.64456824005265 Eh           -7881.62940 eV
One Electron Energy:       -471.09575200237532 Eh          -12819.16713 eV
Two Electron Energy:        181.45118376232264 Eh            4937.53773 eV

Virial components:
Potential Energy   :       -316.01731517868029 Eh           -8599.26832 eV
Kinetic Energy     :        157.62437948175580 Eh            4289.17742 eV
Virial Ratio       :          2.00487587147176

DFT components:
N(Alpha)           :       16.999939394441 electrons
N(Beta)            :       16.999939394441 electrons
N(Total)           :       33.999878788883 electrons
E(X)               :      -24.371509333807 Eh       
E(C)               :       -1.028049997778 Eh       
E(XC)              :      -25.399559331585 Eh       

---------------
SCF CONVERGENCE
---------------

  Last Energy change         ...    4.6770e-07  Tolerance :   1.0000e-06
  Last MAX-Density change    ...    2.9734e-04  Tolerance :   1.0000e-05
  Last RMS-Density change    ...    2.1853e-05  Tolerance :   1.0000e-06
  Last DIIS Error            ...    1.4478e-04  Tolerance :   1.0000e-06
  Last Orbital Gradient      ...    4.1831e-05  Tolerance :   3.3300e-04
  Last Orbital Rotation      ...    9.0587e-05  Tolerance :   3.3300e-04


----------------
ORBITAL ENERGIES
----------------

  NO   OCC          E(Eh)            E(eV) 
   0   2.0000     -10.020770      -272.6790 
   1   2.0000     -10.020639      -272.6754 
   2   2.0000     -10.013028      -272.4684 
   3   2.0000     -10.013028      -272.4683 
   4   2.0000      -0.759924       -20.6786 
   5   2.0000      -0.689286       -18.7564 
   6   2.0000      -0.594028       -16.1643 
   7   2.0000      -0.540406       -14.7052 
   8   2.0000      -0.437547       -11.9063 
   9   2.0000      -0.394402       -10.7322 
  10   2.0000      -0.385600       -10.4927 
  11   2.0000      -0.379182       -10.3181 
  12   2.0000      -0.335514        -9.1298 
  13   2.0000      -0.317622        -8.6429 
  14   2.0000      -0.300442        -8.1754 
  15   2.0000      -0.290737        -7.9113 
  16   2.0000      -0.287825        -7.8321 
  17   0.0000       0.103915         2.8277 
  18   0.0000       0.109251         2.9729 
  19   0.0000       0.138057         3.7567 
  20   0.0000       0.147255         4.0070 
  21   0.0000       0.149669         4.0727 
  22   0.0000       0.159681         4.3451 
  23   0.0000       0.161253         4.3879 
  24   0.0000       0.190852         5.1933 
  25   0.0000       0.202265         5.5039 
  26   0.0000       0.203186         5.5290 
  27   0.0000       0.209566         5.7026 
*Only the first 10 virtual orbitals were printed.

                    ********************************
                    * MULLIKEN POPULATION ANALYSIS *
                    ********************************

-----------------------
MULLIKEN ATOMIC CHARGES
-----------------------
   0 C :   -0.457685
   1 C :   -0.227221
   2 C :   -0.227221
   3 C :   -0.457684
   4 H :    0.144279
   5 H :    0.139271
   6 H :    0.139280
   7 H :    0.131035
   8 H :    0.131040
   9 H :    0.131040
  10 H :    0.131036
  11 H :    0.139275
  12 H :    0.139275
  13 H :    0.144279
Sum of atomic charges:   -0.0000000

--------------------------------
MULLIKEN REDUCED ORBITAL CHARGES
--------------------------------
  0 C s       :     3.317012  s :     3.317012
      pz      :     1.076636  p :     3.113547
      px      :     0.975850
      py      :     1.061061
      dz2     :     0.004832  d :     0.027125
      dxz     :     0.002602
      dyz     :     0.007423
      dx2y2   :     0.004340
      dxy     :     0.007928

  1 C s       :     3.212961  s :     3.212961
      pz      :     1.084117  p :     2.977180
      px      :     0.908009
      py      :     0.985054
      dz2     :     0.005516  d :     0.037080
      dxz     :     0.003936
      dyz     :     0.010326
      dx2y2   :     0.007674
      dxy     :     0.009628

  2 C s       :     3.212961  s :     3.212961
      pz      :     1.084118  p :     2.977180
      px      :     0.908009
      py      :     0.985053
      dz2     :     0.005516  d :     0.037080
      dxz     :     0.003936
      dyz     :     0.010326
      dx2y2   :     0.007674
      dxy     :     0.009628

  3 C s       :     3.317013  s :     3.317013
      pz      :     1.076636  p :     3.113547
      px      :     0.975851
      py      :     1.061060
      dz2     :     0.004832  d :     0.027125
      dxz     :     0.002602
      dyz     :     0.007423
      dx2y2   :     0.004340
      dxy     :     0.007928

  4 H s       :     0.837389  s :     0.837389
      pz      :     0.003758  p :     0.018331
      px      :     0.007543
      py      :     0.007030

  5 H s       :     0.842446  s :     0.842446
      pz      :     0.008377  p :     0.018283
      px      :     0.003716
      py      :     0.006190

  6 H s       :     0.842437  s :     0.842437
      pz      :     0.008379  p :     0.018283
      px      :     0.003716
      py      :     0.006188

  7 H s       :     0.851079  s :     0.851079
      pz      :     0.008265  p :     0.017885
      px      :     0.003460
      py      :     0.006160

  8 H s       :     0.851075  s :     0.851075
      pz      :     0.008266  p :     0.017885
      px      :     0.003460
      py      :     0.006160

  9 H s       :     0.851075  s :     0.851075
      pz      :     0.008265  p :     0.017885
      px      :     0.003460
      py      :     0.006160

 10 H s       :     0.851079  s :     0.851079
      pz      :     0.008265  p :     0.017885
      px      :     0.003460
      py      :     0.006160

 11 H s       :     0.842442  s :     0.842442
      pz      :     0.008378  p :     0.018283
      px      :     0.003716
      py      :     0.006189

 12 H s       :     0.842441  s :     0.842441
      pz      :     0.008378  p :     0.018283
      px      :     0.003716
      py      :     0.006189

 13 H s       :     0.837389  s :     0.837389
      pz      :     0.003757  p :     0.018331
      px      :     0.007543
      py      :     0.007030


------------------------
MULLIKEN OVERLAP CHARGES
------------------------
B(  0-C ,  1-C ) :   0.4899 B(  0-C ,  2-C ) :  -0.1804 B(  0-C ,  4-H ) :   0.8102 
B(  0-C ,  5-H ) :   0.8494 B(  0-C ,  6-H ) :   0.8494 B(  0-C ,  7-H ) :  -0.0642 
B(  0-C ,  8-H ) :  -0.0642 B(  1-C ,  2-C ) :   0.5382 B(  1-C ,  3-C ) :  -0.1804 
B(  1-C ,  4-H ) :  -0.0787 B(  1-C ,  5-H ) :  -0.0916 B(  1-C ,  6-H ) :  -0.0916 
B(  1-C ,  7-H ) :   0.8414 B(  1-C ,  8-H ) :   0.8413 B(  1-C ,  9-H ) :  -0.0833 
B(  1-C , 10-H ) :  -0.0833 B(  2-C ,  3-C ) :   0.4899 B(  2-C ,  7-H ) :  -0.0833 
B(  2-C ,  8-H ) :  -0.0833 B(  2-C ,  9-H ) :   0.8413 B(  2-C , 10-H ) :   0.8414 
B(  2-C , 11-H ) :  -0.0916 B(  2-C , 12-H ) :  -0.0916 B(  2-C , 13-H ) :  -0.0787 
B(  3-C ,  9-H ) :  -0.0642 B(  3-C , 10-H ) :  -0.0642 B(  3-C , 11-H ) :   0.8494 
B(  3-C , 12-H ) :   0.8494 B(  3-C , 13-H ) :   0.8102 B(  5-H ,  6-H ) :  -0.0528 
B(  7-H ,  8-H ) :  -0.0542 B(  9-H , 10-H ) :  -0.0542 B( 11-H , 12-H ) :  -0.0528 



                     *******************************
                     * LOEWDIN POPULATION ANALYSIS *
                     *******************************

----------------------
LOEWDIN ATOMIC CHARGES
----------------------
   0 C :   -0.426922
   1 C :   -0.320507
   2 C :   -0.320507
   3 C :   -0.426922
   4 H :    0.149529
   5 H :    0.149121
   6 H :    0.149123
   7 H :    0.149828
   8 H :    0.149829
   9 H :    0.149829
  10 H :    0.149828
  11 H :    0.149123
  12 H :    0.149121
  13 H :    0.149529

-------------------------------
LOEWDIN REDUCED ORBITAL CHARGES
-------------------------------
  0 C s       :     2.974690  s :     2.974690
      pz      :     1.156530  p :     3.388674
      px      :     1.089760
      py      :     1.142384
      dz2     :     0.012261  d :     0.063559
      dxz     :     0.004660
      dyz     :     0.018607
      dx2y2   :     0.009317
      dxy     :     0.018713

  1 C s       :     2.941698  s :     2.941698
      pz      :     1.144023  p :     3.298353
      px      :     1.052564
      py      :     1.101767
      dz2     :     0.013290  d :     0.080456
      dxz     :     0.006592
      dyz     :     0.024002
      dx2y2   :     0.015339
      dxy     :     0.021234

  2 C s       :     2.941698  s :     2.941698
      pz      :     1.144023  p :     3.298353
      px      :     1.052564
      py      :     1.101767
      dz2     :     0.013290  d :     0.080456
      dxz     :     0.006592
      dyz     :     0.024002
      dx2y2   :     0.015339
      dxy     :     0.021234

  3 C s       :     2.974690  s :     2.974690
      pz      :     1.156531  p :     3.388674
      px      :     1.089760
      py      :     1.142383
      dz2     :     0.012261  d :     0.063559
      dxz     :     0.004660
      dyz     :     0.018607
      dx2y2   :     0.009317
      dxy     :     0.018713

  4 H s       :     0.807056  s :     0.807056
      pz      :     0.008087  p :     0.043415
      px      :     0.018145
      py      :     0.017183

  5 H s       :     0.807647  s :     0.807647
      pz      :     0.020502  p :     0.043231
      px      :     0.008249
      py      :     0.014480

  6 H s       :     0.807646  s :     0.807646
      pz      :     0.020507  p :     0.043231
      px      :     0.008251
      py      :     0.014473

  7 H s       :     0.807263  s :     0.807263
      pz      :     0.020178  p :     0.042909
      px      :     0.008106
      py      :     0.014625

  8 H s       :     0.807262  s :     0.807262
      pz      :     0.020179  p :     0.042909
      px      :     0.008106
      py      :     0.014624

  9 H s       :     0.807262  s :     0.807262
      pz      :     0.020179  p :     0.042909
      px      :     0.008106
      py      :     0.014624

 10 H s       :     0.807264  s :     0.807264
      pz      :     0.020178  p :     0.042909
      px      :     0.008106
      py      :     0.014625

 11 H s       :     0.807646  s :     0.807646
      pz      :     0.020504  p :     0.043231
      px      :     0.008250
      py      :     0.014477

 12 H s       :     0.807647  s :     0.807647
      pz      :     0.020505  p :     0.043232
      px      :     0.008250
      py      :     0.014476

 13 H s       :     0.807056  s :     0.807056
      pz      :     0.008087  p :     0.043415
      px      :     0.018145
      py      :     0.017183


---------------------------------
LOEWDIN BOND ORDERS (THRESH 0.050000)
---------------------------------
B(  0-C ,  1-C ) :   1.1465 B(  0-C ,  2-C ) :   0.0748 B(  0-C ,  4-H ) :   0.9311 
B(  0-C ,  5-H ) :   0.9306 B(  0-C ,  6-H ) :   0.9306 B(  1-C ,  2-C ) :   1.1082 
B(  1-C ,  3-C ) :   0.0748 B(  1-C ,  7-H ) :   0.8972 B(  1-C ,  8-H ) :   0.8972 
B(  2-C ,  3-C ) :   1.1465 B(  2-C ,  9-H ) :   0.8972 B(  2-C , 10-H ) :   0.8972 
B(  3-C , 11-H ) :   0.9306 B(  3-C , 12-H ) :   0.9306 B(  3-C , 13-H ) :   0.9311 


------------------------------------------
LOEWDIN REDUCED ORBITAL POPULATIONS PER MO
-------------------------------------------
THRESHOLD FOR PRINTING IS 0.1%%
                      0         1         2         3         4         5   
                 -10.02077 -10.02064 -10.01303 -10.01303  -0.75992  -0.68929
                   2.00000   2.00000   2.00000   2.00000   2.00000   2.00000
                  --------  --------  --------  --------  --------  --------
 0 C  s               0.0       0.0      47.4      52.3      10.6      20.4
 0 C  px              0.0       0.0       0.0       0.0       2.6       0.2
 0 C  py              0.0       0.0       0.0       0.0       0.3       0.2
 1 C  s              49.9      49.8       0.0       0.0      23.1       6.0
 1 C  px              0.0       0.0       0.0       0.0       0.2       8.3
 1 C  py              0.0       0.0       0.0       0.0       1.7       0.0
 1 C  dxy             0.0       0.0       0.0       0.0       0.0       0.1
 2 C  s              49.8      49.9       0.0       0.0      23.1       6.0
 2 C  px              0.0       0.0       0.0       0.0       0.2       8.3
 2 C  py              0.0       0.0       0.0       0.0       1.7       0.0
 2 C  dxy             0.0       0.0       0.0       0.0       0.0       0.1
 3 C  s               0.0       0.0      52.3      47.4      10.6      20.4
 3 C  px              0.0       0.0       0.0       0.0       2.6       0.2
 3 C  py              0.0       0.0       0.0       0.0       0.3       0.2
 4 H  s               0.0       0.0       0.0       0.0       1.4       3.9
 4 H  px              0.0       0.0       0.0       0.0       0.1       0.2
 4 H  py              0.0       0.0       0.0       0.0       0.0       0.2
 5 H  s               0.0       0.0       0.0       0.0       1.4       3.7
 5 H  pz              0.0       0.0       0.0       0.0       0.1       0.2
 5 H  py              0.0       0.0       0.0       0.0       0.0       0.1
 6 H  s               0.0       0.0       0.0       0.0       1.4       3.7
 6 H  pz              0.0       0.0       0.0       0.0       0.1       0.2
 6 H  py              0.0       0.0       0.0       0.0       0.0       0.1
 7 H  s               0.0       0.0       0.0       0.0       3.1       1.0
 7 H  pz              0.0       0.0       0.0       0.0       0.2       0.1
 8 H  s               0.0       0.0       0.0       0.0       3.1       1.0
 8 H  pz              0.0       0.0       0.0       0.0       0.2       0.1
 9 H  s               0.0       0.0       0.0       0.0       3.1       1.0
 9 H  pz              0.0       0.0       0.0       0.0       0.2       0.1
10 H  s               0.0       0.0       0.0       0.0       3.1       1.0
10 H  pz              0.0       0.0       0.0       0.0       0.2       0.1
11 H  s               0.0       0.0       0.0       0.0       1.4       3.7
11 H  pz              0.0       0.0       0.0       0.0       0.1       0.2
11 H  py              0.0       0.0       0.0       0.0       0.0       0.1
12 H  s               0.0       0.0       0.0       0.0       1.4       3.7
12 H  pz              0.0       0.0       0.0       0.0       0.1       0.2
12 H  py              0.0       0.0       0.0       0.0       0.0       0.1
13 H  s               0.0       0.0       0.0       0.0       1.4       3.9
13 H  px              0.0       0.0       0.0       0.0       0.1       0.2
13 H  py              0.0       0.0       0.0       0.0       0.0       0.2

                      6         7         8         9        10        11   
                  -0.59403  -0.54041  -0.43755  -0.39440  -0.38560  -0.37918
                   2.00000   2.00000   2.00000   2.00000   2.00000   2.00000
                  --------  --------  --------  --------  --------  --------
 0 C  s              14.2       2.5       0.0       0.0       0.2       0.0
 0 C  pz              0.0       0.0      10.5       0.0       0.0      24.4
 0 C  px              4.2       2.3       0.0       1.2      22.6       0.0
 0 C  py              0.4       3.8       0.0      19.6       2.2       0.0
 0 C  dz2             0.0       0.0       0.0       0.1       0.0       0.0
 0 C  dyz             0.0       0.0       0.0       0.0       0.0       0.2
 0 C  dxy             0.0       0.1       0.0       0.0       0.2       0.0
 1 C  s               5.7      10.4       0.0       0.1       0.9       0.0
 1 C  pz              0.0       0.0      24.6       0.0       0.0       7.4
 1 C  px              6.3       0.1       0.0       5.7       6.2       0.0
 1 C  py              0.0      11.5       0.0       9.4       6.5       0.0
 1 C  dz2             0.0       0.1       0.0       0.1       0.0       0.0
 1 C  dxz             0.0       0.0       0.0       0.0       0.0       0.1
 1 C  dxy             0.2       0.0       0.0       0.0       0.1       0.0
 2 C  s               5.7      10.4       0.0       0.1       0.9       0.0
 2 C  pz              0.0       0.0      24.6       0.0       0.0       7.4
 2 C  px              6.3       0.1       0.0       5.7       6.2       0.0
 2 C  py              0.0      11.5       0.0       9.4       6.5       0.0
 2 C  dz2             0.0       0.1       0.0       0.1       0.0       0.0
 2 C  dxz             0.0       0.0       0.0       0.0       0.0       0.1
 2 C  dxy             0.2       0.0       0.0       0.0       0.1       0.0
 3 C  s              14.2       2.5       0.0       0.0       0.2       0.0
 3 C  pz              0.0       0.0      10.5       0.0       0.0      24.4
 3 C  px              4.2       2.3       0.0       1.2      22.6       0.0
 3 C  py              0.4       3.8       0.0      19.6       2.2       0.0
 3 C  dz2             0.0       0.0       0.0       0.1       0.0       0.0
 3 C  dyz             0.0       0.0       0.0       0.0       0.0       0.2
 3 C  dxy             0.0       0.1       0.0       0.0       0.2       0.0
 4 H  s               5.2       0.7       0.0       5.7       9.6       0.0
 4 H  pz              0.0       0.0       0.0       0.0       0.0       0.2
 4 H  px              0.2       0.0       0.0       0.2       0.0       0.0
 4 H  py              0.2       0.1       0.0       0.0       0.2       0.0
 5 H  s               4.5       2.0       2.2       2.5       0.0       6.7
 5 H  pz              0.2       0.1       0.0       0.1       0.0       0.0
 5 H  px              0.0       0.0       0.0       0.0       0.2       0.0
 5 H  py              0.1       0.0       0.1       0.0       0.0       0.2
 6 H  s               4.5       2.0       2.2       2.5       0.0       6.7
 6 H  pz              0.2       0.1       0.0       0.1       0.0       0.0
 6 H  px              0.0       0.0       0.0       0.0       0.2       0.0
 6 H  py              0.1       0.0       0.1       0.0       0.0       0.2
 7 H  s               1.6       6.5       4.9       1.2       0.3       1.9
 7 H  pz              0.1       0.4       0.0       0.1       0.0       0.0
 7 H  py              0.1       0.1       0.2       0.0       0.0       0.1
 8 H  s               1.6       6.5       4.9       1.2       0.3       1.9
 8 H  pz              0.1       0.4       0.0       0.1       0.0       0.0
 8 H  py              0.1       0.1       0.2       0.0       0.0       0.1
 9 H  s               1.6       6.5       4.9       1.2       0.3       1.9
 9 H  pz              0.1       0.4       0.0       0.1       0.0       0.0
 9 H  py              0.1       0.1       0.2       0.0       0.0       0.1
10 H  s               1.6       6.5       4.9       1.2       0.3       1.9
10 H  pz              0.1       0.4       0.0       0.1       0.0       0.0
10 H  py              0.1       0.1       0.2       0.0       0.0       0.1
11 H  s               4.5       2.0       2.2       2.5       0.0       6.7
11 H  pz              0.2       0.1       0.0       0.1       0.0       0.0
11 H  px              0.0       0.0       0.0       0.0       0.2       0.0
11 H  py              0.1       0.0       0.1       0.0       0.0       0.2
12 H  s               4.5       2.0       2.2       2.5       0.0       6.7
12 H  pz              0.2       0.1       0.0       0.1       0.0       0.0
12 H  px              0.0       0.0       0.0       0.0       0.2       0.0
12 H  py              0.1       0.0       0.1       0.0       0.0       0.2
13 H  s               5.2       0.7       0.0       5.7       9.6       0.0
13 H  pz              0.0       0.0       0.0       0.0       0.0       0.2
13 H  px              0.2       0.0       0.0       0.2       0.0       0.0
13 H  py              0.2       0.1       0.0       0.0       0.2       0.0

                     12        13        14        15        16        17   
                  -0.33551  -0.31762  -0.30044  -0.29074  -0.28783   0.10392
                   2.00000   2.00000   2.00000   2.00000   2.00000   0.00000
                  --------  --------  --------  --------  --------  --------
 0 C  s               0.1       0.0       0.9       0.0       0.1       8.1
 0 C  pz              0.0      18.3       0.0       4.6       0.0       0.0
 0 C  px              0.3       0.0      10.6       0.0      10.5       3.4
 0 C  py             22.4       0.0       5.9       0.0       2.4       1.1
 0 C  dz2             0.3       0.0       0.1       0.0       0.1       0.2
 0 C  dyz             0.0       0.4       0.0       0.3       0.0       0.0
 0 C  dx2y2           0.1       0.0       0.1       0.0       0.1       0.0
 0 C  dxy             0.1       0.0       0.0       0.0       0.4       0.8
 1 C  s               0.1       0.0       0.6       0.0       0.3      15.6
 1 C  pz              0.0       8.3       0.0      17.0       0.0       0.0
 1 C  px              4.8       0.0       5.2       0.0      15.6       0.6
 1 C  py              3.8       0.0      14.0       0.0       8.1       2.6
 1 C  dz2             0.1       0.0       0.3       0.0       0.0       0.2
 1 C  dxz             0.0       0.2       0.0       0.0       0.0       0.0
 1 C  dyz             0.0       0.1       0.0       1.0       0.0       0.0
 1 C  dx2y2           0.1       0.0       0.6       0.0       0.0       0.0
 1 C  dxy             0.0       0.0       0.0       0.0       0.5       0.2
 2 C  s               0.1       0.0       0.6       0.0       0.3      15.6
 2 C  pz              0.0       8.3       0.0      17.0       0.0       0.0
 2 C  px              4.8       0.0       5.2       0.0      15.6       0.6
 2 C  py              3.8       0.0      14.0       0.0       8.1       2.6
 2 C  dz2             0.1       0.0       0.3       0.0       0.0       0.2
 2 C  dxz             0.0       0.2       0.0       0.0       0.0       0.0
 2 C  dyz             0.0       0.1       0.0       1.0       0.0       0.0
 2 C  dx2y2           0.1       0.0       0.6       0.0       0.0       0.0
 2 C  dxy             0.0       0.0       0.0       0.0       0.5       0.2
 3 C  s               0.1       0.0       0.9       0.0       0.1       8.1
 3 C  pz              0.0      18.3       0.0       4.6       0.0       0.0
 3 C  px              0.3       0.0      10.6       0.0      10.5       3.4
 3 C  py             22.4       0.0       5.9       0.0       2.4       1.1
 3 C  dz2             0.3       0.0       0.1       0.0       0.1       0.2
 3 C  dyz             0.0       0.4       0.0       0.3       0.0       0.0
 3 C  dx2y2           0.1       0.0       0.1       0.0       0.1       0.0
 3 C  dxy             0.1       0.0       0.0       0.0       0.4       0.8
 4 H  s               5.5       0.0       0.0       0.0       8.3       2.2
 4 H  pz              0.0       0.2       0.0       0.0       0.0       0.0
 4 H  px              0.2       0.0       0.1       0.0       0.0       0.1
 4 H  py              0.0       0.0       0.1       0.0       0.1       0.9
 5 H  s               4.4       7.8       1.4       3.2       0.6       1.5
 5 H  pz              0.2       0.0       0.0       0.0       0.0       0.7
 5 H  px              0.0       0.0       0.1       0.0       0.1       0.3
 5 H  py              0.0       0.1       0.0       0.0       0.0       0.1
 6 H  s               4.4       7.8       1.4       3.2       0.6       1.5
 6 H  pz              0.2       0.0       0.0       0.0       0.0       0.7
 6 H  px              0.0       0.0       0.1       0.0       0.1       0.3
 6 H  py              0.0       0.1       0.0       0.0       0.0       0.1
 7 H  s               1.5       3.2       4.0      10.2       0.8       2.7
 7 H  pz              0.1       0.0       0.1       0.0       0.0       1.4
 7 H  px              0.0       0.0       0.0       0.0       0.2       0.1
 7 H  py              0.0       0.1       0.0       0.1       0.0       0.2
 8 H  s               1.5       3.2       4.0      10.2       0.8       2.7
 8 H  pz              0.1       0.0       0.1       0.0       0.0       1.4
 8 H  px              0.0       0.0       0.0       0.0       0.2       0.1
 8 H  py              0.0       0.1       0.0       0.1       0.0       0.2
 9 H  s               1.5       3.2       4.0      10.2       0.8       2.7
 9 H  pz              0.1       0.0       0.1       0.0       0.0       1.4
 9 H  px              0.0       0.0       0.0       0.0       0.2       0.1
 9 H  py              0.0       0.1       0.0       0.1       0.0       0.2
10 H  s               1.5       3.2       4.0      10.2       0.8       2.7
10 H  pz              0.1       0.0       0.1       0.0       0.0       1.4
10 H  px              0.0       0.0       0.0       0.0       0.2       0.1
10 H  py              0.0       0.1       0.0       0.1       0.0       0.2
11 H  s               4.4       7.8       1.4       3.2       0.6       1.5
11 H  pz              0.2       0.0       0.0       0.0       0.0       0.7
11 H  px              0.0       0.0       0.1       0.0       0.1       0.3
11 H  py              0.0       0.1       0.0       0.0       0.0       0.1
12 H  s               4.4       7.8       1.4       3.2       0.6       1.5
12 H  pz              0.2       0.0       0.0       0.0       0.0       0.7
12 H  px              0.0       0.0       0.1       0.0       0.1       0.3
12 H  py              0.0       0.1       0.0       0.0       0.0       0.1
13 H  s               5.5       0.0       0.0       0.0       8.3       2.2
13 H  pz              0.0       0.2       0.0       0.0       0.0       0.0
13 H  px              0.2       0.0       0.1       0.0       0.0       0.1
13 H  py              0.0       0.0       0.1       0.0       0.1       0.9

                     18        19        20        21        22        23   
                   0.10925   0.13806   0.14726   0.14967   0.15968   0.16125
                   0.00000   0.00000   0.00000   0.00000   0.00000   0.00000
                  --------  --------  --------  --------  --------  --------
 0 C  s              20.9       5.3       1.0       0.0       0.1       6.7
 0 C  pz              0.0       0.0       0.0      11.6       0.0       0.0
 0 C  px              1.9      11.3       5.6       0.0      10.8      14.3
 0 C  py              0.2       1.3       8.4       0.0       5.9       5.3
 0 C  dz2             0.0       0.3       0.2       0.0       0.8       0.6
 0 C  dxz             0.0       0.0       0.0       0.3       0.0       0.0
 0 C  dyz             0.0       0.0       0.0       0.3       0.0       0.0
 0 C  dx2y2           0.1       0.1       0.3       0.0       1.4       0.0
 0 C  dxy             0.0       1.2       0.2       0.0       0.0       0.0
 1 C  s               1.1       0.6      13.0       0.0       1.5       3.6
 1 C  pz              0.0       0.0       0.0      17.0       0.0       0.0
 1 C  px             13.0       4.2       0.9       0.0       1.4       0.5
 1 C  py              0.2      11.7      12.6       0.0      10.7       7.7
 1 C  dz2             0.0       1.1       0.1       0.0       0.6       0.8
 1 C  dyz             0.0       0.0       0.0       2.0       0.0       0.0
 1 C  dx2y2           0.5       0.0       0.1       0.0       1.2       0.0
 1 C  dxy             0.9       0.5       0.2       0.0       0.3       0.0
 2 C  s               1.1       0.6      13.0       0.0       1.5       3.6
 2 C  pz              0.0       0.0       0.0      17.0       0.0       0.0
 2 C  px             13.0       4.2       0.9       0.0       1.4       0.5
 2 C  py              0.2      11.7      12.6       0.0      10.7       7.7
 2 C  dz2             0.0       1.1       0.1       0.0       0.6       0.7
 2 C  dyz             0.0       0.0       0.0       2.0       0.0       0.0
 2 C  dx2y2           0.5       0.0       0.1       0.0       1.2       0.0
 2 C  dxy             0.9       0.5       0.2       0.0       0.3       0.0
 3 C  s              20.9       5.3       1.0       0.0       0.1       6.7
 3 C  pz              0.0       0.0       0.0      11.6       0.0       0.0
 3 C  px              1.9      11.3       5.6       0.0      10.8      14.3
 3 C  py              0.2       1.3       8.4       0.0       5.9       5.3
 3 C  dz2             0.0       0.3       0.2       0.0       0.8       0.6
 3 C  dxz             0.0       0.0       0.0       0.3       0.0       0.0
 3 C  dyz             0.0       0.0       0.0       0.3       0.0       0.0
 3 C  dx2y2           0.1       0.1       0.3       0.0       1.4       0.0
 3 C  dxy             0.0       1.2       0.2       0.0       0.0       0.0
 4 H  s               2.1       3.9       0.1       0.0       1.6       3.6
 4 H  px              0.5       0.0       0.3       0.0       1.7       0.8
 4 H  py              1.0       0.1       0.2       0.0       0.0       0.6
 5 H  s               1.7       1.4       0.3       1.5       2.1       0.5
 5 H  pz              0.7       0.7       0.0       0.3       0.6       0.0
 5 H  px              0.0       0.4       0.1       0.0       0.1       0.0
 5 H  py              0.6       0.0       0.1       0.4       0.0       0.5
 6 H  s               1.7       1.4       0.3       1.5       2.1       0.5
 6 H  pz              0.7       0.7       0.0       0.3       0.6       0.0
 6 H  px              0.0       0.4       0.1       0.0       0.1       0.0
 6 H  py              0.6       0.0       0.1       0.4       0.0       0.5
 7 H  s               0.1       0.5       1.3       5.2       2.5       0.9
 7 H  pz              0.1       0.3       0.7       0.7       0.7       0.7
 7 H  px              0.5       0.3       0.0       0.0       0.0       0.0
 7 H  py              0.1       0.5       0.9       1.1       0.0       0.0
 8 H  s               0.1       0.5       1.3       5.2       2.5       0.9
 8 H  pz              0.1       0.3       0.7       0.7       0.7       0.7
 8 H  px              0.5       0.3       0.0       0.0       0.0       0.0
 8 H  py              0.1       0.5       0.9       1.1       0.0       0.0
 9 H  s               0.1       0.5       1.3       5.2       2.5       0.9
 9 H  pz              0.1       0.3       0.7       0.7       0.7       0.7
 9 H  px              0.5       0.3       0.0       0.0       0.0       0.0
 9 H  py              0.1       0.5       0.9       1.1       0.0       0.0
10 H  s               0.1       0.5       1.3       5.2       2.5       0.9
10 H  pz              0.1       0.3       0.7       0.7       0.7       0.7
10 H  px              0.5       0.3       0.0       0.0       0.0       0.0
10 H  py              0.1       0.5       0.9       1.1       0.0       0.0
11 H  s               1.7       1.4       0.3       1.5       2.1       0.5
11 H  pz              0.7       0.7       0.0       0.3       0.6       0.0
11 H  px              0.0       0.4       0.1       0.0       0.1       0.0
11 H  py              0.6       0.0       0.1       0.4       0.0       0.5
12 H  s               1.7       1.4       0.3       1.5       2.1       0.5
12 H  pz              0.7       0.7       0.0       0.3       0.6       0.0
12 H  px              0.0       0.4       0.1       0.0       0.1       0.0
12 H  py              0.6       0.0       0.1       0.4       0.0       0.5
13 H  s               2.1       3.9       0.1       0.0       1.6       3.6
13 H  px              0.5       0.0       0.3       0.0       1.7       0.8
13 H  py              1.0       0.1       0.2       0.0       0.0       0.6

                     24        25        26        27        28        29   
                   0.19085   0.20226   0.20319   0.20957   0.21501   0.22149
                   0.00000   0.00000   0.00000   0.00000   0.00000   0.00000
                  --------  --------  --------  --------  --------  --------
 0 C  s               0.0       2.1       0.0       0.7       0.1       0.0
 0 C  pz             16.7       0.0      13.8       0.0       0.0      35.0
 0 C  px              0.0       3.0       0.0       6.4       2.9       0.0
 0 C  py              0.0       9.3       0.0       9.4      36.3       0.0
 0 C  dz2             0.0       2.0       0.0       0.1       0.0       0.0
 0 C  dxz             0.1       0.0       0.5       0.0       0.0       0.1
 0 C  dyz             3.1       0.0       2.2       0.0       0.0       1.2
 0 C  dxy             0.0       0.4       0.0       2.0       0.1       0.0
 1 C  s               0.0       2.6       0.0       0.9       0.1       0.0
 1 C  pz              2.3       0.0       2.7       0.0       0.0       5.3
 1 C  px              0.0       4.3       0.0       9.7       1.1       0.0
 1 C  py              0.0       3.7       0.0       6.3       0.3       0.0
 1 C  dz2             0.0       0.3       0.0       0.3       0.0       0.0
 1 C  dxz             0.7       0.0       1.0       0.0       0.0       0.0
 1 C  dyz             0.5       0.0       0.9       0.0       0.0       0.0
 1 C  dx2y2           0.0       0.3       0.0       0.0       0.2       0.0
 1 C  dxy             0.0       0.3       0.0       1.1       0.0       0.0
 2 C  s               0.0       2.6       0.0       0.9       0.1       0.0
 2 C  pz              2.3       0.0       2.7       0.0       0.0       5.3
 2 C  px              0.0       4.3       0.0       9.7       1.1       0.0
 2 C  py              0.0       3.7       0.0       6.3       0.3       0.0
 2 C  dz2             0.0       0.3       0.0       0.3       0.0       0.0
 2 C  dxz             0.7       0.0       1.0       0.0       0.0       0.0
 2 C  dyz             0.5       0.0       0.9       0.0       0.0       0.0
 2 C  dx2y2           0.0       0.3       0.0       0.0       0.2       0.0
 2 C  dxy             0.0       0.3       0.0       1.1       0.0       0.0
 3 C  s               0.0       2.1       0.0       0.7       0.1       0.0
 3 C  pz             16.7       0.0      13.8       0.0       0.0      35.0
 3 C  px              0.0       3.0       0.0       6.4       2.9       0.0
 3 C  py              0.0       9.3       0.0       9.4      36.3       0.0
 3 C  dz2             0.0       2.0       0.0       0.1       0.0       0.0
 3 C  dxz             0.1       0.0       0.5       0.0       0.0       0.1
 3 C  dyz             3.1       0.0       2.2       0.0       0.0       1.2
 3 C  dxy             0.0       0.4       0.0       2.0       0.1       0.0
 4 H  s               0.0       6.8       0.0       7.5       2.8       0.0
 4 H  pz              2.1       0.0       0.4       0.0       0.0       0.9
 4 H  px              0.0       0.2       0.0       0.9       1.2       0.0
 4 H  py              0.0       0.3       0.0       1.6       0.6       0.0
 5 H  s               9.3       3.3       8.9       0.0       1.2       2.7
 5 H  pz              0.3       1.6       0.9       0.0       0.5       0.1
 5 H  px              0.0       0.1       0.3       0.7       0.0       0.0
 5 H  py              1.4       0.3       1.6       0.0       0.3       0.1
 6 H  s               9.3       3.5       8.7       0.0       1.2       2.7
 6 H  pz              0.3       1.7       0.9       0.0       0.5       0.1
 6 H  px              0.0       0.1       0.2       0.7       0.0       0.0
 6 H  py              1.4       0.3       1.7       0.0       0.2       0.1
 7 H  s               0.7       1.1       2.2       0.2       0.0       0.5
 7 H  pz              0.0       0.5       0.1       0.0       0.0       0.1
 7 H  px              0.3       0.1       0.1       0.3       0.1       0.2
 7 H  py              0.2       0.1       0.2       0.2       0.0       0.1
 8 H  s               0.7       1.1       2.2       0.2       0.0       0.5
 8 H  pz              0.0       0.5       0.1       0.0       0.0       0.1
 8 H  px              0.3       0.1       0.1       0.3       0.1       0.2
 8 H  py              0.2       0.1       0.2       0.2       0.0       0.1
 9 H  s               0.7       1.1       2.2       0.2       0.0       0.5
 9 H  pz              0.0       0.5       0.1       0.0       0.0       0.1
 9 H  px              0.3       0.1       0.1       0.3       0.1       0.2
 9 H  py              0.2       0.1       0.2       0.2       0.0       0.1
10 H  s               0.7       1.1       2.2       0.2       0.0       0.5
10 H  pz              0.0       0.5       0.1       0.0       0.0       0.1
10 H  px              0.3       0.1       0.1       0.3       0.1       0.2
10 H  py              0.2       0.1       0.2       0.2       0.0       0.1
11 H  s               9.3       3.5       8.7       0.0       1.2       2.7
11 H  pz              0.3       1.7       0.9       0.0       0.5       0.1
11 H  px              0.0       0.1       0.2       0.7       0.0       0.0
11 H  py              1.4       0.3       1.7       0.0       0.2       0.1
12 H  s               9.3       3.3       8.9       0.0       1.2       2.7
12 H  pz              0.3       1.6       0.9       0.0       0.5       0.1
12 H  px              0.0       0.1       0.3       0.7       0.0       0.0
12 H  py              1.4       0.3       1.6       0.0       0.2       0.1
13 H  s               0.0       6.8       0.0       7.5       2.8       0.0
13 H  pz              2.1       0.0       0.4       0.0       0.0       0.9
13 H  px              0.0       0.2       0.0       0.9       1.2       0.0
13 H  py              0.0       0.3       0.0       1.6       0.6       0.0

                     30        31        32        33        34        35   
                   0.23760   0.24323   0.25255   0.26026   0.27350   0.28049
                   0.00000   0.00000   0.00000   0.00000   0.00000   0.00000
                  --------  --------  --------  --------  --------  --------
 0 C  s               0.0       1.3       0.8       0.0       0.4       0.0
 0 C  pz              5.8       0.0       0.0      15.1       0.0      14.6
 0 C  px              0.0       4.0       3.1       0.0      20.5       0.0
 0 C  py              0.0       7.2       0.1       0.0       1.3       0.0
 0 C  dz2             0.0       1.4       0.0       0.0       0.0       0.0
 0 C  dxz             0.4       0.0       0.0       0.2       0.0       0.2
 0 C  dyz             0.1       0.0       0.0       0.2       0.0       0.1
 0 C  dx2y2           0.0       0.8       0.0       0.0       0.1       0.0
 0 C  dxy             0.0       0.0       0.8       0.0       0.0       0.0
 1 C  s               0.0       2.2       2.8       0.0       0.1       0.0
 1 C  pz             20.9       0.0       0.0      11.0       0.0      24.9
 1 C  px              0.0       5.8       6.0       0.0       1.0       0.0
 1 C  py              0.0       2.8      23.0       0.0       8.5       0.0
 1 C  dz2             0.0       0.6       0.0       0.0       1.9       0.0
 1 C  dxz             0.3       0.0       0.0       0.1       0.0       0.1
 1 C  dyz             0.4       0.0       0.0       2.9       0.0       0.1
 1 C  dx2y2           0.0       0.0       0.0       0.0       1.2       0.0
 1 C  dxy             0.0       0.3       1.0       0.0       0.3       0.0
 2 C  s               0.0       2.2       2.8       0.0       0.1       0.0
 2 C  pz             20.9       0.0       0.0      11.0       0.0      24.9
 2 C  px              0.0       5.8       6.0       0.0       1.0       0.0
 2 C  py              0.0       2.8      23.0       0.0       8.5       0.0
 2 C  dz2             0.0       0.6       0.0       0.0       1.9       0.0
 2 C  dxz             0.3       0.0       0.0       0.1       0.0       0.1
 2 C  dyz             0.4       0.0       0.0       2.9       0.0       0.1
 2 C  dx2y2           0.0       0.0       0.0       0.0       1.2       0.0
 2 C  dxy             0.0       0.3       1.0       0.0       0.3       0.0
 3 C  s               0.0       1.3       0.8       0.0       0.4       0.0
 3 C  pz              5.8       0.0       0.0      15.1       0.0      14.6
 3 C  px              0.0       4.0       3.1       0.0      20.5       0.0
 3 C  py              0.0       7.2       0.1       0.0       1.3       0.0
 3 C  dz2             0.0       1.4       0.0       0.0       0.0       0.0
 3 C  dxz             0.4       0.0       0.0       0.2       0.0       0.2
 3 C  dyz             0.1       0.0       0.0       0.2       0.0       0.1
 3 C  dx2y2           0.0       0.8       0.0       0.0       0.1       0.0
 3 C  dxy             0.0       0.0       0.8       0.0       0.0       0.0
 4 H  s               0.0       0.5       6.0       0.0       1.8       0.0
 4 H  px              0.0       0.5       1.1       0.0       0.1       0.0
 4 H  py              0.0       0.3       0.5       0.0       0.8       0.0
 5 H  s               0.9       5.2       0.0       0.8       0.1       2.1
 5 H  pz              0.1       1.5       0.1       0.2       0.0       0.5
 5 H  px              0.0       0.0       0.3       0.1       0.0       0.6
 5 H  py              0.1       0.0       0.0       0.0       0.0       0.5
 6 H  s               0.9       5.2       0.0       0.8       0.1       2.1
 6 H  pz              0.1       1.5       0.1       0.2       0.0       0.5
 6 H  px              0.0       0.0       0.3       0.1       0.0       0.6
 6 H  py              0.1       0.0       0.0       0.0       0.0       0.5
 7 H  s               7.1       3.1       1.3       7.8       4.4       0.8
 7 H  pz              1.1       1.2       0.2       0.0       1.2       0.5
 7 H  px              0.1       0.0       0.3       0.0       0.2       0.1
 7 H  py              1.6       0.0       0.3       1.3       0.0       0.0
 8 H  s               7.1       3.1       1.3       7.8       4.4       0.8
 8 H  pz              1.1       1.2       0.2       0.0       1.2       0.5
 8 H  px              0.1       0.0       0.3       0.0       0.2       0.1
 8 H  py              1.6       0.0       0.3       1.3       0.0       0.0
 9 H  s               7.1       3.1       1.3       7.8       4.4       0.8
 9 H  pz              1.1       1.2       0.2       0.0       1.2       0.5
 9 H  px              0.1       0.0       0.3       0.0       0.2       0.1
 9 H  py              1.6       0.0       0.3       1.3       0.0       0.0
10 H  s               7.1       3.1       1.3       7.8       4.4       0.8
10 H  pz              1.1       1.2       0.2       0.0       1.2       0.5
10 H  px              0.1       0.0       0.3       0.0       0.2       0.1
10 H  py              1.6       0.0       0.3       1.3       0.0       0.0
11 H  s               0.9       5.2       0.0       0.8       0.1       2.1
11 H  pz              0.1       1.5       0.1       0.2       0.0       0.5
11 H  px              0.0       0.0       0.3       0.1       0.0       0.6
11 H  py              0.1       0.0       0.0       0.0       0.0       0.5
12 H  s               0.9       5.2       0.0       0.8       0.1       2.1
12 H  pz              0.1       1.5       0.1       0.2       0.0       0.5
12 H  px              0.0       0.0       0.3       0.1       0.0       0.6
12 H  py              0.1       0.0       0.0       0.0       0.0       0.5
13 H  s               0.0       0.5       6.0       0.0       1.8       0.0
13 H  px              0.0       0.5       1.1       0.0       0.1       0.0
13 H  py              0.0       0.3       0.5       0.0       0.8       0.0

                     36        37        38        39        40        41   
                   0.31910   0.35244   0.35378   0.39275   0.45426   0.45435
                   0.00000   0.00000   0.00000   0.00000   0.00000   0.00000
                  --------  --------  --------  --------  --------  --------
 0 C  s               0.3       6.5       0.0       6.2       4.8       7.0
 0 C  pz              0.0       0.0       3.6       0.0       0.0       0.0
 0 C  px              4.2       8.0       0.0       6.7       1.4       2.6
 0 C  py             21.8       4.6       0.0       0.5       0.1       1.5
 0 C  dz2             0.0       0.7       0.0       0.0       0.0       0.0
 0 C  dxz             0.0       0.0       1.3       0.0       0.0       0.0
 0 C  dyz             0.0       0.0       0.4       0.0       0.0       0.0
 0 C  dx2y2           0.1       0.3       0.0       0.4       0.2       1.0
 0 C  dxy             0.9       0.1       0.0       0.1       0.0       0.5
 1 C  s               0.5       1.0       0.0       8.8       3.0       1.6
 1 C  pz              0.0       0.0      29.2       0.0       0.0       0.0
 1 C  px              5.2      12.1       0.0       1.1      17.9      22.0
 1 C  py              5.6       1.1       0.0       8.5       7.4       3.4
 1 C  dz2             0.0       0.4       0.0       0.2       0.4       0.2
 1 C  dxz             0.0       0.0       0.5       0.0       0.0       0.0
 1 C  dyz             0.0       0.0       1.3       0.0       0.0       0.0
 1 C  dx2y2           0.1       0.0       0.0       0.9       0.0       0.1
 1 C  dxy             1.5       1.2       0.0       0.1       1.2       0.1
 2 C  s               0.5       1.0       0.0       8.8       3.0       1.6
 2 C  pz              0.0       0.0      29.2       0.0       0.0       0.0
 2 C  px              5.2      12.1       0.0       1.1      17.9      22.0
 2 C  py              5.6       1.1       0.0       8.5       7.4       3.4
 2 C  dz2             0.0       0.4       0.0       0.2       0.4       0.2
 2 C  dxz             0.0       0.0       0.5       0.0       0.0       0.0
 2 C  dyz             0.0       0.0       1.3       0.0       0.0       0.0
[...]
 9 H  pz              2.2       1.7       0.5       0.9       0.0       2.2
 9 H  px              0.0       0.3       0.1       0.1       0.4       0.3
 9 H  py              0.1       0.0       0.4       0.4       0.1       1.5
10 H  s               0.6       0.4       0.4       0.3       0.0       1.6
10 H  pz              2.2       1.7       0.5       0.9       0.0       2.2
10 H  px              0.0       0.3       0.1       0.1       0.4       0.3
10 H  py              0.1       0.0       0.4       0.4       0.1       1.5
11 H  s               0.1       1.2       3.7       1.7       0.3       2.4
11 H  pz              0.4       3.6       5.1       4.1       0.4       3.5
11 H  px              0.0       0.0       0.1       0.1       0.5       0.2
11 H  py              0.2       0.6       3.8       0.6       0.1       2.2
12 H  s               0.1       1.2       3.7       1.7       0.3       2.4
12 H  pz              0.3       3.6       5.1       4.1       0.4       3.5
12 H  px              0.0       0.0       0.1       0.1       0.5       0.2
12 H  py              0.2       0.6       3.8       0.6       0.1       2.2
13 H  s               2.9       0.9       0.0       3.4       4.8       0.0
13 H  pz              0.0       0.0       0.3       0.0       0.0       0.0
13 H  px              3.3       0.9       0.0       4.7       5.7       0.0
13 H  py              6.4       0.4       0.0       2.7       6.6       0.0

                    120       121       122       123       124       125   
                   3.64500   3.64742  21.83908  21.91803  21.98101  21.99422
                   0.00000   0.00000   0.00000   0.00000   0.00000   0.00000
                  --------  --------  --------  --------  --------  --------
 0 C  s               0.8       0.0      25.1      49.2      24.7       0.6
 0 C  pz              0.0       0.5       0.0       0.0       0.0       0.0
 0 C  px              2.3       0.0       0.0       0.0       0.0       0.0
 0 C  py              1.0       0.0       0.0       0.0       0.0       0.0
 0 C  dz2             2.7       0.0       0.0       0.0       0.0       0.0
 0 C  dyz             0.0       1.9       0.0       0.0       0.0       0.0
 0 C  dx2y2           1.6       0.0       0.0       0.0       0.0       0.0
 0 C  dxy             0.4       0.0       0.0       0.0       0.0       0.0
 1 C  s               2.5       0.0      24.6       0.6      25.2      49.3
 1 C  pz              0.0       5.1       0.0       0.0       0.0       0.0
 1 C  px              0.3       0.0       0.0       0.0       0.0       0.0
 1 C  py              6.8       0.0       0.0       0.0       0.0       0.0
 1 C  dz2             9.3       0.0       0.0       0.0       0.0       0.0
 1 C  dxz             0.0       0.5       0.0       0.0       0.0       0.0
 1 C  dyz             0.0      14.2       0.0       0.0       0.0       0.0
 1 C  dx2y2           3.9       0.0       0.0       0.0       0.0       0.0
 1 C  dxy             0.2       0.0       0.0       0.0       0.0       0.0
 2 C  s               2.5       0.0      24.6       0.6      25.2      49.3
 2 C  pz              0.0       5.1       0.0       0.0       0.0       0.0
 2 C  px              0.3       0.0       0.0       0.0       0.0       0.0
 2 C  py              6.8       0.0       0.0       0.0       0.0       0.0
 2 C  dz2             9.3       0.0       0.0       0.0       0.0       0.0
 2 C  dxz             0.0       0.5       0.0       0.0       0.0       0.0
 2 C  dyz             0.0      14.2       0.0       0.0       0.0       0.0
 2 C  dx2y2           3.9       0.0       0.0       0.0       0.0       0.0
 2 C  dxy             0.2       0.0       0.0       0.0       0.0       0.0
 3 C  s               0.8       0.0      25.1      49.2      24.7       0.6
 3 C  pz              0.0       0.5       0.0       0.0       0.0       0.0
 3 C  px              2.3       0.0       0.0       0.0       0.0       0.0
 3 C  py              1.0       0.0       0.0       0.0       0.0       0.0
 3 C  dz2             2.7       0.0       0.0       0.0       0.0       0.0
 3 C  dyz             0.0       1.9       0.0       0.0       0.0       0.0
 3 C  dx2y2           1.6       0.0       0.0       0.0       0.0       0.0
 3 C  dxy             0.4       0.0       0.0       0.0       0.0       0.0
 4 H  px              0.2       0.0       0.0       0.0       0.0       0.0
 5 H  s               0.4       0.4       0.0       0.0       0.0       0.0
 5 H  pz              0.8       0.6       0.0       0.0       0.0       0.0
 5 H  px              0.1       0.1       0.0       0.0       0.0       0.0
 5 H  py              0.4       0.4       0.0       0.0       0.0       0.0
 6 H  s               0.4       0.4       0.0       0.0       0.0       0.0
 6 H  pz              0.8       0.6       0.0       0.0       0.0       0.0
 6 H  px              0.1       0.1       0.0       0.0       0.0       0.0
 6 H  py              0.4       0.4       0.0       0.0       0.0       0.0
 7 H  s               1.8       3.6       0.0       0.0       0.0       0.0
 7 H  pz              4.5       4.9       0.0       0.0       0.0       0.0
 7 H  py              1.1       3.8       0.0       0.0       0.0       0.0
 8 H  s               1.8       3.6       0.0       0.0       0.0       0.0
 8 H  pz              4.5       4.9       0.0       0.0       0.0       0.0
 8 H  py              1.1       3.8       0.0       0.0       0.0       0.0
 9 H  s               1.8       3.6       0.0       0.0       0.0       0.0
 9 H  pz              4.5       4.9       0.0       0.0       0.0       0.0
 9 H  py              1.1       3.8       0.0       0.0       0.0       0.0
10 H  s               1.8       3.6       0.0       0.0       0.0       0.0
10 H  pz              4.5       4.9       0.0       0.0       0.0       0.0
10 H  py              1.1       3.8       0.0       0.0       0.0       0.0
11 H  s               0.4       0.4       0.0       0.0       0.0       0.0
11 H  pz              0.8       0.6       0.0       0.0       0.0       0.0
11 H  px              0.1       0.1       0.0       0.0       0.0       0.0
11 H  py              0.4       0.4       0.0       0.0       0.0       0.0
12 H  s               0.4       0.4       0.0       0.0       0.0       0.0
12 H  pz              0.8       0.6       0.0       0.0       0.0       0.0
12 H  px              0.1       0.1       0.0       0.0       0.0       0.0
12 H  py              0.4       0.4       0.0       0.0       0.0       0.0
13 H  px              0.2       0.0       0.0       0.0       0.0       0.0



                      *****************************
                      * MAYER POPULATION ANALYSIS *
                      *****************************

  NA   - Mulliken gross atomic population
  ZA   - Total nuclear charge
  QA   - Mulliken gross atomic charge
  VA   - Mayer's total valence
  BVA  - Mayer's bonded valence
  FA   - Mayer's free valence

  ATOM       NA         ZA         QA         VA         BVA        FA
  0 C      6.4577     6.0000    -0.4577     3.7924     3.7924    -0.0000
  1 C      6.2272     6.0000    -0.2272     3.6566     3.6566    -0.0000
  2 C      6.2272     6.0000    -0.2272     3.6566     3.6566     0.0000
  3 C      6.4577     6.0000    -0.4577     3.7924     3.7924    -0.0000
  4 H      0.8557     1.0000     0.1443     0.9630     0.9630    -0.0000
  5 H      0.8607     1.0000     0.1393     0.9654     0.9654    -0.0000
  6 H      0.8607     1.0000     0.1393     0.9654     0.9654    -0.0000
  7 H      0.8690     1.0000     0.1310     0.9632     0.9632    -0.0000
  8 H      0.8690     1.0000     0.1310     0.9632     0.9632    -0.0000
  9 H      0.8690     1.0000     0.1310     0.9632     0.9632    -0.0000
 10 H      0.8690     1.0000     0.1310     0.9632     0.9632     0.0000
 11 H      0.8607     1.0000     0.1393     0.9654     0.9654    -0.0000
 12 H      0.8607     1.0000     0.1393     0.9654     0.9654    -0.0000
 13 H      0.8557     1.0000     0.1443     0.9630     0.9630    -0.0000

  Mayer bond orders larger than 0.100000
B(  0-C ,  1-C ) :   0.9086 B(  0-C ,  4-H ) :   0.9752 B(  0-C ,  5-H ) :   0.9821 
B(  0-C ,  6-H ) :   0.9821 B(  1-C ,  2-C ) :   0.9332 B(  1-C ,  7-H ) :   0.9699 
B(  1-C ,  8-H ) :   0.9699 B(  2-C ,  3-C ) :   0.9086 B(  2-C ,  9-H ) :   0.9699 
B(  2-C , 10-H ) :   0.9699 B(  3-C , 11-H ) :   0.9821 B(  3-C , 12-H ) :   0.9821 
B(  3-C , 13-H ) :   0.9752 

-------
TIMINGS
-------

Total SCF time: 0 days 0 hours 0 min 3 sec 

Total time                  ....       3.293 sec
Sum of individual times     ....       3.285 sec  ( 99.8%)

SCF preparation             ....       0.027 sec  (  0.8%)
Fock matrix formation       ....       3.168 sec  ( 96.2%)
  Startup                   ....       0.001 sec  (  0.0% of F)
  Split-RI-J                ....       0.445 sec  ( 14.0% of F)
  XC integration            ....       2.712 sec  ( 85.6% of F)
    Basis function eval.    ....       0.562 sec  ( 20.7% of XC)
    Density eval.           ....       0.787 sec  ( 29.0% of XC)
    XC-Functional eval.     ....       0.466 sec  ( 17.2% of XC)
    XC-Potential eval.      ....       0.834 sec  ( 30.7% of XC)
Diagonalization             ....       0.000 sec  (  0.0%)
Density matrix formation    ....       0.013 sec  (  0.4%)
Total Energy calculation    ....       0.000 sec  (  0.0%)
Population analysis         ....       0.043 sec  (  1.3%)
Orbital Transformation      ....       0.010 sec  (  0.3%)
Orbital Orthonormalization  ....       0.000 sec  (  0.0%)
DIIS solution               ....       0.021 sec  (  0.7%)
  MO trafo                  ....       0.000 sec  (  0.0 % of DIIS)
  Orb grad                  ....       0.000 sec  (  0.0 % of DIIS)
  Energy W gradient         ....       0.000 sec  (  0.0 % of DIIS)
  DIIS error                ....       0.001 sec  (  6.3 % of DIIS)
  DIIS work                 ....       0.011 sec  ( 52.0 % of DIIS)
  Form Q                    ....       0.000 sec  (  0.0 % of DIIS)
  Form QpQm                 ....       0.000 sec  (  0.0 % of DIIS)
  Exp/Cayley                ....       0.000 sec  (  0.0 % of DIIS)
  Orb update                ....       0.000 sec  (  0.0 % of DIIS)
  Wake-sleep                ....       0.000 sec  (  1.0 % of DIIS)
SOSCF solution              ....       0.003 sec  (  0.1%)
  MO trafo                  ....       0.002 sec  ( 76.4 % of SOSCF)
  Orb grad                  ....       0.000 sec  (  0.8 % of SOSCF)
  Rot update                ....       0.000 sec  (  0.4 % of SOSCF)
  Step                      ....       0.001 sec  ( 21.6 % of SOSCF)
Finished LeanSCF after   3.3 sec

Maximum memory used throughout the entire LEANSCF-calculation: 13.8 MB


-------------------------------------------------------------------------------
                          DFT DISPERSION CORRECTION                            
                                                                               
                                DFTD4 V3.4.0                                   
-------------------------------------------------------------------------------
The R2SCAN3C composite method is recognized
Using three-body term ABC
Active option DFTDOPT                   ...         5   

-------------------------   ----------------
Dispersion correction           -0.002617254
-------------------------   ----------------

------------------   -----------------
gCP correction             0.006558374
------------------   -----------------

-------------------------   --------------------
FINAL SINGLE POINT ENERGY      -158.388994577234
-------------------------   --------------------


------------------------------------------------------------------------------
                              ORCA PROPERTY CALCULATIONS
------------------------------------------------------------------------------

GBWName                                 ... sp.gbw
Number of atoms                         ...     14
Number of basis functions               ...    126
Max core memory                         ...   1024 MB

Electric properties:
Dipole moment                           ... YES
Quadrupole moment                       ...  NO
Static polarizability (Dipole/Dipole)   ...  NO
Static polarizability (Dipole/Quad.)    ...  NO
Static polarizability (Quad./Quad.)     ...  NO
Static polarizability (Velocity)        ...  NO

Atomic electric properties:
Dipole moment                           ...  NO
Quadrupole moment                       ...  NO
Static polarizability                   ...  NO

Choice of electric origin               ... Center of mass
Position of electric origin             ...     0.000000     0.000000     0.000000

General magnetic properties:
Magnetizability                         ...  NO

EPR properties:
g-Tensor (aka g-matrix)                 ...  NO
Zero-Field splitting spin-orbit         ...  NO
Zero-field splitting spin-spin          ...  NO
Hyperfine couplings                     ...  NO (   0 nuclei)
Quadrupole couplings                    ...  NO (   0 nuclei)
Contact density                         ...  NO (   0 nuclei)

NMR properties:
Chemical shifts                         ...  NO (   0 nuclei)
Spin-rotation constants                 ...  NO (   0 nuclei)
Spin-spin couplings                     ...  NO (   0 nuclei,    0 pairs)

Choice of magnetic origin               ... GIAO
Position of magnetic origin             ...     0.000000     0.000000     0.000000

Properties with geometric perturbations:
SCF Hessian                             ...  NO
IR spectrum                             ...  NO
VCD spectrum                            ...  NO
X-ray spectroscopy properties:
SCF XES/XAS/RIXS spectra                ...  NO


-------------
DIPOLE MOMENT
-------------

Method             : SCF
Type of density    : Electron Density
Multiplicity       :   1
Irrep              :   0
Energy             :  -158.3929356969244964 Eh
Relativity type    : 
Basis              : AO
                                X                 Y                 Z
Electronic contribution:     -0.000008925      -0.000006150      -0.000123829
Nuclear contribution   :      0.000010130       0.000006787       0.000129844
                        -----------------------------------------
Total Dipole Moment    :      0.000001205       0.000000637       0.000006015
                        -----------------------------------------
Magnitude (a.u.)       :      0.000006167
Magnitude (Debye)      :      0.000015676



--------------------
Rotational spectrum 
--------------------
 
Rotational constants in cm-1:             0.779346             0.123056             0.115396 
Rotational constants in MHz :         23364.201514          3689.119872          3459.480842 

Dipole components along the rotational axes: 
x,y,z [a.u.] :     0.000001    -0.000001     0.000006 
x,y,z [Debye]:     0.000003    -0.000002     0.000015 

 

Dipole moment calculation done in   0.0 sec 

Maximum memory used throughout the entire PROP-calculation: 7.5 MB

--------------------------------
SUGGESTED CITATIONS FOR THIS RUN
--------------------------------

Below you find a list of papers that are relevant to this ORCA run
We neither can nor want to force you to cite these papers, but we appreciate if you do
You receive ORCA, which is the product of decades of hard work by many enthusiastic individuals, for free
The only thing we kindly ask in return is that you cite our papers,
We deeply appreciate it, if you show your appreciation for ORCA by not just citing the generic ORCA reference.

Please note that relegating all ORCA citations to the supporting information does *not* help us.
SI sections are not indexed - citations you put there will not count into any citation statistics
But we need these citations in order to attract the funding resources that allow us to do what we are doing

Therefore, if you are a happy ORCA user, please consider citing a few of the papers listed below in the main body of your paper

In addition to the list printed below, the program has created the file sp.bibtex that contains the list in bibtex format
You can import this file easily into all common literature databanks and citation aid programs


List of essential papers. We consider these as the minimum necessary citations

  1. Neese,F.
     Software update: the ORCA program system, version 5.0
     WIRES Comput. Molec. Sci., 2022 12(1)e1606
     doi.org/10.1002/wcms.1606
  2. Grimme,S.; Hansen,A.; Ehlert,S.; Mewes,J.
     r2SCAN-3c: A 'Swiss army knife' composite electronic-structure method
     J. Chem. Phys., 2021 154 064103
     doi.org/10.1063/5.0040021

List of papers to cite with high priority. The work reported in these papers was absolutely
necessary for this run to complete.
Our perspective: the developers of density functionals and basis sets usually get cited in chemistry papers
Good! But without the algorithms to do something with them, the functionals or basis sets would not do anything.
Hence, in our opinion, the algorithm design and method developments papers are equally worthy of getting cited

  1. Neese,F.
     An improvement of the resolution of the identity approximation for the formation of the Coulomb matrix
     J. Comp. Chem., 2003 24(14)1740-1747
     doi.org/10.1002/jcc.10318
  2. Neese,F.
     The SHARK Integral Generation and Digestion System
     J. Comp. Chem., 2022  1-16
     doi.org/10.1002/jcc.26942
  3. Lehtola,S.; Steigemann,C.; Oliveira,M.; Marques,M.
     Recent developments in Libxc - A comprehensive library of functionals for density functional theory
     Software X, 2018 7 
     doi.org/10.1016/j.softx.2017.11.002
  4. Caldeweyher,E.; Bannwarth,C.; Grimme,S.
     Extension of the D3 dispersion coefficient model
     J. Chem. Phys., 2017 147 034112
     doi.org/10.1063/1.4993215
  5. Caldeweyher,E.; Ehlert,S.; Hansen,A.; Neugebauer,H.; Spicher,S.; Bannwarth,C.; Grimme,S.
     A generally applicable atomic-charge dependent London dispersion correction
     J. Chem. Phys., 2019 150 154122
     doi.org/10.1063/1.5090222
  6. Caldeweyher,E.; Mewes,J.; Ehlert,S.; Grimme,S.
     Extension and evaluation of the D4 London-dispersion model for periodic systems
     Phys. Chem. Chem. Phys., 2020 22(16)8499-8512
     doi.org/10.1039/D0CP00502A
  7. Wittmann,L.; Gordiy,I.; Friede,M.; Helmich-Paris,B.; Grimme,S.; Hansen,A.; Bursch,M.
     Extension of the D3 and D4 London Dispersion Corrections to the full Actinides Series
     Phys. Chem. Chem. Phys., 2024 26(32)21379-21394
     doi.org/https://doi.org/10.1039/D4CP01514B 

List of suggested additional citations. These are papers that are important in the 'surrounding' of 
of this run, or papers that preceded the highly important papers. If you like your results we are grateful for a citation.

  1. Neese,F.
     The ORCA program system
     WIRES Comput. Molec. Sci., 2012 2(1)73-78
     doi.org/10.1002/wcms.81
  2. Neese,F.
     Software update: the ORCA program system, version 4.0
     WIRES Comput. Molec. Sci., 2018 8(1)1-6
     doi.org/10.1002/wcms.1327
  3. Neese,F.; Wennmohs,F.; Becker,U.; Riplinger,C.
     The ORCA quantum chemistry program package
     J. Chem. Phys., 2020 152 Art. No. L224108
     doi.org/10.1063/5.0004608

List of optional additional citations

  1. Neese,F.
     Approximate second-order SCF convergence for spin unrestricted wavefunctions
     Chem. Phys. Lett., 2000 325(1-3)93-98
     doi.org/10.1016/s0009-2614(00)00662-x

Timings for individual modules:

Sum of individual times          ...        3.676 sec (=   0.061 min)
Startup calculation              ...        0.292 sec (=   0.005 min)   7.9 %
SCF iterations                   ...        3.350 sec (=   0.056 min)  91.1 %
Property calculations            ...        0.034 sec (=   0.001 min)   0.9 %
                             ****ORCA TERMINATED NORMALLY****
TOTAL RUN TIME: 0 days 0 hours 0 minutes 3 seconds 745 msec
