15
 energy: -17.727352169707 gnorm: 0.024783378756 xtb: 6.7.1 (41059b4)
C            0.77163402380074       -1.26725505570106       -0.48177399985513
C           -0.00008885267068       -0.00151184445960       -0.03228426823685
C           -1.41534072143582        0.00935606176880       -0.61211801533967
C            0.74962608980233        1.26620863569411       -0.42306517253048
O           -0.07859066098106        0.05731811037229        1.41107710436854
H            0.18293054638830       -1.88227310611393       -1.16896367944440
H            1.71011740053684       -1.01216403391982       -0.98198167564649
H            1.02606772441136       -1.87811548552567        0.38830431740789
H           -1.38760161669971        0.02896826237570       -1.70659079620447
H           -1.96380664168913        0.88653882341300       -0.25738751231627
H           -1.96378902098436       -0.89084572252340       -0.30960698008932
H            0.87137576569237        1.31834232427515       -1.50883187249016
H            0.20367756345775        2.15105275361649       -0.08442113005445
H            1.73984909136310        1.27072432233630        0.04137842090831
H           -0.60837009460758       -0.69294609346042        1.70478692475151
15
 energy: -17.727983396779 gnorm: 0.011235541441 xtb: 6.7.1 (41059b4)
C            0.76751673368492       -1.26256569926791       -0.47397484241345
C            0.00300191001729        0.00064283930448       -0.02768274473543
C           -1.41068473313426        0.00510197632876       -0.61124987117603
C            0.75303094436356        1.26570494725181       -0.43245607741036
O           -0.07687844386247        0.04197832791430        1.40374817375352
H            0.17099758494674       -1.86371726896465       -1.15811099109605
H            1.69718019459615       -0.99797242985238       -0.97328243225437
H            1.01917784286697       -1.87376380735930        0.39190444614179
H           -1.37348454004547        0.03567216403526       -1.69919376101459
H           -1.95754397388377        0.87658198727082       -0.25574759176327
H           -1.95573191653568       -0.89143493481207       -0.31028646411685
H            0.86864667031422        1.31629284251345       -1.51389284311980
H            0.20815918260554        2.14299040145954       -0.09089532466953
H            1.73600963374814        1.27235383857317        0.03397996091415
H           -0.61170649329744       -0.70446723224736        1.69566202818881
15
 energy: -17.728093675458 gnorm: 0.003671832254 xtb: 6.7.1 (41059b4)
C            0.76954476220228       -1.26395732357363       -0.47580356313187
C            0.00404851586797       -0.00310475074088       -0.02163326932292
C           -1.40951929980869        0.00620373795985       -0.61143707825191
C            0.75109071113646        1.26409401075509       -0.43226555965032
O           -0.07577558293546        0.04360205857148        1.40072354601340
H            0.17359674636339       -1.86243019068866       -1.15916069597327
H            1.69670776004402       -0.99827596467347       -0.97385158286920
H            1.02092445004141       -1.87587769809394        0.38717145050105
H           -1.36655725495530        0.04307785345232       -1.69633179100445
H           -1.95572123261194        0.87548383549243       -0.25394031712727
H           -1.95305485486846       -0.88916887493382       -0.31358599237693
H            0.86093698424255        1.30778847042516       -1.51172314342375
H            0.20525980544029        2.13903710489903       -0.09178729248011
H            1.73216580005057        1.27284280412260        0.03302304008729
H           -0.61595671382467       -0.69591712082564        1.69912391423880
15
 energy: -17.728109949755 gnorm: 0.001012592053 xtb: 6.7.1 (41059b4)
C            0.76927648747432       -1.26445604783934       -0.47601828812427
C            0.00394839010733       -0.00275682997794       -0.01937187090365
C           -1.41043269053804        0.00520652240517       -0.61179525165711
C            0.75205434607220        1.26500466088565       -0.43199865202094
O           -0.07379381948922        0.04374295539868        1.39987470501477
H            0.17305566232451       -1.86186445520231       -1.16049386195471
H            1.69703091151650       -0.99857105715607       -0.97323765717015
H            1.01997760817178       -1.87775439568925        0.38664628578130
H           -1.36590331752361        0.04513387793149       -1.69649878183721
H           -1.95765688334104        0.87324720010062       -0.25154412724543
H           -1.95288961554722       -0.89217189148426       -0.31723548976930
H            0.86054967403895        1.30642067754013       -1.51158605280907
H            0.20575148529692        2.14028958328282       -0.09202474782588
H            1.73395032044851        1.27418755372846        0.03224729903280
H           -0.61722796262746       -0.69226040177593        1.70155815671739
15
 energy: -17.728112485258 gnorm: 0.000784850654 xtb: 6.7.1 (41059b4)
C            0.77001453813162       -1.26526538618701       -0.47627150287929
C            0.00408172435804       -0.00294770321550       -0.01830705780299
C           -1.41098958374796        0.00551076430032       -0.61106372395320
C            0.75190835511164        1.26509161283043       -0.43277258640235
O           -0.07270045883248        0.04381413557741        1.39970108923643
H            0.17472007567743       -1.86131673632145       -1.16353769766698
H            1.69973709278115       -0.99936308474000       -0.97107203333388
H            1.01835123669543       -1.88054076166409        0.38641174129296
H           -1.36637106719404        0.04867481010622       -1.69600981019418
H           -1.95993971221535        0.87181590973097       -0.24761529806204
H           -1.95192228174370       -0.89449432927375       -0.31977567001902
H            0.86064153175093        1.30564737390820       -1.51286624614359
H            0.20541323801562        2.14113088924921       -0.09339869851626
H            1.73448039005038        1.27437351133824        0.03120630052389
H           -0.61973448245429       -0.68873305349128        1.70389285914906
15
 energy: -17.728114110747 gnorm: 0.000397073824 xtb: 6.7.1 (41059b4)
C            0.76973854649278       -1.26508441572625       -0.47645718982929
C            0.00424133727407       -0.00273505898477       -0.01867913286869
C           -1.41086110323854        0.00483998191730       -0.61063105581226
C            0.75208595190757        1.26498232452157       -0.43301789764724
O           -0.07185290466077        0.04428782470547        1.39971406211764
H            0.17536253812477       -1.85968609084228       -1.16568110592035
H            1.70068363568262       -0.99939097715511       -0.96893507900154
H            1.01559409808093       -1.88153861395975        0.38599057627478
H           -1.36713551165294        0.04915146064490       -1.69555283576577
H           -1.96013353865627        0.87033569031067       -0.24619068167118
H           -1.95128203749651       -0.89564673359825       -0.31991341520804
H            0.86119029163236        1.30528427251370       -1.51307227517170
H            0.20554787984392        2.14113274244199       -0.09426517151026
H            1.73453701175281        1.27474770085155        0.03118016338533
H           -0.62002559870234       -0.68728215549281        1.70403270385712
15
 energy: -17.728118775444 gnorm: 0.000672719502 xtb: 6.7.1 (41059b4)
C            0.76962475444305       -1.26506861382533       -0.47674949376513
C            0.00500391885284       -0.00262238850340       -0.01959618634552
C           -1.41056802321342        0.00375348628092       -0.60866014823267
C            0.75187396574748        1.26459018677918       -0.43480966547613
O           -0.06870715022079        0.04522384822820        1.39963993836275
H            0.17878896728431       -1.85393437839899       -1.17358592585958
H            1.70533223836643       -1.00025576333427       -0.96019638532217
H            1.00605180032092       -1.88651057521186        0.38449347710934
H           -1.36909209821759        0.05247194002313       -1.69338069308622
H           -1.96108687942815        0.86651331016593       -0.24041787949220
H           -1.94873700493001       -0.89872458474977       -0.32051823044777
H            0.86239482524707        1.30363243491650       -1.51466724788196
H            0.20453255314534        2.14078780169382       -0.09816020446678
H            1.73356277528335        1.27615393027466        0.03061341669454
H           -0.62128404629639       -0.68261268219080        1.70451689343805
15
 energy: -17.727463892546 gnorm: 0.030357201747 xtb: 6.7.1 (41059b4)
C            0.76718964735739       -1.26435169841689       -0.48416349623302
C            0.02015266384421        0.00027269002485       -0.03457911357430
C           -1.40644816372472       -0.01989872491748       -0.56732722565528
C            0.74887278350341        1.25747846513523       -0.47196846387846
O           -0.00459567161671        0.06602773666192        1.39944416150603
H            0.25308939622324       -1.73075165787039       -1.34627631023003
H            1.80578658836310       -1.01634011460633       -0.77354291574416
H            0.80242386894348       -1.99411954067208        0.35129480829044
H           -1.40998406260845        0.11716704962261       -1.64841650943006
H           -1.98205521705161        0.78826790205123       -0.12139566812067
H           -1.89905182944445       -0.96350553229885       -0.33111227450312
H            0.88702275137459        1.26644924442519       -1.54859833210053
H            0.18421242835281        2.13600197069152       -0.18050220966226
H            1.71657073380623        1.30670697153821        0.01707554780524
H           -0.64549532093808       -0.58600680922083        1.71858966675871
15
 energy: -17.728227979082 gnorm: 0.008577543658 xtb: 6.7.1 (41059b4)
C            0.76807889837770       -1.26442091753327       -0.48097887052187
C            0.01330601626044       -0.00080119276235       -0.02652126813047
C           -1.40934166116434       -0.00905210747694       -0.58428599131990
C            0.75081826052435        1.26074599407320       -0.45702004209040
O           -0.03330811339217        0.05715858233462        1.39941103804185
H            0.22524612685976       -1.78348616510336       -1.27021401363360
H            1.75995340890954       -1.01237950756641       -0.85242999319721
H            0.89036849252507       -1.94715190352057        0.36113961934392
H           -1.39333089035644        0.09473353039280       -1.66610859691819
H           -1.97519328913283        0.81978180802882       -0.16728550338673
H           -1.91945125807580       -0.93723930696352       -0.33032266262507
H            0.88068007831489        1.27877856426286       -1.53470286311421
H            0.19166645687352        2.13882861569485       -0.15030545560312
H            1.72303692625408        1.29494750466961        0.02507767390860
H           -0.63483885639334       -0.62704554638242        1.71306859447493
15
 energy: -17.728312231284 gnorm: 0.007161953527 xtb: 6.7.1 (41059b4)
C            0.76853273101074       -1.26446013833653       -0.48063930857090
C            0.01361556970842       -0.00101528175815       -0.02582786151752
C           -1.41054090036170       -0.00867933690191       -0.58171519673365
C            0.74980484920658        1.26084926247143       -0.46022172510295
O           -0.02968383493813        0.05694003131784        1.39947671129804
H            0.23608036749967       -1.77303129509401       -1.28141581264671
H            1.76594777282997       -1.01596972747429       -0.83446983405755
H            0.87471061444020       -1.95507718020260        0.35497407115591
H           -1.39682749091208        0.09842774535012       -1.66249926396328
H           -1.97633125476745        0.81776008462734       -0.16111334226924
H           -1.91887458809269       -0.93791193063630       -0.33054130085188
H            0.88242279516434        1.27385387477202       -1.53761148496425
H            0.18816606071919        2.13938441067870       -0.15879989728258
H            1.72073560399690        1.29823764667910        0.02426234858585
H           -0.63006769911953       -0.62591021334486        1.71466356214926
15
 energy: -17.728933797051 gnorm: 0.012009953139 xtb: 6.7.1 (41059b4)
C            0.76957859605350       -1.26452688286772       -0.48137525439373
C            0.01841010474371       -0.00142625734483       -0.02148099626734
C           -1.41715840927278       -0.01207740325757       -0.55775612938754
C            0.74356880785958        1.26068140861195       -0.48655544863817
O            0.00120506799328        0.06321262915558        1.40079762320523
H            0.31806765075960       -1.67990764635589       -1.38635401207413
H            1.81858874175181       -1.04019716860892       -0.68598027308952
H            0.73580753226934       -2.02607574319291        0.30430408019748
H           -1.42065935017734        0.12535659418419       -1.63250138739982
H           -1.98615517160854        0.79344670410688       -0.10515668774337
H           -1.90656382933131       -0.95487332141671       -0.32855294697627
H            0.89741485703991        1.23586143943260       -1.56170555316617
H            0.16295049223687        2.14212937066295       -0.22615595476591
H            1.70447979023013        1.32496206649726        0.01621469887684
H           -0.60184428416333       -0.60316783745894        1.73077990685096
15
 energy: -17.727526251903 gnorm: 0.041264138224 xtb: 6.7.1 (41059b4)
C            0.76989900363253       -1.26445889259079       -0.48476609722620
C            0.02413261341274       -0.00131283969997       -0.01387974089409
C           -1.42558968010870       -0.01904825095098       -0.52927251368948
C            0.73856195192525        1.26018419221866       -0.51697701805756
O            0.03660110944806        0.07710491418392        1.40199149777569
H            0.41846623714826       -1.56476615783398       -1.50956288516839
H            1.87452780005849       -1.07029947508632       -0.50963263605619
H            0.57024453176723       -2.10916707154727        0.23378120586811
H           -1.44315193092616        0.15241068262957       -1.60042506276119
H           -2.00052567996890        0.76473489461244       -0.03903837236677
H           -1.89048425845053       -0.98180673335601       -0.32267084656629
H            0.91409941959880        1.19280652570568       -1.58917677547919
H            0.13672794385494        2.14348714884363       -0.30110665950698
H            1.68939688173674        1.35523240505899        0.00384148053053
H           -0.57521534674433       -0.57170339003966        1.75541608882654
15
 energy: -17.729435210848 gnorm: 0.010065408317 xtb: 6.7.1 (41059b4)
C            0.76931086304686       -1.26580232271111       -0.48567675793391
C            0.02075981161169       -0.00182935476583       -0.01181471470359
C           -1.42342100566964       -0.01581914767072       -0.54434855350486
C            0.74339260138187        1.26064049733408       -0.50055751261549
O            0.01406786519715        0.07617053964303        1.40118367168946
H            0.37165484335282       -1.61947779121038       -1.43911103334284
H            1.83305368123764       -1.05782288097812       -0.60180048394310
H            0.65884659208352       -2.06259885148787        0.25461876087434
H           -1.42330896881074        0.13592837548189       -1.62120656247571
H           -1.99594259555222        0.78394597394908       -0.07284051762473
H           -1.89986085446561       -0.97261735158392       -0.32384539169653
H            0.90969461517765        1.21070113863375       -1.57360243217003
H            0.14912049248714        2.14171199013149       -0.26501350929961
H            1.69924795449003        1.34188477209323        0.01212979985711
H           -0.58892529918373       -0.59161763471068        1.75040690211802
15
 energy: -17.729634138158 gnorm: 0.007966866966 xtb: 6.7.1 (41059b4)
C            0.76954662468694       -1.26327994308500       -0.48347922358000
C            0.01795306941415        0.00043665801830       -0.01326435527603
C           -1.42583193950417       -0.01387946044285       -0.54621173295376
C            0.74116366483837        1.26241562457307       -0.49996759874007
O            0.01033154733726        0.07669743052667        1.40132639349356
H            0.38188328388869       -1.60932585843701       -1.44169480019881
H            1.83630097619709       -1.06243872847654       -0.58642381288852
H            0.64770800356301       -2.06397099605312        0.24976428559385
H           -1.42635032977363        0.11084587281482       -1.62472172991347
H           -1.99300361099820        0.79926807429734       -0.09744045195833
H           -1.91163090449442       -0.95809058995551       -0.30493190836128
H            0.90343218156388        1.21834521624011       -1.57277759728530
H            0.15075530722031        2.14236815462867       -0.25706007920494
H            1.69917620801052        1.33922114484526        0.00771774577586
H           -0.56374348556537       -0.61521464734631        1.74768653072578
15
 energy: -17.730024923960 gnorm: 0.008967324235 xtb: 6.7.1 (41059b4)
C            0.76515448498066       -1.25826303195694       -0.47766319192780
C            0.01290471583054        0.00620435816214       -0.01203303193863
C           -1.42915964299495       -0.01208581317493       -0.54798276913663
C            0.73507376786757        1.26664941001028       -0.50184652659455
O            0.00400718524824        0.08566540279612        1.40296948553876
H            0.42153039721951       -1.56551298434651       -1.46585555311997
H            1.83832250760490       -1.07458846002854       -0.52358133573953
H            0.59475438682027       -2.08102514478028        0.22085776916982
H           -1.42733727420871        0.05765791890882       -1.63316257443581
H           -1.98622484989033        0.83088087532186       -0.14212417198072
H           -1.93009176740043       -0.93575703520732       -0.26087477534294
H            0.88806244475745        1.22430724933573       -1.57559715361745
H            0.15089578489799        2.14747792353588       -0.25087982202731
H            1.69808161475071        1.33775455209824       -0.00364110117765
H           -0.49828315909899       -0.66596726852663        1.74993641755895
15
 energy: -17.730154885241 gnorm: 0.017881764420 xtb: 6.7.1 (41059b4)
C            0.76193947903295       -1.25234833045292       -0.47660473025891
C            0.00883835900166        0.00972402659531       -0.01144398649116
C           -1.43372042091403       -0.01343966556939       -0.54555086386348
C            0.73186781509690        1.26746680410940       -0.50567451834440
O            0.00059928019709        0.09359791153253        1.40173900311978
H            0.46968496702568       -1.52029639467812       -1.49654537854221
H            1.84630130012456       -1.08500953174241       -0.45177646051427
H            0.53258293804206       -2.09670342430253        0.18648379201203
H           -1.43073688614347        0.01527794426883       -1.63556215139935
H           -1.98258461549616        0.85255932381006       -0.17047011433482
H           -1.94575451316220       -0.92184633515609       -0.22175104808902
H            0.87317902001634        1.22609502486940       -1.58132548613550
H            0.15276902217851        2.14990558017498       -0.24735923880998
H            1.70066025275274        1.33588357756770       -0.01682504580791
H           -0.44793540136820       -0.69746855887884        1.75118789268773
15
 energy: -17.730337908671 gnorm: 0.011970071422 xtb: 6.7.1 (41059b4)
C            0.76229064671006       -1.25324967791557       -0.47785443641871
C            0.01083993548085        0.00833539728021       -0.01005666768161
C           -1.43174898592671       -0.01617009145112       -0.54439824253537
C            0.73294608357790        1.26674119710155       -0.50498954873073
O            0.00359794737521        0.09181247695187        1.40183655271824
H            0.47236905955759       -1.51960054030052       -1.49707611954882
H            1.84251496717841       -1.08503348319419       -0.45313991160542
H            0.53319122998255       -2.09819442429997        0.18143599522764
H           -1.42901917087124        0.01777232479937       -1.63344439787272
H           -1.98262501140830        0.84663300110209       -0.16539739710391
H           -1.94235743815634       -0.92638921618898       -0.22445126700656
H            0.87000212100307        1.22629639447552       -1.58194459930003
H            0.15419269975849        2.15009129438149       -0.24444076726543
H            1.70366927973570        1.33561081042160       -0.01862333462772
H           -0.46217276761281       -0.68125751101542        1.75106580697968
15
 energy: -17.730629816713 gnorm: 0.010728267675 xtb: 6.7.1 (41059b4)
C            0.76252149762892       -1.25294502852877       -0.47758110668475
C            0.01191009447026        0.00739024474035       -0.01004399490802
C           -1.43122124615175       -0.02064641044069       -0.54316790339031
C            0.73127248994128        1.26672587479131       -0.50743754808112
O            0.00973497596364        0.09142568713149        1.40004602045642
H            0.50820625818645       -1.49343074375590       -1.50994927672769
H            1.84097166468745       -1.09984575095450       -0.40919753318403
H            0.49851918470069       -2.10642756747586        0.15318431000150
H           -1.43066205833521        0.00576229682058       -1.63200019467950
H           -1.98178455713027        0.84517411954017       -0.16870690168710
H           -1.94290626107687       -0.92793238471157       -0.21520405183100
H            0.85024429796580        1.23406611244696       -1.58807492432323
H            0.15939823060235        2.15221838774248       -0.23157297261085
H            1.71072531538405        1.33034903449205       -0.03581101628819
H           -0.45923929045237       -0.66848591969019        1.75403875916640
15
 energy: -17.730953219749 gnorm: 0.013501261629 xtb: 6.7.1 (41059b4)
C            0.76364094688434       -1.25215163852883       -0.47486193424075
C            0.01226732460725        0.00689392877642       -0.01039275634266
C           -1.43163432599297       -0.02521958749629       -0.54086607647762
C            0.72751490959597        1.26641505634486       -0.51381505632303
O            0.01589733204817        0.09585611394062        1.39933852535285
H            0.56892911907567       -1.44892380231796       -1.53160058830854
H            1.83768779663052       -1.12380358385600       -0.33570847978851
H            0.44240431260753       -2.12186482985199        0.10737123907570
H           -1.43385912871775       -0.01132485720250       -1.62823298003281
H           -1.98102680151313        0.84394555033550       -0.17559469815846
H           -1.94393046818335       -0.92743391523266       -0.20321639255280
H            0.82086394544738        1.24580913606645       -1.59826806502828
H            0.16700351343252        2.15308598620663       -0.21458233117402
H            1.71880665041006        1.32020202549702       -0.06509546765585
H           -0.44687452994779       -0.65808763053337        1.76404672688330
15
 energy: -17.731335529100 gnorm: 0.011302288945 xtb: 6.7.1 (41059b4)
C            0.76575991362216       -1.25202912734068       -0.47114219491902
C            0.01181213498496        0.00695324785059       -0.01763302270631
C           -1.43301968728768       -0.02771485310904       -0.54117848684089
C            0.72243099731457        1.26674617372531       -0.52249722804752
O            0.02018541800360        0.10169212007557        1.39502573378636
H            0.64250638330251       -1.40644342780306       -1.53691079373730
H            1.82988493314982       -1.16247528809459       -0.24716831051684
H            0.38207304139800       -2.12593945102941        0.05248801605427
H           -1.44073266460347       -0.01896671306542       -1.62592301863251
H           -1.98074673619372        0.83971798179834       -0.17752762508029
H           -1.94124060655113       -0.92793462298272       -0.19902140801779
H            0.78188557299687        1.26721832532376       -1.61041067929011
H            0.17921853284286        2.15272076708182       -0.18814468560055
H            1.72832840407805        1.30334850344161       -0.10512336987153
H           -0.43065504067298       -0.65349568372417        1.77368873864856
15
 energy: -17.731228541538 gnorm: 0.019506701794 xtb: 6.7.1 (41059b4)
C            0.76499325809956       -1.24927391034284       -0.46324764829006
C            0.01112256897580        0.01003112760514       -0.01736730199098
C           -1.43399238521808       -0.03310166364507       -0.53644235858705
C            0.71781718718131        1.26665727558812       -0.53268791953955
O            0.02025791528266        0.11712223466967        1.39660077576409
H            0.74499368559192       -1.32939815610868       -1.56545493170211
H            1.80879676366163       -1.19840310754328       -0.12807376993411
H            0.29340118012299       -2.15227729921847       -0.03169119183979
H           -1.44510685675603       -0.05087316001811       -1.62129340802656
H           -1.97771880430394        0.84284688115087       -0.19209204710599
H           -1.94213772533795       -0.92391690262127       -0.17161737979709
H            0.74537548295929        1.27758035710597       -1.62142821100458
H            0.19153928068158        2.15223801644090       -0.17480340447075
H            1.73583216711539        1.29294073965303       -0.14613756315037
H           -0.39748312167168       -0.65877448056806        1.78425802490343
15
 energy: -17.731754604248 gnorm: 0.004808043561 xtb: 6.7.1 (41059b4)
C            0.76354849990833       -1.24551437027055       -0.46325610267226
C            0.01090575820922        0.01367635128872       -0.01884931530552
C           -1.43449294338534       -0.03408294660717       -0.53308407713526
C            0.71915403660776        1.26731463667014       -0.53375879850663
O            0.02178645311105        0.11689330419075        1.39582983764852
H            0.75856056516017       -1.33080632863350       -1.54998265461262
H            1.79636324813252       -1.20911812564664       -0.12110474165905
H            0.29564398925381       -2.14134643127670       -0.04887741111610
H           -1.44938964952549       -0.04791228933554       -1.61893138511611
H           -1.97874319929825        0.83998037498910       -0.18427805263238
H           -1.94098150285789       -0.92637068904421       -0.16778666153624
H            0.74538359280723        1.27283198113632       -1.61977847259403
H            0.19417569650815        2.15197942495037       -0.18217273951369
H            1.73548893716901        1.29822294089256       -0.14950518600722
H           -0.39971288541585       -0.66234988115574        1.77405742598712
15
 energy: -17.731798438586 gnorm: 0.001323163047 xtb: 6.7.1 (41059b4)
C            0.76408924071625       -1.24611820699144       -0.46381155189707
C            0.01243266174799        0.01326072002840       -0.01881080700951
C           -1.43310748277676       -0.03350891360372       -0.53049990216116
C            0.71806343374438        1.26621931277357       -0.53647144915022
O            0.02462814834496        0.11529170094603        1.39681704481555
H            0.76859678751972       -1.32243984278561       -1.54735013617977
H            1.79147365452775       -1.21171516270656       -0.10999225687103
H            0.28905368795770       -2.13774495101997       -0.05702305645937
H           -1.45100848640801       -0.04456169609681       -1.61669025439200
H           -1.97801553575575        0.83915392215355       -0.17845535663900
H           -1.93812597551709       -0.92704190388462       -0.16602219550198
H            0.74469124636236        1.26758861717436       -1.62200953682430
H            0.19237806360544        2.15092120817792       -0.18851070159951
H            1.73350648540088        1.29884942576462       -0.15197935640870
H           -0.40096533308535       -0.66475627778182        1.76933118150662
15
 energy: -17.731816373839 gnorm: 0.001129595402 xtb: 6.7.1 (41059b4)
C            0.76472765588614       -1.24681646137783       -0.46454448662443
C            0.01314949505590        0.01372987869577       -0.01944935189386
C           -1.43367710775175       -0.03406237570123       -0.52627557852506
C            0.71816280770885        1.26583279017032       -0.53953408379591
O            0.02846638448674        0.11555248462114        1.39724526639043
H            0.78416089088818       -1.31254527227692       -1.54796053074464
H            1.78688568539459       -1.21749457933350       -0.09469009209640
H            0.27964627510167       -2.13816495404521       -0.07035543731626
H           -1.45532850712731       -0.04167410741459       -1.61254076411939
H           -1.97918451490126        0.83677437609791       -0.17023424812280
H           -1.93711557433135       -0.92932653069811       -0.16343012383241
H            0.74698293567493        1.26260323426815       -1.62500010074582
H            0.19054833602541        2.15114627224899       -0.19660621041459
H            1.73282276762596        1.30153077832370       -0.15331553233455
H           -0.40255693335226       -0.66368758143068        1.76521293940422
15
 energy: -17.731823500486 gnorm: 0.000622134127 xtb: 6.7.1 (41059b4)
C            0.76507280284821       -1.24706027026190       -0.46476668039236