
                                 *****************
                                 * O   R   C   A *
                                 *****************

                                            #,                                       
                                            ###                                      
                                            ####                                     
                                            #####                                    
                                            ######                                   
                                           ########,                                 
                                     ,,################,,,,,                         
                               ,,#################################,,                 
                          ,,##########################################,,             
                       ,#########################################, ''#####,          
                    ,#############################################,,   '####,        
                  ,##################################################,,,,####,       
                ,###########''''           ''''###############################       
              ,#####''   ,,,,##########,,,,          '''####'''          '####       
            ,##' ,,,,###########################,,,                        '##       
           ' ,,###''''                  '''############,,,                           
         ,,##''                                '''############,,,,        ,,,,,,###''
      ,#''                                            '''#######################'''  
     '                                                          ''''####''''         
             ,#######,   #######,   ,#######,      ##                                
            ,#'     '#,  ##    ##  ,#'     '#,    #''#        ,####,   ,####,        
            ##       ##  ##   ,#'  ##            #'  '#       #'       #'  '#        
            ##       ##  #######   ##           ,######,      #####,   #    #        
            '#,     ,#'  ##    ##  '#,     ,#' ,#      #,     #,   #   #,  ,#        
             '#######'   ##     ##  '#######'  #'      '#     '####' # '####'        



                #########################################################
                #                        -***-                          #
                #          Department of theory and spectroscopy        #
                #                                                       #
                #                      Frank Neese                      #
                #                                                       #
                #     Directorship, Architecture, Infrastructure        #
                #                    SHARK, DRIVERS                     #
                #        Core code/Algorithms in most modules           #
                #                                                       #
                #        Max Planck Institute fuer Kohlenforschung      #
                #                Kaiser Wilhelm Platz 1                 #
                #                 D-45470 Muelheim/Ruhr                 #
                #                      Germany                          #
                #                                                       #
                #                  All rights reserved                  #
                #                        -***-                          #
                #########################################################


                         Program Version 6.0.1  -  RELEASE   -


 With contributions from (in alphabetic order):
[Max-Planck-Institut fuer Kohlenforschung]                               
  Daniel Aravena         : Magnetic Suceptibility                        
  Michael Atanasov       : Ab Initio Ligand Field Theory (pilot matlab implementation)
  Alexander A. Auer      : GIAO ZORA, VPT2 properties, NMR spectrum      
  Ute Becker             : All parallelization in ORCA, NUMFREQ, NUMCALC 
  Giovanni Bistoni       : ED, misc. LED, open-shell LED, HFLD           
  Martin Brehm           : Molecular dynamics                            
  Dmytro Bykov           : pre 5.0 version of the SCF Hessian            
  Marcos Casanova-Páez   : Triplet and SCS-CIS(D). UHF-(DLPNO)-IP/EA/STEOM-CCSD. UHF-CVS-IP/STEOM-CCSD   
  Vijay G. Chilkuri      : MRCI spin determinant printing, contributions to CSF-ICE 
  Pauline Colinet        : FMM embedding                                 
  Dipayan Datta          : RHF DLPNO-CCSD density                        
  Achintya Kumar Dutta   : EOM-CC, STEOM-CC                              
  Nicolas Foglia         : Exact transition moments, OPA infrastructure, MCD improvements    
  Dmitry Ganyushin       : Spin-Orbit,Spin-Spin,Magnetic field MRCI      
  Miquel Garcia-Rates    : C-PCM and meta-GGA Hessian, CCSD/C-PCM, Gaussian charge scheme 
  Tiago L. C. Gouveia    : GS-ROHF, GS-ROCIS                             
  Yang Guo               : DLPNO-NEVPT2, F12-NEVPT2, CIM, IAO-localization        
  Andreas Hansen         : Spin unrestricted coupled pair/coupled cluster methods 
  Ingolf Harden          : AUTO-CI MPn and infrastructure                
  Benjamin Helmich-Paris : MC-RPA, TRAH-(SCF,CASSCF), AVAS, COSX integrals, SCF dyn. polar. 
  Lee Huntington         : MR-EOM, pCC                                   
  Robert Izsak           : Overlap fitted RIJCOSX, COSX-SCS-MP3, EOM     
  Riya Kayal             : Wick's Theorem for AUTO-CI, AUTO-CI UHF-CCSDT 
  Emily Kempfer          : AUTO-CI, RHF CISDT and CCSDT                  
  Christian Kollmar      : KDIIS, OOCD, Brueckner-CCSD(T), CCSD density, CASPT2, CASPT2-K, improved NEVPT2 
  Axel Koslowski         : Symmetry handling                             
  Simone Kossmann        : meta-GGA functionals, TD-DFT gradient, OOMP2, (MP2 Hessian; deprecated post 5.0) 
  Lucas Lang             : DCDCAS                                        
  Marvin Lechner         : AUTO-CI (C++ implementation), FIC-MRCC        
  Spencer Leger          : CASSCF response                               
  Dagmar Lenk            : GEPOL surface, SMD, ORCA-2-JSON               
  Dimitrios Liakos       : Extrapolation schemes; Compound Job, initial MDCI parallelization 
  Dimitrios Manganas     : Further ROCIS development; embedding schemes. LFT, Crystal Embedding 
  Dimitrios Pantazis     : SARC Basis sets                               
  Anastasios Papadopoulos: AUTO-CI, single reference methods and gradients 
  Taras Petrenko         : pre 6.0 DFT Hessian and TD-DFT gradient, (ASA, deprecated), ECA, 1-Electron XAS/XES, NRVS 
  Peter Pinski           : DLPNO-MP2, DLPNO-MP2 Gradient                 
  Christoph Reimann      : Effective Core Potentials                     
  Marius Retegan         : Local ZFS, SOC                                
  Christoph Riplinger    : Optimizer, TS searches, QM/MM, DLPNO-CCSD(T), (RO)-DLPNO pert. Triples 
  Michael Roemelt        : Original ROCIS implementation                 
  Masaaki Saitow         : Open-shell DLPNO-CCSD energy and density      
  Barbara Sandhoefer     : DKH picture change effects                    
  Kantharuban Sivalingam : CASSCF convergence/infrastructure, NEVPT2 and variants, FIC-MRCI 
  Bernardo de Souza      : ESD, SOC TD-DFT                               
  Georgi L. Stoychev     : AutoAux, RI-MP2 NMR, DLPNO-MP2 response, X2C  
  Van Anh Tran           : RI-MP2 g-tensors                              
  Willem Van den Heuvel  : Paramagnetic NMR                              
  Zikuan Wang            : NOTCH, Electric field optimization            
  Frank Wennmohs         : Technical directorship and infrastructure     
  Hang Xu                : AUTO-CI-Response properties                   
                                                                         
[FACCTs GmbH]                                                            
  Markus Bursch, Miquel Garcia-Rates, Christoph Riplinger, Bernardo de Souza, Georgi L. Stoychev 
                                                                 
  APM, Basis sets (HGBS, AHGBS, def-TZVP (Ac-Lr), def2-XVPD (La-Lu)), CI-OPT, improved COSX, DLPNO-Multilevel,           
  DOCKER, DRACO, updates on ESD, GOAT, IRC, LR-CPCM, MBIS, meta-GGA TD-DFT gradient, ML-optimized integration grids, 
  MM, NACMEs, nearIR, NEB, NEB-TS, NL-DFT gradient (VV10), 2- and 3-layer-ONIOM, interface openCOSMO-RS, QMMM,   
  Crystal-QMMM, SF, symmetry and pop. for TD-DFT, r2SCAN hybrids, SOLVATOR                                   
                                                                         
[Other institutions]                                                     
  V. Asgeirsson          : NEB                                           
  Christoph Bannwarth    : sTDA-DFT, sTD-DFT, PBEh-3c, B97-3c, D3        
  Sebastian Ehlert       : rSCAN, r2SCAN, r2SCAN-3c, D4, dhf basis sets  
  Marvin Friede          : D4 for Fr, Ra, Ac-Lr                          
  Lars Goerigk           : TD-DFT with DH, B97 family of functionals     
  Stefan Grimme          : VdW corrections, initial TS optimization, DFT functionals, gCP, sTDA/sTD-DF 
  Waldemar Hujo          : DFT-NL                                        
  H. Jonsson             : NEB                                           
  Holger Kruse           : gCP                                           
  Marcel Mueller         : wB97X-3c, vDZP basis set                      
  Hagen Neugebauer       : wr2SCAN                                       
  Tobias Risthaus        : range-separated hybrid DFT                    
  Lukas Wittmann         : regularized MP2, r2SCAN double-hybrids, wr2SCAN        
                                                                         
We gratefully acknowledge several colleagues who have allowed us to      
interface, adapt or use parts of their codes:                            
  Ed Valeev, F. Pavosevic, A. Kumar             : LibInt (2-el integral package), F12 methods 
  Garnet Chan, S. Sharma, J. Yang, R. Olivares  : DMRG                   
  Ulf Ekstrom                                   : XCFun DFT Library      
  Mihaly Kallay                                 : mrcc  (arbitrary order and MRCC methods)
  Frank Weinhold                                : gennbo (NPA and NBO analysis)           
  Simon Mueller                                 : openCOSMO-RS                            
  Christopher J. Cramer and Donald G. Truhlar   : smd solvation model                     
  S Lehtola, MJT Oliveira, MAL Marques          : LibXC Library                           
  Liviu Ungur et al                             : ANISO software                          


 Your calculation uses the libint2 library for the computation of 2-el integrals
 For citations please refer to: http://libint.valeyev.net

 Your ORCA version has been built with support for libXC version: 6.2.2
 For citations please refer to: https://libxc.gitlab.io

 This ORCA versions uses:
   CBLAS   interface :  Fast vector & matrix operations
   LAPACKE interface :  Fast linear algebra routines
   SCALAPACK package :  Parallel linear algebra routines
   Shared memory     :  Shared parallel matrices
   BLAS/LAPACK       :  OpenBLAS 0.3.27  USE64BITINT DYNAMIC_ARCH NO_AFFINITY Zen SINGLE_THREADED
        Core in use  :  Zen
   Copyright (c) 2011-2014, The OpenBLAS Project


Your calculation utilizes the geometrical counterpoise correction gCP
Please cite in your paper:
H.Kruse, S. Grimme J.Chem.Phys., 136, (2012), 154101 
   

Your calculation utilizes the DFT-NL dispersion correction.
Cite in your paper:
Vydrov, O. A.; Van Voorhis, T. J. Chem. Phys. 2010, 133, 244103
Hujo, W.; Grimme, S. J. Chem. Theory Comput. 2011, 7, 3866 
   

================================================================================

cite the ECPs for I  [Def2-ECP] as follows:
Ce-Yb(ecp-28): M. Dolg, H. Stoll, H.Preuss, J. Chem. Phys., 1989, 90, 1730-1734.
Y-Cd(ecp-28), Hf-Hg(ecp-46): D. Andrae,U. Haeussermann, M. Dolg, H. Stoll, H. Preuss, Theor. Chim. Acta, 1990, 77, 123-141.
In-Sb(ecp-28), Tl-Bi(ecp-46): B. Metz, H. Stoll, M. Dolg, J. Chem. Phys., 2000, 113, 2563-2569.
Te-Xe(ecp-28), Po-Rn(ecp-46): K. A. Peterson, D. Figgen, E. Goll, H. Stoll, M. Dolg, J. Chem. Phys., 2003, 119, 11113-11123.
Rb(ecp-28), Cs(ecp-46): T. Leininger, A. Nicklass, W. Kuechle, H. Stoll, M. Dolg, A. Bergner, Chem. Phys. Lett., 1996, 255, 274-280.
Sr(ecp-28), Ba(ecp-46): M. Kaupp, P. V. Schleyer, H. Stoll and H. Preuss, J. Chem. Phys., 1991, 94, 1360-1366.
La(ecp-46): M. Dolg, H. Stoll, A. Savin, H. Preuss, Theor. Chim. Acta, 1989, 75, 173-194.
Lu(ecp-28): X. Cao, M. Dolg, J. Chem. Phys., 2001, 115, 7348-7355.

ECP parameters for I  [Def2-ECP] have been obtained from:
TURBOMOLE (7.0.2)

----- Orbital basis set information -----
Your calculation utilizes the basis: def2-TZVP
   F. Weigend and R. Ahlrichs, Phys. Chem. Chem. Phys. 7, 3297 (2005).

----- AuxJ basis set information -----
Your calculation utilizes the auxiliary basis: def2/J
   F. Weigend, Phys. Chem. Chem. Phys. 8, 1057 (2006).

================================================================================
                                        WARNINGS
                       Please study these warnings very carefully!
================================================================================

WARNING: Old DensityContainer found on disk!
         Will remove this file - 
         If you want to keep old densities, please start your calculation with a different basename. 


================================================================================
                                       INPUT FILE
================================================================================
NAME = sp.inp
|  1> ! wb97x-v def2-tzvp def2/J RIJCOSX DEFGRID2 scfconv7 GCP(DFT/TZ) printgap
|  2> %output
|  3>     printlevel normal
|  4> end
|  5> * xyz 0 1
|  6> C 1.0307409708162858 1.343203538630273 0.00022231481756554433
|  7> C 0.335990046990711 0.1848180006557062 0.00011350432105500713
|  8> C 1.034023237180491 -1.0981390214308018 -4.241807234399102e-05
|  9> O 0.5271698941089502 -2.2009189370875037 -1.6633369712441676e-05
| 10> N 2.4373436417057555 -0.9536424946916133 -0.00025758857096399017
| 11> C 3.18933294271945 0.20838426085946493 -0.00011747270973788209
| 12> O 4.402507137252091 0.24017162232944345 -0.00021569936886555282
| 13> N 2.400991381353665 1.3572052858510137 0.0001468066238819595
| 14> I -1.7507249062610906 0.15479742959501042 0.0002625937793233277
| 15> H 0.5473703562544696 2.3137021981272348 0.0003873629594037889
| 16> H 2.968288475547648 -1.8150580569560817 -0.0003588571593016978
| 17> H 2.908220567307506 2.228499203171772 0.00018526383529527646
| 18> *
| 19> 
| 20>                          ****END OF INPUT****
================================================================================

                       ****************************
                       * Single Point Calculation *
                       ****************************

---------------------------------
CARTESIAN COORDINATES (ANGSTROEM)
---------------------------------
  C      1.030741    1.343204    0.000222
  C      0.335990    0.184818    0.000114
  C      1.034023   -1.098139   -0.000042
  O      0.527170   -2.200919   -0.000017
  N      2.437344   -0.953642   -0.000258
  C      3.189333    0.208384   -0.000117
  O      4.402507    0.240172   -0.000216
  N      2.400991    1.357205    0.000147
  I     -1.750725    0.154797    0.000263
  H      0.547370    2.313702    0.000387
  H      2.968288   -1.815058   -0.000359
  H      2.908221    2.228499    0.000185

----------------------------
CARTESIAN COORDINATES (A.U.)
----------------------------
  NO LB      ZA    FRAG     MASS         X           Y           Z
   0 C     6.0000    0    12.011    1.947818    2.538287    0.000420
   1 C     6.0000    0    12.011    0.634929    0.349255    0.000214
   2 C     6.0000    0    12.011    1.954021   -2.075182   -0.000080
   3 O     8.0000    0    15.999    0.996207   -4.159134   -0.000031
   4 N     7.0000    0    14.007    4.605912   -1.802123   -0.000487
   5 C     6.0000    0    12.011    6.026966    0.393789   -0.000222
   6 O     8.0000    0    15.999    8.319533    0.453859   -0.000408
   7 N     7.0000    0    14.007    4.537216    2.564746    0.000277
   8 I    25.0000*   0   126.900   -3.308391    0.292525    0.000496
   9 H     1.0000    0     1.008    1.034380    4.372264    0.000732
  10 H     1.0000    0     1.008    5.609252   -3.429963   -0.000678
  11 H     1.0000    0     1.008    5.495740    4.211253    0.000350
* core charge reduced due to ECP

--------------------------------
INTERNAL COORDINATES (ANGSTROEM)
--------------------------------
 C      0   0   0     0.000000000000     0.00000000     0.00000000
 C      1   0   0     1.350753831231     0.00000000     0.00000000
 C      2   1   0     1.460557797364   120.49664845     0.00000000
 O      3   2   1     1.213681941212   126.76602059   179.99215631
 N      3   2   1     1.410740036398   112.67090440     0.00000000
 C      5   3   2     1.384122143847   128.78724660     0.00000000
 O      6   5   3     1.213590570282   124.40926702   179.99372125
 N      1   2   3     1.370321948377   121.53900716     0.00000000
 I      2   1   3     2.086930893211   121.77778718   179.99670610
 H      1   2   3     1.084211615114   122.57019184   180.00302109
 H      5   3   2     1.011898808058   115.76926161   179.99917001
 H      8   1   2     1.008183782315   120.79154115   179.99707251

---------------------------
INTERNAL COORDINATES (A.U.)
---------------------------
 C      0   0   0     0.000000000000     0.00000000     0.00000000
 C      1   0   0     2.552554815371     0.00000000     0.00000000
 C      2   1   0     2.760054239780   120.49664845     0.00000000
 O      3   2   1     2.293526482576   126.76602059   179.99215631
 N      3   2   1     2.665912314949   112.67090440     0.00000000
 C      5   3   2     2.615611787767   128.78724660     0.00000000
 O      6   5   3     2.293353816542   124.40926702   179.99372125
 N      1   2   3     2.589533197734   121.53900716     0.00000000
 I      2   1   3     3.943727848589   121.77778718   179.99670610
 H      1   2   3     2.048863023782   122.57019184   180.00302109
 H      5   3   2     1.912211622472   115.76926161   179.99917001
 H      8   1   2     1.905191241236   120.79154115   179.99707251

---------------------
BASIS SET INFORMATION
---------------------
There are 5 groups of distinct atoms

 Group   1 Type C   : 11s6p2d1f contracted to 5s3p2d1f pattern {62111/411/11/1}
 Group   2 Type O   : 11s6p2d1f contracted to 5s3p2d1f pattern {62111/411/11/1}
 Group   3 Type N   : 11s6p2d1f contracted to 5s3p2d1f pattern {62111/411/11/1}
 Group   4 Type I   : 11s10p8d2f contracted to 6s5p3d2f pattern {521111/34111/611/11}
 Group   5 Type H   : 5s1p contracted to 3s1p pattern {311/1}

Atom   0C    basis set group =>   1
Atom   1C    basis set group =>   1
Atom   2C    basis set group =>   1
Atom   3O    basis set group =>   2
Atom   4N    basis set group =>   3
Atom   5C    basis set group =>   1
Atom   6O    basis set group =>   2
Atom   7N    basis set group =>   3
Atom   8I    basis set group =>   4
Atom   9H    basis set group =>   5
Atom  10H    basis set group =>   5
Atom  11H    basis set group =>   5
---------------------------------
AUXILIARY/J BASIS SET INFORMATION
---------------------------------
There are 5 groups of distinct atoms

 Group   1 Type C   : 12s5p4d2f1g contracted to 6s4p3d1f1g pattern {711111/2111/211/2/1}
 Group   2 Type O   : 12s5p4d2f1g contracted to 6s4p3d1f1g pattern {711111/2111/211/2/1}
 Group   3 Type N   : 12s5p4d2f1g contracted to 6s4p3d1f1g pattern {711111/2111/211/2/1}
 Group   4 Type I   : 11s5p5d3f1g contracted to 8s4p3d2f1g pattern {41111111/2111/311/21/1}
 Group   5 Type H   : 5s2p1d contracted to 3s1p1d pattern {311/2/1}

Atom   0C    basis set group =>   1
Atom   1C    basis set group =>   1
Atom   2C    basis set group =>   1
Atom   3O    basis set group =>   2
Atom   4N    basis set group =>   3
Atom   5C    basis set group =>   1
Atom   6O    basis set group =>   2
Atom   7N    basis set group =>   3
Atom   8I    basis set group =>   4
Atom   9H    basis set group =>   5
Atom  10H    basis set group =>   5
Atom  11H    basis set group =>   5
-------------------------
ECP PARAMETER INFORMATION
-------------------------

 Group 1, Type I  ECP Def2-ECP (replacing 28 core electrons, lmax=3)

Atom   8I    ECP group =>   1


Checking for AutoStart:
The File: sp.gbw exists
Trying to determine its content:
     ... Fine, the file contains calculation information
     ... Fine, the calculation information was read
     ... Fine, the file contains a basis set
     ... Fine, the basis set was read
     ... Fine, the file contains ECP parameters
     ... Fine, ECP parameters were read
     ... Fine, the file contains a geometry
     ... Fine, the geometry was read
     ... Fine, the file contains a set of orbitals
     ... Fine, the orbitals can be read
     => possible old guess file was deleted
     => GBW file was renamed to GES file
     => GES file is set as startup file
     => Guess is set to MORead
     ... now leaving AutoStart

------------------------------------------------------------------------------
                             ORCA STARTUP CALCULATIONS
                           -- RI-GTO INTEGRALS CHOSEN --
------------------------------------------------------------------------------
------------------------------------------------------------------------------
                   ___                                                        
                  /   \      - P O W E R E D   B Y -                         
                 /     \                                                     
                 |  |  |   _    _      __       _____    __    __             
                 |  |  |  | |  | |    /  \     |  _  \  |  |  /  |          
                  \  \/   | |  | |   /    \    | | | |  |  | /  /          
                 / \  \   | |__| |  /  /\  \   | |_| |  |  |/  /          
                |  |  |   |  __  | /  /__\  \  |    /   |      \           
                |  |  |   | |  | | |   __   |  |    \   |  |\   \          
                \     /   | |  | | |  |  |  |  | |\  \  |  | \   \       
                 \___/    |_|  |_| |__|  |__|  |_| \__\ |__|  \__/        
                                                                              
                      - O R C A' S   B I G   F R I E N D -                    
                                      &                                       
                       - I N T E G R A L  F E E D E R -                       
                                                                              
 v1 FN, 2020, v2 2021, v3 2022-2024                                           
------------------------------------------------------------------------------


----------------------
SHARK INTEGRAL PACKAGE
----------------------

Number of atoms                             ...     12
Number of basis functions                   ...    316
Number of shells                            ...    116
Maximum angular momentum                    ...      3
Integral batch strategy                     ... SHARK/LIBINT Hybrid
RI-J (if used) integral strategy            ... SPLIT-RIJ (Revised 2003 algorithm where possible)
Printlevel                                  ...      1
Contraction scheme used                     ... SEGMENTED contraction
Prescreening option                         ... SCHWARTZ
   Thresh                                   ... 3.000e-11
   Tcut                                     ... 1.000e-12
   Tpresel                                  ... 1.000e-12 
Coulomb Range Separation                    ... NOT USED
Exchange Range Separation                   ... Long Range
   Mu parameter                             ... 3.000e-01
   Scaling (regular/separated)              ... 1.670e-01 8.330e-01
Multipole approximations                    ... NOT USED
Finite Nucleus Model                        ... NOT USED
CABS basis                                  ... NOT available
Auxiliary Coulomb fitting basis             ... AVAILABLE
   # of basis functions in Aux-J            ...    483
   # of shells in Aux-J                     ...    153
   Maximum angular momentum in Aux-J        ...      4
Auxiliary J/K fitting basis                 ... NOT available
Auxiliary Correlation fitting basis         ... NOT available
Auxiliary 'external' fitting basis          ... NOT available

Checking pre-screening integrals            ... done (  0.0 sec) Dimension = 116
Check shell pair data                       ... done (  0.0 sec)
Shell pair information
Shell pair cut-off parameter TPreSel        ...   1.0e-12
Total number of shell pairs                 ...      6786
Shell pairs after pre-screening             ...      6073
Total number of primitive shell pairs       ...     22165
Primitive shell pairs kept                  ...     14534
          la=0 lb=0:   1289 shell pairs
          la=1 lb=0:   1607 shell pairs
          la=1 lb=1:    504 shell pairs
          la=2 lb=0:    934 shell pairs
          la=2 lb=1:    572 shell pairs
          la=2 lb=2:    177 shell pairs
          la=3 lb=0:    474 shell pairs
          la=3 lb=1:    294 shell pairs
          la=3 lb=2:    173 shell pairs
          la=3 lb=3:     49 shell pairs

Calculating one electron integrals          ... done (  0.0 sec)
Calculating ECP integrals                   ... done (  0.1 sec)
Calculating RI/J V-Matrix + Cholesky decomp.... done (  0.0 sec)
Calculating Nuclear repulsion               ... done (  0.0 sec) ENN=    552.439352602259 Eh

Diagonalization of the overlap matrix:
Smallest eigenvalue                        ... 1.037e-04
Time for diagonalization                   ...    0.007 sec
Threshold for overlap eigenvalues          ... 1.000e-07
Number of eigenvalues below threshold      ... 0
Time for construction of square roots      ...    0.003 sec
Total time needed                          ...    0.011 sec

-------------------
DFT GRID GENERATION
-------------------

General Integration Accuracy     IntAcc      ... 4.388
Radial Grid Type                 RadialGrid  ... OptM3 with GC (2021)
Angular Grid (max. ang.)         AngularGrid ... 4 (Lebedev-302)
Angular grid pruning method      GridPruning ... 4 (adaptive)
Weight generation scheme         WeightScheme... mBecke (2022)
Basis function cutoff            BFCut       ... 1.0000e-11
Integration weight cutoff        WCut        ... 1.0000e-14
Partially contracted basis set               ... off
Rotationally invariant grid construction     ... off
Angular grids for H and He will be reduced by one unit

Total number of grid points                  ...    69393
Total number of batches                      ...     1091
Average number of points per batch           ...       63
Average number of grid points per atom       ...     5783

--------------------
COSX GRID GENERATION
--------------------

GRIDX 1
-------
General Integration Accuracy     IntAcc      ... 3.816
Radial Grid Type                 RadialGrid  ... OptM3 with GC (2021)
Angular Grid (max. ang.)         AngularGrid ... 1 (Lebedev-50)
Angular grid pruning method      GridPruning ... 4 (adaptive)
Weight generation scheme         WeightScheme... mBecke (2022)
Basis function cutoff            BFCut       ... 1.0000e-11
Integration weight cutoff        WCut        ... 1.0000e-14
Partially contracted basis set               ... on
Rotationally invariant grid construction     ... off
Angular grids for H and He will be reduced by one unit

Total number of grid points                  ...    13261
Total number of batches                      ...      109
Average number of points per batch           ...      121
Average number of grid points per atom       ...     1105
UseSFitting                                  ... on

GRIDX 2
-------
General Integration Accuracy     IntAcc      ... 4.020
Radial Grid Type                 RadialGrid  ... OptM3 with GC (2021)
Angular Grid (max. ang.)         AngularGrid ... 2 (Lebedev-110)
Angular grid pruning method      GridPruning ... 4 (adaptive)
Weight generation scheme         WeightScheme... mBecke (2022)
Basis function cutoff            BFCut       ... 1.0000e-11
Integration weight cutoff        WCut        ... 1.0000e-14
Partially contracted basis set               ... on
Rotationally invariant grid construction     ... off
Angular grids for H and He will be reduced by one unit

Total number of grid points                  ...    22707
Total number of batches                      ...      184
Average number of points per batch           ...      123
Average number of grid points per atom       ...     1892
UseSFitting                                  ... on

GRIDX 3
-------
General Integration Accuracy     IntAcc      ... 4.338
Radial Grid Type                 RadialGrid  ... OptM3 with GC (2021)
Angular Grid (max. ang.)         AngularGrid ... 3 (Lebedev-194)
Angular grid pruning method      GridPruning ... 4 (adaptive)
Weight generation scheme         WeightScheme... mBecke (2022)
Basis function cutoff            BFCut       ... 1.0000e-11
Integration weight cutoff        WCut        ... 1.0000e-14
Partially contracted basis set               ... on
Rotationally invariant grid construction     ... off
Angular grids for H and He will be reduced by one unit

Total number of grid points                  ...    43069
Total number of batches                      ...      342
Average number of points per batch           ...      125
Average number of grid points per atom       ...     3589
UseSFitting                                  ... on
Initializing property integral containers    ... done (  0.0 sec)

SHARK setup successfully completed in   1.4 seconds

Maximum memory used throughout the entire STARTUP-calculation: 48.0 MB
-------------------------------------------------------------------------------
                                 ORCA GUESS
                   Start orbitals & Density for SCF / CASSCF
-------------------------------------------------------------------------------

------------
SCF SETTINGS
------------
Hamiltonian:
 Density Functional     Method          .... DFT(GTOs)
 Exchange Functional    Exchange        .... WB97X-V
 Correlation Functional Correlation     .... WB97X-V
 Gradients option       PostSCFGGA      .... off
 Hybrid DFT is turned on
   Fraction HF Exchange ScalHFX         ....  0.167000
   Scaling of DF-GGA-X  ScalDFX         ....  0.000000
   Scaling of DF-GGA-C  ScalDFC         ....  1.000000
   Scaling of DF-LDA-C  ScalLDAC        ....  1.000000
   Perturbative correction              ....  0.000000
 Long-range corrected/Screened/Range-Separated Hybrid DFT is turned on
   Amount of maximum screened exact exchange              ....  0.833000
   Range separation parameter mu (erf(mu*r12)/r12)        ....  0.300000
   NL short-range parameter             ....  6.000000
   NL long-range parameter              ....  0.010000
 RI-approximation to the Coulomb term is turned on
   Number of AuxJ basis functions       .... 483
   RIJ-COSX (HFX calculated with COS-X)).... on


General Settings:
 Integral files         IntName         .... sp
 Hartree-Fock type      HFTyp           .... RHF
 Total Charge           Charge          ....    0
 Multiplicity           Mult            ....    1
 Number of Electrons    NEL             ....   82
 Basis Dimension        Dim             ....  316
 Nuclear Repulsion      ENuc            ....    552.4393526023 Eh

Convergence Acceleration:
 AO-DIIS                CNVDIIS         .... on
   Start iteration      DIISMaxIt       ....    12
   Startup error        DIISStart       ....  0.200000
   # of expansion vecs  DIISMaxEq       ....     5
   Bias factor          DIISBfac        ....   1.050
   Max. coefficient     DIISMaxC        ....  10.000
 MO-DIIS                CNVKDIIS        .... off
 Trust-Rad. Augm. Hess. CNVTRAH         .... auto
   Auto Start mean grad. ratio tolernc. ....  1.125000
   Auto Start start iteration           ....     1
   Auto Start num. interpolation iter.  ....    10
   Max. Number of Micro iterations      ....    24
   Max. Number of Macro iterations      .... Maxiter - #DIIS iter
   Number of Davidson start vectors     ....     2
   Converg. threshold    (grad. norm)   ....   1.000e-04
   Grad. Scal. Fac. for Micro threshold ....   0.100
   Minimum threshold for Micro iter.    ....   1.000e-02
   NR start threshold (gradient norm)   ....   1.000e-04
   Initial trust radius                 ....   0.400
   Minimum AH scaling param. (alpha)    ....   1.000
   Maximum AH scaling param. (alpha)    .... 1000.000
   Quad. conv. algorithm                .... NR
   White noise on init. David. guess    .... on
   Maximum white noise                  ....   0.010
   Pseudo random numbers                .... off
   Inactive MOs                         .... canonical
   Orbital update algorithm             .... Taylor
   Preconditioner                       .... Diag
   Full preconditioner red. dimension   ....   250
 SOSCF                  CNVSOSCF        .... on
   Start iteration      SOSCFMaxIt      ....   150
   Startup grad/error   SOSCFStart      ....  0.003300
   Hessian update       SOSCFHessUp     .... L-BFGS
 Level Shifting         CNVShift        .... on
   Level shift para.    LevelShift      ....    0.2500
   Turn off err/grad.   ShiftErr        ....    0.0010
 Zerner damping         CNVZerner       .... off
 Static damping         CNVDamp         .... on
   Fraction old density DampFac         ....    0.7000
   Max. Damping (<1)    DampMax         ....    0.9800
   Min. Damping (>=0)   DampMin         ....    0.0000
   Turn off err/grad.   DampErr         ....    0.1000

SCF Procedure:
 Maximum # iterations   MaxIter         ....   125
 SCF integral mode      SCFMode         .... Direct
   Integral package                     .... SHARK and LIBINT hybrid scheme
 Reset frequency        DirectResetFreq ....    20
 Integral Threshold     Thresh          ....  3.000e-11 Eh
 Primitive CutOff       TCut            ....  1.000e-12 Eh

Convergence Tolerance:
 Convergence Check Mode ConvCheckMode   .... Total+1el-Energy
 Convergence forced     ConvForced      .... 0
 Energy Change          TolE            ....  1.000e-07 Eh
 1-El. energy change                    ....  1.000e-04 Eh
 Orbital Gradient       TolG            ....  1.000e-04
 Orbital Rotation angle TolX            ....  1.000e-04
 DIIS Error             TolErr          ....  1.000e-07

---------------------
INITIAL GUESS: MOREAD
---------------------
Guess MOs are being read from file: sp.ges
Input Geometry matches current geometry (good)
Atom 0: N(Shells)= 11 and 9 - projection required
Input basis set needs projection
NBasis(read)= 223
NBasis(calc)= 316
Basis set overlap was calculated
Using GuessMode=FMatrix for the initial guess
C*T matrix was formed
Effective Fockian was calculated
Effective Fockian was diagonalized
Initial density was built
                      ------------------
                      INITIAL GUESS DONE (   0.0 sec)
                      ------------------
             **** ENERGY FILE WAS UPDATED (sp.en.tmp) ****
Finished Guess after   0.1 sec
Maximum memory used throughout the entire GUESS-calculation: 31.6 MB

-------------------------------------------------------------------------------------------
                                      ORCA LEAN-SCF
                              memory conserving SCF solver
-------------------------------------------------------------------------------------------

----------------------------------------D-I-I-S--------------------------------------------
Iteration    Energy (Eh)           Delta-E    RMSDP     MaxDP     DIISErr   Damp  Time(sec)
-------------------------------------------------------------------------------------------
               ***  Starting incremental Fock matrix formation  ***
    1    -712.2339203160856869     0.00e+00  1.18e-03  4.19e-02  8.84e-02  0.700  11.0
    2    -712.2427297990930128    -8.81e-03  9.51e-04  3.18e-02  6.42e-02  0.700   5.9
                               ***Turning on AO-DIIS***
    3    -712.2493432877929536    -6.61e-03  7.44e-04  2.42e-02  4.63e-02  0.700   5.9
    4    -712.2542097973298496    -4.87e-03  1.83e-03  5.77e-02  3.19e-02  0.000   5.8
                              *** Initializing SOSCF ***
---------------------------------------S-O-S-C-F--------------------------------------
Iteration    Energy (Eh)           Delta-E    RMSDP     MaxDP     MaxGrad    Time(sec)
--------------------------------------------------------------------------------------
    5    -712.2667132413287163    -1.25e-02  8.16e-05  2.52e-03  1.68e-03     6.1
               *** Restarting incremental Fock matrix formation ***
    6    -712.2667991983091724    -8.60e-05  4.98e-05  2.19e-03  1.22e-03    10.9
    7    -712.2668339191695850    -3.47e-05  4.76e-05  3.30e-03  4.84e-04     8.5
    8    -712.2668405578117472    -6.64e-06  1.20e-05  7.87e-04  2.54e-04     8.6
    9    -712.2668423299014648    -1.77e-06  6.34e-06  2.56e-04  1.05e-04     7.8
   10    -712.2668425736942481    -2.44e-07  2.07e-06  1.12e-04  4.49e-05     7.3
   11    -712.2668426258539967    -5.22e-08  9.71e-07  5.19e-05  2.20e-05     6.6
                 **** Energy Check signals convergence ****

               *****************************************************
               *                     SUCCESS                       *
               *           SCF CONVERGED AFTER  11 CYCLES          *
               *****************************************************


------------------
NL GRID GENERATION
------------------

General Integration Accuracy     IntAcc      ... 4.004
Radial Grid Type                 RadialGrid  ... OptM3 with GC (2021)
Angular Grid (max. ang.)         AngularGrid ... 2 (Lebedev-110)
Angular grid pruning method      GridPruning ... 4 (adaptive)
Weight generation scheme         WeightScheme... mBecke (2022)
Basis function cutoff            BFCut       ... 1.0000e-10
Integration weight cutoff        WCut        ... 1.0000e-14
Partially contracted basis set               ... off
Rotationally invariant grid construction     ... off
Angular grids for H and He will be reduced by one unit

Total number of grid points                  ...    25559
Total number of batches                      ...      406
Average number of points per batch           ...       62
Average number of grid points per atom       ...     2130
Final grid set up in    0.1 sec

-------------------------------------------------------------------------------
                    post-SCF DFT-NL dispersion correction                      
-------------------------------------------------------------------------------

SCF Energy:     -712.266842626 
NL    Energy:      0.313160127 
SC+NL Energy:   -711.953682499 
NL done in  :              1.9 sec
-------------------------------------------------------------------------------
Recomputing exchange energy using gridx3       ... done (   18.369 sec)
Old exchange energy                            :    -22.954110261 Eh
New exchange energy                            :    -22.954097710 Eh
Exchange energy change after final integration :      0.000012551 Eh
Total energy after final integration           :   -711.953669948 Eh
             **** ENERGY FILE WAS UPDATED (sp.en.tmp) ****

----------------
TOTAL SCF ENERGY
----------------

Total Energy       :       -711.95366994800133 Eh          -19373.24428 eV

Components:
Nuclear Repulsion  :        552.43935260225885 Eh           15032.63903 eV
Electronic Energy  :      -1264.70619522811285 Eh          -34414.40517 eV
One Electron Energy:      -2178.89077024376274 Eh          -59290.63214 eV
Two Electron Energy:        914.18457501564978 Eh           24876.22697 eV

Virial components:
Potential Energy   :      -1238.26151334516953 Eh          -33694.80879 eV
Kinetic Energy     :        526.30784339716809 Eh           14321.56451 eV
Virial Ratio       :          2.35273239583994

DFT components:
N(Alpha)           :       41.000009770415 electrons
N(Beta)            :       41.000009770415 electrons
N(Total)           :       82.000019540829 electrons
E(X)               :      -49.659533724534 Eh       
E(C)               :       -3.724885588382 Eh       
NL Energy, E(C,NL) :        0.313160127050 Eh       
E(XC)              :      -53.071259185865 Eh       

---------------
SCF CONVERGENCE
---------------

  Last Energy change         ...    5.2160e-08  Tolerance :   1.0000e-07
  Last MAX-Density change    ...    5.1939e-05  Tolerance :   1.0000e-05
  Last RMS-Density change    ...    9.7137e-07  Tolerance :   1.0000e-06
  Last DIIS Error            ...    1.6784e-03  Tolerance :   1.0000e-07
  Last Orbital Gradient      ...    2.1959e-05  Tolerance :   1.0000e-04
  Last Orbital Rotation      ...    3.9457e-05  Tolerance :   1.0000e-04


----------------
ORBITAL ENERGIES
----------------

  NO   OCC          E(Eh)            E(eV) 
   0   2.0000     -19.211928      -522.7831 
   1   2.0000     -19.209616      -522.7202 
   2   2.0000     -14.499611      -394.5545 
   3   2.0000     -14.482607      -394.0918 
   4   2.0000     -10.445185      -284.2279 
   5   2.0000     -10.416294      -283.4418 
   6   2.0000     -10.378660      -282.4177 
   7   2.0000     -10.343179      -281.4522 
   8   2.0000      -6.961309      -189.4269 
   9   2.0000      -4.994991      -135.9206 
  10   2.0000      -4.979884      -135.5095 
  11   2.0000      -4.979605      -135.5019 
  12   2.0000      -2.047552       -55.7167 
  13   2.0000      -2.043190       -55.5980 
  14   2.0000      -2.043012       -55.5932 
  15   2.0000      -2.030415       -55.2504 
  16   2.0000      -2.030404       -55.2501 
  17   2.0000      -1.232295       -33.5324 
  18   2.0000      -1.198897       -32.6237 
  19   2.0000      -1.134248       -30.8645 
  20   2.0000      -1.079014       -29.3615 
  21   2.0000      -0.963486       -26.2178 
  22   2.0000      -0.851135       -23.1606 
  23   2.0000      -0.823947       -22.4207 
  24   2.0000      -0.805518       -21.9193 
  25   2.0000      -0.707305       -19.2468 
  26   2.0000      -0.700982       -19.0747 
  27   2.0000      -0.653685       -17.7877 
  28   2.0000      -0.623576       -16.9684 
  29   2.0000      -0.606042       -16.4912 
  30   2.0000      -0.572000       -15.5649 
  31   2.0000      -0.554152       -15.0792 
  32   2.0000      -0.543332       -14.7848 
  33   2.0000      -0.504079       -13.7167 
  34   2.0000      -0.491559       -13.3760 
  35   2.0000      -0.426327       -11.6009 
  36   2.0000      -0.412385       -11.2216 
  37   2.0000      -0.406079       -11.0500 
  38   2.0000      -0.396608       -10.7923 
  39   2.0000      -0.373131       -10.1534 
  40   2.0000      -0.338241        -9.2040 
  41   0.0000       0.014441         0.3930 
  42   0.0000       0.033637         0.9153 
  43   0.0000       0.076622         2.0850 
  44   0.0000       0.091701         2.4953 
  45   0.0000       0.123206         3.3526 
  46   0.0000       0.142917         3.8890 
  47   0.0000       0.154874         4.2143 
  48   0.0000       0.182985         4.9793 
  49   0.0000       0.197540         5.3753 
  50   0.0000       0.204643         5.5686 
  51   0.0000       0.214272         5.8306 
*Only the first 10 virtual orbitals were printed.

                    ********************************
                    * MULLIKEN POPULATION ANALYSIS *
                    ********************************

-----------------------
MULLIKEN ATOMIC CHARGES
-----------------------
   0 C :   -0.030160
   1 C :   -0.126493
   2 C :    0.190150
   3 O :   -0.308732
   4 N :   -0.218556
   5 C :    0.296352
   6 O :   -0.336198
   7 N :   -0.220858
   8 I :    0.077705
   9 H :    0.170255
  10 H :    0.254339
  11 H :    0.252196
Sum of atomic charges:    0.0000000

--------------------------------
MULLIKEN REDUCED ORBITAL CHARGES
--------------------------------
  0 C s       :     3.150896  s :     3.150896
      pz      :     0.892535  p :     2.739909
      px      :     0.799376
      py      :     1.047997
      dz2     :     0.003540  d :     0.128455
      dxz     :     0.038992
      dyz     :     0.015636
      dx2y2   :     0.034221
      dxy     :     0.036066
      f0      :     0.002140  f :     0.010900
      f+1     :     0.001115
      f-1     :     0.000679
      f+2     :     0.002113
      f-2     :     0.000478
      f+3     :     0.001607
      f-3     :     0.002767

  1 C s       :     3.199290  s :     3.199290
      pz      :     1.105603  p :     2.801048
      px      :     0.848335
      py      :     0.847110
      dz2     :     0.008167  d :     0.118007
      dxz     :     0.018801
      dyz     :     0.015773
      dx2y2   :     0.044910
      dxy     :     0.030355
      f0      :     0.001880  f :     0.008149
      f+1     :     0.000828
      f-1     :     0.000688
      f+2     :     0.000515
      f-2     :     0.000645
      f+3     :     0.001070
      f-3     :     0.002523

  2 C s       :     3.049866  s :     3.049866
      pz      :     0.766911  p :     2.453595
      px      :     0.795616
      py      :     0.891069
      dz2     :     0.006777  d :     0.284697
      dxz     :     0.040394
      dyz     :     0.059919
      dx2y2   :     0.093145
      dxy     :     0.084462
      f0      :     0.002926  f :     0.021692
      f+1     :     0.001155
      f-1     :     0.001351
      f+2     :     0.003044
      f-2     :     0.001751
      f+3     :     0.003561
      f-3     :     0.007903

  3 O s       :     3.799108  s :     3.799108
      pz      :     1.400392  p :     4.474917
      px      :     1.679198
      py      :     1.395327
      dz2     :     0.002889  d :     0.032815
      dxz     :     0.002173
      dyz     :     0.009753
      dx2y2   :     0.008957
      dxy     :     0.009041
      f0      :     0.000197  f :     0.001892
      f+1     :     0.000054
      f-1     :     0.000153
      f+2     :     0.000202
      f-2     :     0.000273
      f+3     :     0.000467
      f-3     :     0.000546

  4 N s       :     3.414851  s :     3.414851
      pz      :     1.598865  p :     3.749500
      px      :     1.068233
      py      :     1.082403
      dz2     :     0.005746  d :     0.049967
      dxz     :     0.007357
      dyz     :     0.004160
      dx2y2   :     0.015244
      dxy     :     0.017460
      f0      :     0.000806  f :     0.004238
      f+1     :     0.000709
      f-1     :     0.000659
      f+2     :     0.000205
      f-2     :     0.000214
      f+3     :     0.000831
      f-3     :     0.000814

  5 C s       :     3.007298  s :     3.007298
      pz      :     0.781255  p :     2.374959
      px      :     0.791594
      py      :     0.802110
      dz2     :     0.006894  d :     0.296183
      dxz     :     0.079901
      dyz     :     0.037386
      dx2y2   :     0.036848
      dxy     :     0.135154
      f0      :     0.003409  f :     0.025208
      f+1     :     0.001675
      f-1     :     0.001175
      f+2     :     0.003187
      f-2     :     0.002899
      f+3     :     0.003491
      f-3     :     0.009372

  6 O s       :     3.795671  s :     3.795671
      pz      :     1.458826  p :     4.506710
      px      :     1.302610
      py      :     1.745274
      dz2     :     0.002965  d :     0.031901
      dxz     :     0.011475
      dyz     :     0.000066
      dx2y2   :     0.009563
      dxy     :     0.007832
      f0      :     0.000213  f :     0.001915
      f+1     :     0.000210
      f-1     :     0.000025
      f+2     :     0.000454
      f-2     :     0.000016
      f+3     :     0.000465
      f-3     :     0.000532

  7 N s       :     3.411057  s :     3.411057
      pz      :     1.599792  p :     3.750337
      px      :     1.052904
      py      :     1.097640
      dz2     :     0.005309  d :     0.055068
      dxz     :     0.010909
      dyz     :     0.003533
      dx2y2   :     0.014776
      dxy     :     0.020542
      f0      :     0.000833  f :     0.004396
      f+1     :     0.000710
      f-1     :     0.000675
      f+2     :     0.000294
      f-2     :     0.000194
      f+3     :     0.000809
      f-3     :     0.000881

  8 I s       :     3.909195  s :     3.909195
      pz      :     3.962559  p :    10.942655
      px      :     3.012121
      py      :     3.967974
      dz2     :     2.007428  d :    10.056753
      dxz     :     2.017387
      dyz     :     2.000717
      dx2y2   :     2.023195
      dxy     :     2.008025
      f0      :     0.001518  f :     0.013692
      f+1     :     0.002735
      f-1     :     0.000138
      f+2     :     0.002384
      f-2     :     0.000105
      f+3     :     0.004921
      f-3     :     0.001892

  9 H s       :     0.807694  s :     0.807694
      pz      :     0.003902  p :     0.022051
      px      :     0.005608
      py      :     0.012540

 10 H s       :     0.708850  s :     0.708850
      pz      :     0.010676  p :     0.036811
      px      :     0.009324
      py      :     0.016811

 11 H s       :     0.709889  s :     0.709889
      pz      :     0.011457  p :     0.037916
      px      :     0.009623
      py      :     0.016835


------------------------
MULLIKEN OVERLAP CHARGES
------------------------
B(  0-C ,  1-C ) :   0.9919 B(  0-C ,  5-C ) :  -0.0773 B(  0-C ,  7-N ) :   0.7564 
B(  0-C ,  8-I ) :  -0.1386 B(  0-C ,  9-H ) :   0.7862 B(  0-C , 11-H ) :  -0.0762 
B(  1-C ,  2-C ) :  -0.1070 B(  1-C ,  3-O ) :  -0.2765 B(  1-C ,  4-N ) :  -0.3259 
B(  1-C ,  7-N ) :  -0.1768 B(  1-C ,  8-I ) :   0.7514 B(  2-C ,  3-O ) :   1.6075 
B(  2-C ,  4-N ) :   0.8326 B(  2-C ,  8-I ) :  -0.1655 B(  3-O ,  4-N ) :  -0.2140 
B(  4-N ,  5-C ) :   0.7625 B(  4-N ,  6-O ) :  -0.2096 B(  4-N ,  7-N ) :  -0.2130 
B(  4-N , 10-H ) :   0.6943 B(  5-C ,  6-O ) :   1.5492 B(  5-C ,  7-N ) :   0.7284 
B(  5-C , 10-H ) :  -0.0542 B(  6-O ,  7-N ) :  -0.2149 B(  7-N ,  9-H ) :  -0.0598 
B(  7-N , 11-H ) :   0.7383 


                     *******************************
                     * LOEWDIN POPULATION ANALYSIS *
                     *******************************

----------------------
LOEWDIN ATOMIC CHARGES
----------------------
   0 C :   -0.178042
   1 C :   -0.408352
   2 C :   -0.430319
   3 O :    0.102004
   4 N :    0.195057
   5 C :   -0.488733
   6 O :    0.070749
   7 N :    0.174938
   8 I :    0.397431
   9 H :    0.152918
  10 H :    0.208324
  11 H :    0.204026

-------------------------------
LOEWDIN REDUCED ORBITAL CHARGES
-------------------------------
  0 C s       :     2.776624  s :     2.776624
      pz      :     0.840565  p :     2.845214
      px      :     0.943626
      py      :     1.061023
      dz2     :     0.030270  d :     0.493483
      dxz     :     0.128085
      dyz     :     0.037922
      dx2y2   :     0.156866
      dxy     :     0.140341
      f0      :     0.005276  f :     0.062721
      f+1     :     0.006436
      f-1     :     0.003783
      f+2     :     0.013911
      f-2     :     0.003866
      f+3     :     0.010919
      f-3     :     0.018531

  1 C s       :     2.807467  s :     2.807467
      pz      :     1.004696  p :     3.107948
      px      :     1.030650
      py      :     1.072602
      dz2     :     0.035702  d :     0.447699
      dxz     :     0.056209
      dyz     :     0.052691
      dx2y2   :     0.166201
      dxy     :     0.136896
      f0      :     0.003986  f :     0.045238
      f+1     :     0.003432
      f-1     :     0.004938
      f+2     :     0.003197
      f-2     :     0.004822
      f+3     :     0.008810
      f-3     :     0.016053

  2 C s       :     2.739378  s :     2.739378
      pz      :     0.743313  p :     2.669373
      px      :     0.916682
      py      :     1.009378
      dz2     :     0.054389  d :     0.893383
      dxz     :     0.120050
      dyz     :     0.150882
      dx2y2   :     0.307519
      dxy     :     0.260542
      f0      :     0.008266  f :     0.128186
      f+1     :     0.007188
      f-1     :     0.008975
      f+2     :     0.018908
      f-2     :     0.012911
      f+3     :     0.022802
      f-3     :     0.049136

  3 O s       :     3.399154  s :     3.399154
      pz      :     1.323449  p :     4.425544
      px      :     1.598937
      py      :     1.503157
      dz2     :     0.008138  d :     0.067313
      dxz     :     0.002910
      dyz     :     0.012275
      dx2y2   :     0.021651
      dxy     :     0.022338
      f0      :     0.000461  f :     0.005985
      f+1     :     0.000275
      f-1     :     0.000805
      f+2     :     0.000352
      f-2     :     0.000512
      f+3     :     0.001844
      f-3     :     0.001736

  4 N s       :     2.926010  s :     2.926010
      pz      :     1.399011  p :     3.670163
      px      :     1.142370
      py      :     1.128782
      dz2     :     0.016657  d :     0.194971
      dxz     :     0.024035
      dyz     :     0.012519
      dx2y2   :     0.061680
      dxy     :     0.080080
      f0      :     0.001166  f :     0.013799
      f+1     :     0.001938
      f-1     :     0.001714
      f+2     :     0.001219
      f-2     :     0.001077
      f+3     :     0.002540
      f-3     :     0.004146

  5 C s       :     2.725906  s :     2.725906
      pz      :     0.767852  p :     2.636486
      px      :     0.963974
      py      :     0.904661
      dz2     :     0.058429  d :     0.978965
      dxz     :     0.201854
      dyz     :     0.123839
      dx2y2   :     0.223603
      dxy     :     0.371240
      f0      :     0.009416  f :     0.147376
      f+1     :     0.011258
      f-1     :     0.007259
      f+2     :     0.023073
      f-2     :     0.017523
      f+3     :     0.022897
      f-3     :     0.055950

  6 O s       :     3.402980  s :     3.402980
      pz      :     1.373747  p :     4.453636
      px      :     1.464838
      py      :     1.615051
      dz2     :     0.008384  d :     0.066655
      dxz     :     0.015736
      dyz     :     0.000126
      dx2y2   :     0.026325
      dxy     :     0.016084
      f0      :     0.000507  f :     0.005979
      f+1     :     0.001019
      f-1     :     0.000096
      f+2     :     0.000873
      f-2     :     0.000046
      f+3     :     0.001901
      f-3     :     0.001537

  7 N s       :     2.910577  s :     2.910577
      pz      :     1.401272  p :     3.681997
      px      :     1.154056
      py      :     1.126668
      dz2     :     0.015205  d :     0.217369
      dxz     :     0.035520
      dyz     :     0.012039
      dx2y2   :     0.064270
      dxy     :     0.090335
      f0      :     0.001368  f :     0.015120
      f+1     :     0.002012
      f-1     :     0.001677
      f+2     :     0.001789
      f-2     :     0.001026
      f+3     :     0.002393
      f-3     :     0.004854

  8 I s       :     3.632281  s :     3.632281
      pz      :     3.906934  p :    10.827624
      px      :     3.026113
      py      :     3.894577
      dz2     :     2.015190  d :    10.118925
      dxz     :     2.036128
      dyz     :     2.000957
      dx2y2   :     2.048959
      dxy     :     2.017691
      f0      :     0.002391  f :     0.023739
      f+1     :     0.004566
      f-1     :     0.000229
      f+2     :     0.003951
      f-2     :     0.000089
      f+3     :     0.008982
      f-3     :     0.003531

  9 H s       :     0.787323  s :     0.787323
      pz      :     0.011606  p :     0.059759
      px      :     0.015744
      py      :     0.032409

 10 H s       :     0.688796  s :     0.688796
      pz      :     0.029944  p :     0.102880
      px      :     0.026537
      py      :     0.046399

 11 H s       :     0.691543  s :     0.691543
      pz      :     0.031852  p :     0.104431
      px      :     0.026088
      py      :     0.046490


---------------------------------
LOEWDIN BOND ORDERS (THRESH 0.050000)
---------------------------------
B(  0-C ,  1-C ) :   1.8448 B(  0-C ,  2-C ) :   0.2433 B(  0-C ,  5-C ) :   0.1837 
B(  0-C ,  7-N ) :   1.4925 B(  0-C ,  8-I ) :   0.2091 B(  0-C ,  9-H ) :   0.8337 
B(  0-C , 11-H ) :   0.0908 B(  1-C ,  2-C ) :   1.2342 B(  1-C ,  3-O ) :   0.1755 
B(  1-C ,  4-N ) :   0.1395 B(  1-C ,  7-N ) :   0.2057 B(  1-C ,  8-I ) :   1.4194 
B(  1-C ,  9-H ) :   0.1034 B(  2-C ,  3-O ) :   2.6168 B(  2-C ,  4-N ) :   1.3695 
B(  2-C ,  5-C ) :   0.1670 B(  2-C ,  8-I ) :   0.1458 B(  2-C , 10-H ) :   0.0868 
B(  3-O ,  4-N ) :   0.1817 B(  4-N ,  5-C ) :   1.4531 B(  4-N ,  6-O ) :   0.1760 
B(  4-N ,  7-N ) :   0.1215 B(  4-N , 10-H ) :   0.8391 B(  5-C ,  6-O ) :   2.6366 
B(  5-C ,  7-N ) :   1.3924 B(  5-C , 10-H ) :   0.0940 B(  5-C , 11-H ) :   0.0905 
B(  6-O ,  7-N ) :   0.1697 B(  7-N ,  9-H ) :   0.0708 B(  7-N , 11-H ) :   0.8481 


------------------------------------------
LOEWDIN REDUCED ORBITAL POPULATIONS PER MO
-------------------------------------------
THRESHOLD FOR PRINTING IS 0.1%%
                      0         1         2         3         4         5   
                 -19.21193 -19.20962 -14.49961 -14.48261 -10.44519 -10.41629
                   2.00000   2.00000   2.00000   2.00000   2.00000   2.00000
                  --------  --------  --------  --------  --------  --------
 0 C  dx2y2           0.0       0.0       0.1       0.0       0.0       0.0
 1 C  dxy             0.0       0.0       0.0       0.0       0.0       0.1
 2 C  s               0.0       0.0       0.0       0.0       0.0      98.8
 2 C  dx2y2           0.0       0.1       0.0       0.1       0.0       0.0
 3 O  s               0.0      99.6       0.0       0.0       0.0       0.0
 3 O  py              0.0       0.0       0.0       0.0       0.0       0.2
 3 O  dxy             0.0       0.0       0.0       0.0       0.0       0.1
 4 N  s               0.0       0.0       0.0      99.4       0.0       0.0
 4 N  px              0.0       0.0       0.0       0.0       0.0       0.1
 5 C  s               0.0       0.0       0.0       0.0      98.9       0.0
 5 C  dx2y2           0.1       0.0       0.0       0.0       0.0       0.0
 5 C  dxy             0.0       0.0       0.1       0.1       0.0       0.0
 6 O  s              99.6       0.0       0.0       0.0       0.0       0.0
 6 O  px              0.0       0.0       0.0       0.0       0.2       0.0
 6 O  dx2y2           0.0       0.0       0.0       0.0       0.2       0.0
 7 N  s               0.0       0.0      99.3       0.0       0.0       0.0

                      6         7         8         9        10        11   
                 -10.37866 -10.34318  -6.96131  -4.99499  -4.97988  -4.97960
                   2.00000   2.00000   2.00000   2.00000   2.00000   2.00000
                  --------  --------  --------  --------  --------  --------
 0 C  s              98.8       0.0       0.0       0.0       0.0       0.0
 0 C  py              0.0       0.1       0.0       0.0       0.0       0.0
 0 C  dxy             0.0       0.2       0.0       0.0       0.0       0.0
 1 C  s               0.0      98.8       0.0       0.0       0.0       0.0
 1 C  px              0.0       0.0       0.3       0.0       0.0       0.0
 1 C  py              0.1       0.0       0.0       0.0       0.0       0.0
 1 C  dxy             0.2       0.0       0.0       0.0       0.0       0.0
 2 C  dxy             0.0       0.1       0.0       0.0       0.0       0.0
 7 N  px              0.1       0.0       0.0       0.0       0.0       0.0
 7 N  dx2y2           0.1       0.0       0.0       0.0       0.0       0.0
 8 I  s               0.0       0.0      99.6       0.0       0.0       0.0
 8 I  pz              0.0       0.0       0.0       0.0     100.0       0.0
 8 I  px              0.0       0.0       0.0      99.9       0.0       0.0
 8 I  py              0.0       0.0       0.0       0.0       0.0     100.0

                     12        13        14        15        16        17   
                  -2.04755  -2.04319  -2.04301  -2.03041  -2.03040  -1.23229
                   2.00000   2.00000   2.00000   2.00000   2.00000   2.00000
                  --------  --------  --------  --------  --------  --------
 0 C  s               0.0       0.0       0.0       0.0       0.0       1.9
 0 C  px              0.0       0.0       0.0       0.0       0.0       1.4
 0 C  py              0.0       0.0       0.0       0.0       0.0       0.3
 0 C  dz2             0.0       0.0       0.0       0.0       0.0       0.2
 0 C  dx2y2           0.0       0.0       0.0       0.0       0.0       0.2
 1 C  s               0.0       0.0       0.0       0.0       0.0       1.1
 1 C  px              0.1       0.0       0.0       0.0       0.0       0.8
 1 C  py              0.0       0.0       0.0       0.0       0.0       0.1
 1 C  dz2             0.0       0.0       0.0       0.0       0.0       0.1
 2 C  s               0.0       0.0       0.0       0.0       0.0       5.1
 2 C  px              0.0       0.0       0.0       0.0       0.0       0.6
 2 C  py              0.0       0.0       0.0       0.0       0.0       0.3
 2 C  dz2             0.0       0.0       0.0       0.0       0.0       0.4
 2 C  dxy             0.0       0.0       0.0       0.0       0.0       0.2
 2 C  f+3             0.0       0.0       0.0       0.0       0.0       0.1
 3 O  s               0.0       0.0       0.0       0.0       0.0       4.2
 3 O  px              0.0       0.0       0.0       0.0       0.0       0.2
 3 O  py              0.0       0.0       0.0       0.0       0.0       0.6
 4 N  s               0.0       0.0       0.0       0.0       0.0       9.4
 4 N  px              0.0       0.0       0.0       0.0       0.0       0.1
 4 N  py              0.0       0.0       0.0       0.0       0.0       1.3
 4 N  dz2             0.0       0.0       0.0       0.0       0.0       0.2
 4 N  dxy             0.0       0.0       0.0       0.0       0.0       0.3
 5 C  s               0.0       0.0       0.0       0.0       0.0      21.9
 5 C  px              0.0       0.0       0.0       0.0       0.0       1.6
 5 C  dz2             0.0       0.0       0.0       0.0       0.0       1.7
 5 C  dx2y2           0.0       0.0       0.0       0.0       0.0       0.7
 5 C  f+3             0.0       0.0       0.0       0.0       0.0       0.8
 6 O  s               0.0       0.0       0.0       0.0       0.0      23.6
 6 O  px              0.0       0.0       0.0       0.0       0.0       4.5
 6 O  dx2y2           0.0       0.0       0.0       0.0       0.0       0.3
 7 N  s               0.0       0.0       0.0       0.0       0.0       8.5
 7 N  px              0.0       0.0       0.0       0.0       0.0       0.5
 7 N  py              0.0       0.0       0.0       0.0       0.0       1.6
 7 N  dz2             0.0       0.0       0.0       0.0       0.0       0.2
 7 N  dxy             0.0       0.0       0.0       0.0       0.0       0.2
 8 I  dz2            25.5       0.0       0.0      74.4       0.0       0.0
 8 I  dxz             0.0      99.9       0.0       0.0       0.0       0.0
 8 I  dyz             0.0       0.0       0.0       0.0     100.0       0.0
 8 I  dx2y2          74.2       0.0       0.0      25.5       0.0       0.0
 8 I  dxy             0.0       0.0      99.9       0.0       0.0       0.0
 9 H  s               0.0       0.0       0.0       0.0       0.0       0.2
10 H  s               0.0       0.0       0.0       0.0       0.0       1.8
10 H  py              0.0       0.0       0.0       0.0       0.0       0.2
11 H  s               0.0       0.0       0.0       0.0       0.0       1.5
11 H  py              0.0       0.0       0.0       0.0       0.0       0.2

                     18        19        20        21        22        23   
                  -1.19890  -1.13425  -1.07901  -0.96349  -0.85113  -0.82395
                   2.00000   2.00000   2.00000   2.00000   2.00000   2.00000
                  --------  --------  --------  --------  --------  --------
 0 C  s               0.0       9.3       2.0      11.4       8.3       2.3
 0 C  px              0.2       4.2       1.3       6.4       0.5       0.3
 0 C  py              0.2       0.2       0.4       4.3       2.2       4.9
 0 C  dz2             0.0       0.7       0.1       0.1       0.0       0.0
 0 C  dx2y2           0.1       0.9       0.5       1.0       0.1       0.5
 0 C  dxy             0.0       0.0       0.0       0.6       0.0       0.1
 0 C  f+3             0.0       0.2       0.1       0.0       0.1       0.0
 1 C  s               1.1       1.8       0.0      25.5       1.9       1.2
 1 C  px              0.1       1.4       0.1       0.6       8.8      10.0
 1 C  py              2.2       1.1       0.4       1.0       3.9       4.8
 1 C  dz2             0.1       0.1       0.0       0.7       0.1       0.0
 1 C  dx2y2           0.3       0.1       0.1       0.0       1.3       0.5
 1 C  dxy             0.1       0.2       0.5       0.0       0.3       0.7
 1 C  f+3             0.0       0.0       0.0       0.2       0.0       0.0
 2 C  s              16.5       0.1       0.6       2.3       0.2       4.9
 2 C  px              1.0       0.9      10.3       1.5       2.3       0.0
 2 C  py              7.9       2.9       2.8       8.5       1.1       6.3
 2 C  dz2             1.2       0.0       0.1       0.0       0.0       0.0
 2 C  dx2y2           0.7       0.1       3.0       0.3       0.0       0.1
 2 C  dxy             1.2       0.1       0.1       1.0       0.0       0.1
 2 C  f+1             0.0       0.0       0.1       0.0       0.0       0.0
 2 C  f-1             0.2       0.0       0.0       0.1       0.0       0.1
 2 C  f+3             0.6       0.0       0.0       0.0       0.0       0.0
 3 O  s              36.1       2.6       6.3       1.2       0.1       1.4
 3 O  px              1.0       0.0       0.2       0.1       0.3       0.0
 3 O  py              4.0       0.2       0.4       0.4       0.2       1.0
 3 O  dx2y2           0.1       0.0       0.0       0.0       0.0       0.0
 3 O  dxy             0.2       0.0       0.0       0.0       0.0       0.0
 4 N  s               1.6       1.4      29.1       0.5       0.4       1.5
 4 N  px              3.6       0.3       0.0       1.3       0.0      10.1
 4 N  py              1.1       0.6       0.1       0.0       3.3       2.3
 4 N  dz2             0.0       0.0       0.1       0.0       0.0       0.0
 4 N  dx2y2           0.1       0.1       0.0       0.3       0.1       0.3
 4 N  dxy             0.0       0.1       0.0       0.1       0.0       0.0
 5 C  s               2.6       0.1       0.4       1.0       2.7       0.1
 5 C  px              3.1      18.1       2.7       2.3       2.7       0.2
 5 C  py              0.6       1.5      12.5       0.5       2.2       3.9
 5 C  dz2             0.2       0.0       0.0       0.0       0.0       0.0
 5 C  dx2y2           0.5       2.0       0.4       1.2       0.5       0.6
 5 C  dxy             0.1       0.6       3.0       0.1       0.0       0.0
 5 C  f+1             0.0       0.3       0.0       0.0       0.0       0.0
 5 C  f-1             0.0       0.0       0.1       0.0       0.0       0.0
 5 C  f+3             0.1       0.0       0.0       0.0       0.0       0.0
 6 O  s               8.0      16.0       1.7       1.8       1.5       0.0
 6 O  px              1.0       1.1       0.1       0.3       0.7       0.0
 6 O  py              0.0       0.1       0.5       0.0       0.3       0.7
 6 O  dxy             0.0       0.0       0.1       0.0       0.0       0.1
 7 N  s               0.7      22.1       7.9       3.3       0.2       0.1
 7 N  px              0.4       2.1       0.0       5.2      13.1       2.3
 7 N  py              0.0       0.1       1.0       0.0       3.6       3.5
 7 N  dz2             0.0       0.2       0.0       0.0       0.0       0.0
 7 N  dx2y2           0.0       0.0       0.3       0.5       0.8       0.0
 7 N  dxy             0.1       0.0       0.0       0.1       0.1       0.0
 8 I  s               0.0       0.0       0.0       6.3      30.1      25.8
 8 I  px              0.2       0.1       0.0       1.8       0.1       0.2
 8 I  dz2             0.0       0.0       0.0       0.2       0.0       0.0
 8 I  dx2y2           0.0       0.0       0.0       0.7       0.0       0.1
 9 H  s               0.0       1.1       0.4       2.2       3.5       3.1
 9 H  px              0.0       0.1       0.0       0.0       0.1       0.1
 9 H  py              0.0       0.0       0.0       0.2       0.3       0.2
10 H  s               0.3       0.1       5.8       0.2       1.0       4.3
10 H  px              0.0       0.0       0.3       0.0       0.1       0.0
10 H  py              0.0       0.0       0.8       0.0       0.1       0.4
11 H  s               0.2       3.6       2.2       1.6       0.1       0.3
11 H  px              0.0       0.2       0.1       0.0       0.1       0.1
11 H  py              0.0       0.5       0.3       0.3       0.1       0.0

                     24        25        26        27        28        29   
                  -0.80552  -0.70731  -0.70098  -0.65368  -0.62358  -0.60604
                   2.00000   2.00000   2.00000   2.00000   2.00000   2.00000
                  --------  --------  --------  --------  --------  --------
 0 C  s               1.3       0.2       1.0       0.8       0.0       0.3
 0 C  pz              0.0       0.0       0.0       0.0       7.5       0.0
 0 C  px              0.9      18.4       3.5       5.4       0.0       0.2
 0 C  py              1.4       0.7       0.6      17.0       0.0      10.0
 0 C  dxz             0.0       0.0       0.0       0.0       0.5       0.0
 0 C  dyz             0.0       0.0       0.0       0.0       0.1       0.0
 0 C  dx2y2           0.0       0.4       0.1       0.6       0.0       0.1
 0 C  dxy             0.4       0.6       0.7       0.3       0.0       1.6
 0 C  f0              0.0       0.0       0.0       0.0       0.1       0.0
 0 C  f-3             0.2       0.0       0.3       0.0       0.0       0.1
 1 C  s               0.1       4.2       1.0       1.0       0.0       0.3
 1 C  pz              0.0       0.0       0.0       0.0       5.1       0.0
 1 C  px              0.5       0.1       0.0       0.4       0.0       0.9
 1 C  py              3.8       3.8      14.1       0.3       0.0       4.4
 1 C  dz2             0.0       0.1       0.0       0.1       0.0       0.1
 1 C  dxz             0.0       0.0       0.0       0.0       0.3       0.0
 1 C  dx2y2           0.3       1.3       0.2       0.5       0.0       0.7
 1 C  dxy             0.8       0.0       0.1       0.8       0.0       0.0
 1 C  f-3             0.0       0.0       0.0       0.3       0.0       0.0
 2 C  s               3.9       0.5       0.4       0.6       0.0       1.7
 2 C  pz              0.0       0.0       0.0       0.0       9.8       0.0
 2 C  px              4.4       0.7      13.8       1.6       0.0       3.3
 2 C  py              0.6       0.0       5.1       0.0       0.0       0.8
 2 C  dz2             0.0       0.0       0.0       0.1       0.0       0.3
 2 C  dxz             0.0       0.0       0.0       0.0       0.3       0.0
 2 C  dx2y2           1.2       0.1       0.1       0.1       0.0       0.8
 2 C  dxy             1.4       0.4       0.1       1.1       0.0       1.1
 2 C  f0              0.0       0.0       0.0       0.0       0.2       0.0
 2 C  f-3             0.0       0.1       0.0       0.3       0.0       0.0
 3 O  s               3.2       0.1       0.1       0.0       0.0       6.6
 3 O  pz              0.0       0.0       0.0       0.0       3.7       0.0
 3 O  px              1.3       0.0       3.7       0.1       0.0       1.0
 3 O  py              1.0       0.1       1.8       0.1       0.0      20.2
 3 O  dyz             0.0       0.0       0.0       0.0       0.1       0.0
 3 O  dx2y2           0.0       0.0       0.3       0.0       0.0       0.2
 3 O  dxy             0.1       0.0       0.1       0.0       0.0       0.1
 4 N  s               0.5       0.1       0.0       0.0       0.0       0.3
 4 N  pz              0.0       0.0       0.0       0.0      18.4       0.0
 4 N  px             11.8       3.9      10.8       5.9       0.0       0.9
 4 N  py             12.9       4.3       2.6      19.0       0.0       4.5
 4 N  dyz             0.0       0.0       0.0       0.0       0.3       0.0
 4 N  dx2y2           0.9       0.1       0.0       0.3       0.0       0.0
 4 N  dxy             0.4       0.1       0.0       1.1       0.0       0.0
 5 C  s               5.2       0.2       0.0       0.8       0.0       1.0
 5 C  pz              0.0       0.0       0.0       0.0      23.1       0.0
 5 C  px              4.1       0.2       0.2       0.2       0.0       0.6
 5 C  py              2.7       1.3      11.3       1.7       0.0       2.8
 5 C  dz2             0.1       0.0       0.0       0.1       0.0       0.2
 5 C  dxz             0.0       0.0       0.0       0.0       0.1       0.0
 5 C  dx2y2           0.0       3.8       0.5       0.1       0.0       0.2
 5 C  dxy             0.0       0.0       0.1       1.3       0.0       0.3
 5 C  f0              0.0       0.0       0.0       0.0       0.4       0.0
 5 C  f-3             0.0       0.0       0.0       0.6       0.0       0.3
 6 O  s               1.6       1.7       0.1       0.2       0.0       2.4
 6 O  pz              0.0       0.0       0.0       0.0       9.6       0.0
 6 O  px              1.1       1.9       0.0       0.6       0.0       8.2
 6 O  py              0.6       0.5       3.2       0.0       0.0       0.5
 6 O  dxz             0.0       0.0       0.0       0.0       0.4       0.0
 6 O  dx2y2           0.0       0.0       0.0       0.0       0.0       0.1
 6 O  dxy             0.1       0.0       0.3       0.0       0.0       0.0
 7 N  s               1.5       0.1       0.1       0.7       0.0       0.0
 7 N  pz              0.0       0.0       0.0       0.0      18.5       0.0
 7 N  px              1.1      23.0       1.2       2.5       0.0       0.5
 7 N  py             14.5       2.6      13.2       4.3       0.0       6.5
 7 N  dyz             0.0       0.0       0.0       0.0       0.3       0.0
 7 N  dx2y2           0.0       0.2       0.1       0.3       0.0       0.3
 7 N  dxy             0.2       0.1       0.4       0.2       0.0       2.0
 8 I  s               3.5       8.1       1.7       0.0       0.0       0.1
 8 I  pz              0.0       0.0       0.0       0.0       0.2       0.0
 8 I  px              0.1       3.3       0.8       0.0       0.0       0.2
 8 I  py              0.0       0.1       0.5       0.1       0.0       0.1
 8 I  dz2             0.0       0.2       0.0       0.0       0.0       0.0
 8 I  dx2y2           0.0       0.4       0.1       0.0       0.0       0.0
 8 I  dxy             0.0       0.1       0.3       0.0       0.0       0.1
 9 H  s               0.1       0.9       0.5      13.6       0.0       5.9
 9 H  px              0.0       0.1       0.0       0.1       0.0       0.1
 9 H  py              0.0       0.1       0.1       0.4       0.0       0.1
10 H  s               1.1       3.6       0.0      11.4       0.0       1.8
10 H  pz              0.0       0.0       0.0       0.0       0.3       0.0
10 H  px              0.4       0.0       0.2       0.1       0.0       0.0
10 H  py              0.0       0.2       0.1       0.3       0.0       0.0
11 H  s               7.2       5.8       3.6       1.7       0.0       4.7
11 H  pz              0.0       0.0       0.0       0.0       0.3       0.0
11 H  px              0.2       0.0       0.3       0.0       0.0       0.1
11 H  py              0.4       0.4       0.0       0.0       0.0       0.1

                     30        31        32        33        34        35   
                  -0.57200  -0.55415  -0.54333  -0.50408  -0.49156  -0.42633
                   2.00000   2.00000   2.00000   2.00000   2.00000   2.00000
                  --------  --------  --------  --------  --------  --------
 0 C  s               0.1       0.1       0.0       0.0       0.6       0.1
 0 C  pz              0.0       0.0       0.0      25.0       0.0       0.0
 0 C  px              0.9       0.2       0.0       0.0       1.6       0.5
 0 C  py              2.9       6.4       0.0       0.0       0.5       0.7
 0 C  dxz             0.0       0.0       0.9       0.3       0.0       0.0
 0 C  dyz             0.0       0.0       0.2       0.1       0.0       0.0
 0 C  dx2y2           0.0       0.4       0.0       0.0       2.0       0.2
 0 C  dxy             0.5       0.8       0.0       0.0       0.6       0.5
 0 C  f0              0.0       0.0       0.0       0.1       0.0       0.0
 0 C  f+2             0.0       0.0       0.1       0.1       0.0       0.0
 0 C  f-3             0.1       0.0       0.0       0.0       0.2       0.0
 1 C  s               0.0       0.1       0.0       0.0       1.4       0.1
 1 C  pz              0.0       0.0       5.0      11.4       0.0       0.0
 1 C  px              1.6       0.0       0.0       0.0      24.5       0.5
 1 C  py              0.6       6.9       0.0       0.0       0.0       1.6
 1 C  dyz             0.0       0.0       0.9       1.2       0.0       0.0
 1 C  dx2y2           0.2       0.0       0.0       0.0       2.5       0.1
 1 C  dxy             0.0       0.2       0.0       0.0       0.0       0.3
 1 C  f-2             0.0       0.0       0.1       0.1       0.0       0.0
 2 C  s               0.0       0.8       0.0       0.0       0.3       0.3
 2 C  pz              0.0       0.0      26.0       0.3       0.0       0.0
 2 C  px              1.4       0.6       0.0       0.0       1.9       0.1
 2 C  py              0.0      11.5       0.0       0.0       1.0       0.8
 2 C  dz2             0.0       0.3       0.0       0.0       0.1       0.0
 2 C  dxz             0.0       0.0       0.1       0.9       0.0       0.0
 2 C  dyz             0.0       0.0       0.7       0.6       0.0       0.0
 2 C  dx2y2           0.4       0.2       0.0       0.0       0.3       1.7
 2 C  dxy             0.0       0.1       0.0       0.0       0.7       1.6
 2 C  f0              0.0       0.0       0.2       0.0       0.0       0.0
 2 C  f+2             0.0       0.0       0.1       0.1       0.0       0.0
 2 C  f-2             0.0       0.0       0.1       0.1       0.0       0.0
 2 C  f-3             0.0       0.0       0.0       0.0       0.6       0.1
 3 O  s               0.1       8.0       0.0       0.0       0.0       0.1
 3 O  pz              0.0       0.0      28.5       0.6       0.0       0.0
 3 O  px              0.6      14.7       0.0       0.0       2.8       9.0
 3 O  py              1.4      28.6       0.0       0.0       2.0       4.8
 3 O  dz2             0.0       0.1       0.0       0.0       0.0       0.0
 3 O  dxz             0.0       0.0       0.1       0.0       0.0       0.0
 3 O  dyz             0.0       0.0       0.4       0.0       0.0       0.0
 3 O  dxy             0.0       0.3       0.0       0.0       0.0       0.0
 4 N  s               0.2       0.1       0.0       0.0       0.0       1.4
 4 N  pz              0.0       0.0       2.8      10.9       0.0       0.0
 4 N  px              1.0       0.3       0.0       0.0       1.5       0.0
 4 N  py              0.0       2.1       0.0       0.0       0.2       1.2
[...]
10 H  s               0.0       0.1       0.0       0.0       0.0       0.0

                    300       301       302       303       304       305   
                   7.17514   7.18713   7.27349  22.52806  22.89015  23.38091
                   0.00000   0.00000   0.00000   0.00000   0.00000   0.00000
                  --------  --------  --------  --------  --------  --------
 0 C  s               0.0       0.0       0.0      28.3      65.0       2.8
 0 C  px              0.0       0.0       0.1       0.2       0.0       0.0
 0 C  py              0.0       0.0       0.0       0.1       0.1       0.0
 0 C  dxy             0.0       0.0       0.1       0.1       0.0       0.0
 0 C  f-3             0.0       0.0       0.2       0.0       0.0       0.0
 1 C  s               0.0       0.1       0.0      69.2      27.0       0.7
 1 C  px              0.0       0.1       0.0       0.1       0.2       0.0
 1 C  py              0.1       0.0       0.2       0.1       0.4       0.0
 1 C  dxy             0.1       0.1       0.2       0.0       0.1       0.0
 1 C  f-3             0.0       0.0       0.3       0.0       0.0       0.0
 2 C  s               3.0       0.8       0.1       0.0       5.6      73.5
 2 C  px              0.6       0.4       0.2       0.1       0.0       0.0
 2 C  py              1.4       0.4       0.2       0.2       0.0       0.2
 2 C  dz2             0.2       0.0       0.0       0.0       0.0       0.1
 2 C  dx2y2           0.3       1.0       1.1       0.1       0.0       0.0
 2 C  dxy             0.9       0.4       0.3       0.1       0.0       0.0
 2 C  f+1             0.1       0.0       0.0       0.0       0.0       0.0
 2 C  f-1             0.2       0.1       0.0       0.0       0.0       0.0
 2 C  f+3             2.1       0.1       0.0       0.0       0.0       0.1
 2 C  f-3             0.0       0.1       2.9       0.0       0.0       0.0
 3 O  s               1.5       0.2       0.1       0.0       0.1       0.6
 3 O  px              1.6       0.4       1.0       0.0       0.0       0.1
 3 O  py              1.2       0.9       0.4       0.0       0.0       0.4
 3 O  dz2            15.8       2.5       0.9       0.0       0.0       0.0
 3 O  dx2y2           4.8      26.1       7.2       0.0       0.0       0.0
 3 O  dxy            43.4       0.7       0.7       0.0       0.0       0.0
 3 O  f+1             1.9       0.0       0.2       0.0       0.0       0.0
 3 O  f-1             3.9       1.3       0.2       0.0       0.0       0.0
 3 O  f+3             7.9       0.3       0.6       0.0       0.0       0.0
 3 O  f-3             1.6       6.5       8.7       0.0       0.0       0.0
 4 N  s               0.1       0.2       0.0       0.1       0.0       0.1
 4 N  px              0.1       0.0       0.6       0.0       0.0       0.5
 4 N  py              0.0       0.1       0.2       0.0       0.0       0.1
 4 N  dx2y2           0.1       0.0       1.5       0.0       0.0       0.2
 4 N  dxy             0.4       0.4       0.2       0.0       0.0       0.0
 4 N  f+3             0.4       0.4       0.0       0.0       0.0       0.0
 4 N  f-3             0.3       0.1       3.4       0.0       0.0       0.0
 5 C  s               0.0       1.6       0.0       0.2       0.4      19.6
 5 C  px              0.1       0.9       0.0       0.0       0.0       0.0
 5 C  py              0.0       0.2       1.1       0.0       0.0       0.0
 5 C  dz2             0.0       0.1       0.0       0.0       0.0       0.0
 5 C  dxy             0.1       0.9       3.6       0.0       0.0       0.0
 5 C  f+1             0.0       0.2       0.0       0.0       0.0       0.0
 5 C  f-1             0.0       0.0       0.1       0.0       0.0       0.0
 5 C  f+3             0.2       1.1       0.1       0.0       0.0       0.0
 5 C  f-3             0.3       0.5       8.5       0.0       0.0       0.0
 6 O  s               0.1       0.8       0.0       0.0       0.0       0.1
 6 O  px              0.1       1.1       0.0       0.0       0.0       0.1
 6 O  py              0.0       0.6       4.0       0.0       0.0       0.0
 6 O  dz2             0.8       8.6       0.0       0.0       0.0       0.0
 6 O  dx2y2           1.3      21.2       0.2       0.0       0.0       0.0
 6 O  dxy             2.1       7.8      16.5       0.0       0.0       0.0
 6 O  f+1             0.1       2.6       0.0       0.0       0.0       0.0
 6 O  f-1             0.0       0.2       1.3       0.0       0.0       0.0
 6 O  f+3             0.1       2.1       0.1       0.0       0.0       0.0
 6 O  f-3             0.0       4.6      28.5       0.0       0.0       0.0
 7 N  s               0.1       0.1       0.1       0.3       0.1       0.0
 7 N  px              0.0       0.0       0.3       0.2       0.3       0.1
 7 N  dx2y2           0.0       0.2       0.9       0.1       0.1       0.0
 7 N  dxy             0.0       0.1       0.2       0.0       0.0       0.0
 7 N  f-3             0.1       0.0       2.0       0.0       0.0       0.0
 9 H  s               0.0       0.0       0.0       0.1       0.1       0.0

                    306       307       308       309       310       311   
                  23.62576  32.38066  32.61215  34.65568  34.72870  34.97788
                   0.00000   0.00000   0.00000   0.00000   0.00000   0.00000
                  --------  --------  --------  --------  --------  --------
 0 C  s               1.4       0.0       0.0       0.0       0.0       0.0
 1 C  s               1.5       0.0       0.0       0.0       0.0       0.0
 2 C  s              17.1       0.0       0.1       0.0       0.0       0.0
 2 C  py              0.1       0.0       0.0       0.0       0.0       0.0
 3 O  s               0.2       0.0       0.0       0.0       0.0       0.0
 3 O  py              0.1       0.0       0.0       0.0       0.0       0.0
 4 N  s               0.5      29.0      70.5       0.0       0.0       0.0
 4 N  py              0.1       0.0       0.0       0.0       0.0       0.0
 4 N  dxy             0.2       0.0       0.0       0.0       0.0       0.0
 5 C  s              75.5       0.0       0.1       0.0       0.0       0.0
 5 C  px              0.1       0.0       0.0       0.0       0.0       0.0
 5 C  dz2             0.2       0.0       0.0       0.0       0.0       0.0
 6 O  s               0.8       0.0       0.0       0.0       0.0       0.0
 6 O  px              0.6       0.0       0.0       0.0       0.0       0.0
 7 N  s               0.4      70.7      28.8       0.0       0.0       0.0
 7 N  py              0.2       0.0       0.0       0.0       0.0       0.0
 7 N  dxy             0.2       0.0       0.0       0.0       0.0       0.0
 8 I  s               0.0       0.0       0.0       0.0       0.0       0.2
 8 I  pz              0.0       0.0       0.0     100.0       0.0       0.0
 8 I  px              0.0       0.0       0.0       0.0       0.0      99.5
 8 I  py              0.0       0.0       0.0       0.0      99.9       0.0

                    312       313       314       315   
                  43.00925  43.93947  43.99152 118.38694
                   0.00000   0.00000   0.00000   0.00000
                  --------  --------  --------  --------
 3 O  s               0.0       5.4      94.5       0.0
 6 O  s               0.0      94.5       5.3       0.0
 8 I  s              99.9       0.0       0.0     100.0


                      *****************************
                      * MAYER POPULATION ANALYSIS *
                      *****************************

  NA   - Mulliken gross atomic population
  ZA   - Total nuclear charge
  QA   - Mulliken gross atomic charge
  VA   - Mayer's total valence
  BVA  - Mayer's bonded valence
  FA   - Mayer's free valence

  ATOM       NA         ZA         QA         VA         BVA        FA
  0 C      6.0302     6.0000    -0.0302     3.9498     3.9498    -0.0000
  1 C      6.1265     6.0000    -0.1265     3.8270     3.8270     0.0000
  2 C      5.8099     6.0000     0.1901     4.3780     4.3780     0.0000
  3 O      8.3087     8.0000    -0.3087     2.2365     2.2365    -0.0000
  4 N      7.2186     7.0000    -0.2186     3.1145     3.1145    -0.0000
  5 C      5.7036     6.0000     0.2964     4.4976     4.4976     0.0000
  6 O      8.3362     8.0000    -0.3362     2.2004     2.2004    -0.0000
  7 N      7.2209     7.0000    -0.2209     3.1932     3.1932    -0.0000
  8 I     24.9223    25.0000     0.0777     1.1979     1.1979     0.0000
  9 H      0.8297     1.0000     0.1703     0.9745     0.9745     0.0000
 10 H      0.7457     1.0000     0.2543     0.9566     0.9566     0.0000
 11 H      0.7478     1.0000     0.2522     0.9484     0.9484    -0.0000

  Mayer bond orders larger than 0.100000
B(  0-C ,  1-C ) :   1.7066 B(  0-C ,  7-N ) :   1.1603 B(  0-C ,  9-H ) :   0.9258 
B(  1-C ,  2-C ) :   1.0123 B(  1-C ,  8-I ) :   1.1398 B(  2-C ,  3-O ) :   2.1738 
B(  2-C ,  4-N ) :   1.1115 B(  4-N ,  5-C ) :   1.1526 B(  4-N , 10-H ) :   0.8901 
B(  5-C ,  6-O ) :   2.1413 B(  5-C ,  7-N ) :   1.0981 B(  7-N , 11-H ) :   0.9056 


-------
TIMINGS
-------

Total SCF time: 0 days 0 hours 1 min 44 sec 

Total time                  ....     104.855 sec
Sum of individual times     ....     102.957 sec  ( 98.2%)

SCF preparation             ....       0.052 sec  (  0.0%)
Fock matrix formation       ....     102.446 sec  ( 97.7%)
  Startup                   ....       0.004 sec  (  0.0% of F)
  Split-RI-J                ....       3.703 sec  (  3.6% of F)
  Chain of spheres X        ....      92.266 sec  ( 90.1% of F)
  XC integration            ....       8.312 sec  (  8.1% of F)
    XC Preparation          ....       0.000 sec  (  0.0% of XC)
    Basis function eval.    ....       1.945 sec  ( 23.4% of XC)
    Density eval.           ....       1.701 sec  ( 20.5% of XC)
    XC-Functional eval.     ....       2.186 sec  ( 26.3% of XC)
    XC-Potential eval.      ....       2.384 sec  ( 28.7% of XC)
Diagonalization             ....       0.000 sec  (  0.0%)
Density matrix formation    ....       0.018 sec  (  0.0%)
Total Energy calculation    ....       0.004 sec  (  0.0%)
Population analysis         ....       0.150 sec  (  0.1%)
Orbital Transformation      ....       0.025 sec  (  0.0%)
Orbital Orthonormalization  ....       0.000 sec  (  0.0%)
DIIS solution               ....       0.086 sec  (  0.1%)
  MO trafo                  ....       0.000 sec  (  0.0 % of DIIS)
  Orb grad                  ....       0.000 sec  (  0.0 % of DIIS)
  Energy W gradient         ....       0.000 sec  (  0.0 % of DIIS)
  DIIS error                ....       0.012 sec  ( 14.0 % of DIIS)
  DIIS work                 ....       0.061 sec  ( 70.8 % of DIIS)
  Form Q                    ....       0.000 sec  (  0.0 % of DIIS)
  Form QpQm                 ....       0.000 sec  (  0.0 % of DIIS)
  Exp/Cayley                ....       0.000 sec  (  0.0 % of DIIS)
  Orb update                ....       0.000 sec  (  0.0 % of DIIS)
  Wake-sleep                ....       0.001 sec  (  0.7 % of DIIS)
SOSCF solution              ....       0.058 sec  (  0.1%)
  MO trafo                  ....       0.029 sec  ( 50.4 % of SOSCF)
  Orb grad                  ....       0.000 sec  (  0.7 % of SOSCF)
  Rot update                ....       0.002 sec  (  3.5 % of SOSCF)
  Step                      ....       0.026 sec  ( 45.2 % of SOSCF)
Grid generation             ....       0.118 sec  (  0.1%)
Finished LeanSCF after 104.9 sec

Maximum memory used throughout the entire LEANSCF-calculation: 42.6 MB
NOTIFICATION: Different basis set in ORCA and otool_gcp:
ORCA: 316  gCP: 314 
If you are NOT using ECPs, check your basis set inputs!
------------------   -----------------
gCP correction             0.008785324
------------------   -----------------

-------------------------   --------------------
FINAL SINGLE POINT ENERGY      -711.944884624301
-------------------------   --------------------


------------------------------------------------------------------------------
                              ORCA PROPERTY CALCULATIONS
------------------------------------------------------------------------------

GBWName                                 ... sp.gbw
Number of atoms                         ...     12
Number of basis functions               ...    316
Max core memory                         ...   1024 MB

Electric properties:
Dipole moment                           ... YES
Quadrupole moment                       ...  NO
Static polarizability (Dipole/Dipole)   ...  NO
Static polarizability (Dipole/Quad.)    ...  NO
Static polarizability (Quad./Quad.)     ...  NO
Static polarizability (Velocity)        ...  NO

Atomic electric properties:
Dipole moment                           ...  NO
Quadrupole moment                       ...  NO
Static polarizability                   ...  NO

Choice of electric origin               ... Center of mass
Position of electric origin             ...    -0.015157     0.034476     0.000241

General magnetic properties:
Magnetizability                         ...  NO

EPR properties:
g-Tensor (aka g-matrix)                 ...  NO
Zero-Field splitting spin-orbit         ...  NO
Zero-field splitting spin-spin          ...  NO
Hyperfine couplings                     ...  NO (   0 nuclei)
Quadrupole couplings                    ...  NO (   0 nuclei)
Contact density                         ...  NO (   0 nuclei)

NMR properties:
Chemical shifts                         ...  NO (   0 nuclei)
Spin-rotation constants                 ...  NO (   0 nuclei)
Spin-spin couplings                     ...  NO (   0 nuclei,    0 pairs)

Choice of magnetic origin               ... GIAO
Position of magnetic origin             ...     0.000000     0.000000     0.000000

Properties with geometric perturbations:
SCF Hessian                             ...  NO
IR spectrum                             ...  NO
VCD spectrum                            ...  NO
X-ray spectroscopy properties:
SCF XES/XAS/RIXS spectra                ...  NO


-------------
DIPOLE MOMENT
-------------

Method             : SCF
Type of density    : Electron Density
Multiplicity       :   1
Irrep              :   0
Energy             :  -711.9536699480013340 Eh
Relativity type    : 
Basis              : AO
                                X                 Y                 Z
Electronic contribution:   -132.641052290       8.990757012       0.010098344
Nuclear contribution   :    132.582662651      -7.427302807      -0.009956752
                        -----------------------------------------
Total Dipole Moment    :     -0.058389639       1.563454204       0.000141592
                        -----------------------------------------
Magnitude (a.u.)       :      1.564544157
Magnitude (Debye)      :      3.976755209



--------------------
Rotational spectrum 
--------------------
 
Rotational constants in cm-1:             0.098789             0.016298             0.013990 
Rotational constants in MHz :          2961.623957           488.588083           419.398622 

Dipole components along the rotational axes: 
x,y,z [a.u.] :     0.074349     1.562777    -0.000009 
x,y,z [Debye]:     0.188981     3.972262    -0.000024 

 

Dipole moment calculation done in   0.0 sec 

Maximum memory used throughout the entire PROP-calculation: 28.8 MB

--------------------------------
SUGGESTED CITATIONS FOR THIS RUN
--------------------------------

Below you find a list of papers that are relevant to this ORCA run
We neither can nor want to force you to cite these papers, but we appreciate if you do
You receive ORCA, which is the product of decades of hard work by many enthusiastic individuals, for free
The only thing we kindly ask in return is that you cite our papers,
We deeply appreciate it, if you show your appreciation for ORCA by not just citing the generic ORCA reference.

Please note that relegating all ORCA citations to the supporting information does *not* help us.
SI sections are not indexed - citations you put there will not count into any citation statistics
But we need these citations in order to attract the funding resources that allow us to do what we are doing

Therefore, if you are a happy ORCA user, please consider citing a few of the papers listed below in the main body of your paper

In addition to the list printed below, the program has created the file sp.bibtex that contains the list in bibtex format
You can import this file easily into all common literature databanks and citation aid programs


List of essential papers. We consider these as the minimum necessary citations

  1. Neese,F.
     Software update: the ORCA program system, version 5.0
     WIRES Comput. Molec. Sci., 2022 12(1)e1606
     doi.org/10.1002/wcms.1606

List of papers to cite with high priority. The work reported in these papers was absolutely
necessary for this run to complete.
Our perspective: the developers of density functionals and basis sets usually get cited in chemistry papers
Good! But without the algorithms to do something with them, the functionals or basis sets would not do anything.
Hence, in our opinion, the algorithm design and method developments papers are equally worthy of getting cited

  1. Neese,F.
     An improvement of the resolution of the identity approximation for the formation of the Coulomb matrix
     J. Comp. Chem., 2003 24(14)1740-1747
     doi.org/10.1002/jcc.10318
  2. Neese,F.; Wennmohs,F.; Hansen,A.; Becker,U.
     Efficient, approximate and parallel Hartree-Fock and hybrid DFT calculations. A 'chain-of-spheres' algorithm for the Hartree-Fock exchange
     Chem. Phys., 2009 356(1-3)98-109
     doi.org/10.1016/j.chemphys.2008.10.036
  3. Helmich-Paris,B.; de Souza,B.; Neese,F.; Izsák,R.
     An improved chain of spheres for exchange algorithm
     J. Chem. Phys., 2021 155 104109
     doi.org/doi: 10.1063/5.0058766.
  4. Neese,F.
     The SHARK Integral Generation and Digestion System
     J. Comp. Chem., 2022  1-16
     doi.org/10.1002/jcc.26942

List of suggested additional citations. These are papers that are important in the 'surrounding' of 
of this run, or papers that preceded the highly important papers. If you like your results we are grateful for a citation.

  1. Izsak,R.; Neese,F.
     An overlap fitted chain of spheres exchange method
     J. Chem. Phys., 2011 135 144105
     doi.org/10.1063/1.3646921
  2. Izsak,R.; Hansen,A.; Neese,F.
     The resolution of identity and chain of spheres approximations for the LPNO-CCSD singles Fock term
     Molec. Phys., 2012 110 2413-2417
     doi.org/10.1080/00268976.2012.687466
  3. Neese,F.
     The ORCA program system
     WIRES Comput. Molec. Sci., 2012 2(1)73-78
     doi.org/10.1002/wcms.81
  4. Izsak,R.; Neese,F.; Klopper,W.
     Robust fitting techniques in the chain of spheres approximation to the Fock exchange: The role of the complementary space
     J. Chem. Phys., 2013 139 
     doi.org/10.1063/1.4819264
  5. Neese,F.
     Software update: the ORCA program system, version 4.0
     WIRES Comput. Molec. Sci., 2018 8(1)1-6
     doi.org/10.1002/wcms.1327
  6. Neese,F.; Wennmohs,F.; Becker,U.; Riplinger,C.
     The ORCA quantum chemistry program package
     J. Chem. Phys., 2020 152 Art. No. L224108
     doi.org/10.1063/5.0004608

List of optional additional citations

  1. Neese,F.
     Approximate second-order SCF convergence for spin unrestricted wavefunctions
     Chem. Phys. Lett., 2000 325(1-3)93-98
     doi.org/10.1016/s0009-2614(00)00662-x

Timings for individual modules:

Sum of individual times          ...      106.386 sec (=   1.773 min)
Startup calculation              ...        1.391 sec (=   0.023 min)   1.3 %
SCF iterations                   ...      104.952 sec (=   1.749 min)  98.7 %
Property calculations            ...        0.043 sec (=   0.001 min)   0.0 %
                             ****ORCA TERMINATED NORMALLY****
TOTAL RUN TIME: 0 days 0 hours 1 minutes 46 seconds 433 msec
