      -----------------------------------------------------------      
     |                   =====================                   |     
     |                           x T B                           |     
     |                   =====================                   |     
     |                         S. Grimme                         |     
     |          Mulliken Center for Theoretical Chemistry        |     
     |                    University of Bonn                     |     
      -----------------------------------------------------------      

   * xtb version 6.7.1 (41059b4) compiled by 'michael@archlinux' on 2025-03-24

   xtb is free software: you can redistribute it and/or modify it under
   the terms of the GNU Lesser General Public License as published by
   the Free Software Foundation, either version 3 of the License, or
   (at your option) any later version.
   
   xtb is distributed in the hope that it will be useful,
   but WITHOUT ANY WARRANTY; without even the implied warranty of
   MERCHANTABILITY or FITNESS FOR A PARTICULAR PURPOSE.  See the
   GNU Lesser General Public License for more details.
   
   Cite this work as:
   * C. Bannwarth, E. Caldeweyher, S. Ehlert, A. Hansen, P. Pracht,
     J. Seibert, S. Spicher, S. Grimme, WIREs Comput. Mol. Sci., 2020, 11,
     e01493. DOI: 10.1002/wcms.1493
   
   for GFN2-xTB:
   * C. Bannwarth, S. Ehlert and S. Grimme., J. Chem. Theory Comput., 2019,
     15, 1652-1671. DOI: 10.1021/acs.jctc.8b01176
   for GFN1-xTB:
   * S. Grimme, C. Bannwarth, P. Shushkov, J. Chem. Theory Comput., 2017,
     13, 1989-2009. DOI: 10.1021/acs.jctc.7b00118
   for GFN0-xTB:
   * P. Pracht, E. Caldeweyher, S. Ehlert, S. Grimme, ChemRxiv, 2019, preprint.
     DOI: 10.26434/chemrxiv.8326202.v1
   for GFN-FF:
   * S. Spicher and S. Grimme, Angew. Chem. Int. Ed., 2020, 59, 15665-15673.
     DOI: 10.1002/anie.202004239
   
   for ALPB and GBSA implicit solvation:
   * S. Ehlert, M. Stahn, S. Spicher, S. Grimme, J. Chem. Theory Comput.,
     2021, 17, 4250-4261. DOI: 10.1021/acs.jctc.1c00471
   
   for ddCOSMO and CPCM-X implicit solvation:
   * M. Stahn, S. Ehlert, S. Grimme, J. Phys. Chem. A,
     2023, XX, XXXX-XXXX. DOI: 10.1021/acs.jpca.3c04382
   
   for DFT-D4:
   * E. Caldeweyher, C. Bannwarth and S. Grimme, J. Chem. Phys., 2017,
     147, 034112. DOI: 10.1063/1.4993215
   * E. Caldeweyher, S. Ehlert, A. Hansen, H. Neugebauer, S. Spicher,
     C. Bannwarth and S. Grimme, J. Chem. Phys., 2019, 150, 154122.
     DOI: 10.1063/1.5090222
   * E. Caldeweyher, J.-M. Mewes, S. Ehlert and S. Grimme, Phys. Chem. Chem. Phys.
     2020, 22, 8499-8512. DOI: 10.1039/D0CP00502A
   
   for sTDA-xTB:
   * S. Grimme and C. Bannwarth, J. Chem. Phys., 2016, 145, 054103.
     DOI: 10.1063/1.4959605
   
   in the mass-spec context:
   * V. Asgeirsson, C. Bauer and S. Grimme, Chem. Sci., 2017, 8, 4879.
     DOI: 10.1039/c7sc00601b
   * J. Koopman and S. Grimme, ACS Omega 2019, 4, 12, 15120-15133.
     DOI: 10.1021/acsomega.9b02011
   
   for metadynamics refer to:
   * S. Grimme, J. Chem. Theory Comput., 2019, 155, 2847-2862
     DOI: 10.1021/acs.jctc.9b00143
   
   for SPH calculations refer to:
   * S. Spicher and S. Grimme, J. Chem. Theory Comput., 2021, 17, 1701-1714
     DOI: 10.1021/acs.jctc.0c01306
   
   for ONIOM refer to:
   * C. Plett, A. Katbashev, S. Ehlert, S. Grimme, M. Bursch,
     Phys. Chem. Chem. Phys., 2023, 25, 17860-17868. DOI: 10.1039/D3CP02178E
   
   for DIPRO refer to:
   * J. Kohn, N. Gildemeister, S. Grimme, D. Fazzi, A. Hansen,
     J. Chem. Phys., 2023, just accepted.
   
   for PTB refer to:
   * S. Grimme, M. Mueller, A. Hansen, J. Chem. Phys., 2023, 158, 124111.
     DOI: 10.1063/5.0137838
   
   with help from (in alphabetical order)
   P. Atkinson, C. Bannwarth, F. Bohle, G. Brandenburg, E. Caldeweyher
   M. Checinski, S. Dohm, S. Ehlert, S. Ehrlich, I. Gerasimov, C. Hölzer
   A. Katbashev, J. Kohn, J. Koopman, C. Lavigne, S. Lehtola, F. März, M. Müller,
   F. Musil, H. Neugebauer, J. Pisarek, C. Plett, P. Pracht, F. Pultar,
   J. Seibert, P. Shushkov, S. Spicher, M. Stahn, M. Steiner, T. Strunk,
   J. Stückrath, T. Rose, and J. Unsleber
   
 * started run on 2025/04/09 at 00:41:09.158     
   ID    Z sym.   atoms
    1    6 C      1-7
    2   17 Cl     8
    3    1 H      9-15

           -------------------------------------------------
          |                Calculation Setup                |
           -------------------------------------------------

          program call               : /usr/bin/xtb xtb_opt.coord --opt normal --orca -I xtb_opt-xcontrol-inp
          coordinate file            : xtb_opt.coord
          omp threads                :                    16

           -------------------------------------------------
          |                   Orca driver                   |
           -------------------------------------------------
orca executable           : /home/michael/Documents/CHEM4561/orca_avx2/orca
orca input file           : xtb_opt.inp
orca input line           : 
orca parallel             : true
orca number of threads    : 16
                         * ORCA takes the control...
  ------------------------------------------------------------------------

                                 *****************
                                 * O   R   C   A *
                                 *****************

                                            #,                                       
                                            ###                                      
                                            ####                                     
                                            #####                                    
                                            ######                                   
                                           ########,                                 
                                     ,,################,,,,,                         
                               ,,#################################,,                 
                          ,,##########################################,,             
                       ,#########################################, ''#####,          
                    ,#############################################,,   '####,        
                  ,##################################################,,,,####,       
                ,###########''''           ''''###############################       
              ,#####''   ,,,,##########,,,,          '''####'''          '####       
            ,##' ,,,,###########################,,,                        '##       
           ' ,,###''''                  '''############,,,                           
         ,,##''                                '''############,,,,        ,,,,,,###''
      ,#''                                            '''#######################'''  
     '                                                          ''''####''''         
             ,#######,   #######,   ,#######,      ##                                
            ,#'     '#,  ##    ##  ,#'     '#,    #''#        ,####,   ,####,        
            ##       ##  ##   ,#'  ##            #'  '#       #'       #'  '#        
            ##       ##  #######   ##           ,######,      #####,   #    #        
            '#,     ,#'  ##    ##  '#,     ,#' ,#      #,     #,   #   #,  ,#        
             '#######'   ##     ##  '#######'  #'      '#     '####' # '####'        



                #########################################################
                #                        -***-                          #
                #          Department of theory and spectroscopy        #
                #                                                       #
                #                      Frank Neese                      #
                #                                                       #
                #     Directorship, Architecture, Infrastructure        #
                #                    SHARK, DRIVERS                     #
                #        Core code/Algorithms in most modules           #
                #                                                       #
                #        Max Planck Institute fuer Kohlenforschung      #
                #                Kaiser Wilhelm Platz 1                 #
                #                 D-45470 Muelheim/Ruhr                 #
                #                      Germany                          #
                #                                                       #
                #                  All rights reserved                  #
                #                        -***-                          #
                #########################################################


                         Program Version 6.0.1  -  RELEASE   -


 With contributions from (in alphabetic order):
[Max-Planck-Institut fuer Kohlenforschung]                               
  Daniel Aravena         : Magnetic Suceptibility                        
  Michael Atanasov       : Ab Initio Ligand Field Theory (pilot matlab implementation)
  Alexander A. Auer      : GIAO ZORA, VPT2 properties, NMR spectrum      
  Ute Becker             : All parallelization in ORCA, NUMFREQ, NUMCALC 
  Giovanni Bistoni       : ED, misc. LED, open-shell LED, HFLD           
  Martin Brehm           : Molecular dynamics                            
  Dmytro Bykov           : pre 5.0 version of the SCF Hessian            
  Marcos Casanova-Páez   : Triplet and SCS-CIS(D). UHF-(DLPNO)-IP/EA/STEOM-CCSD. UHF-CVS-IP/STEOM-CCSD   
  Vijay G. Chilkuri      : MRCI spin determinant printing, contributions to CSF-ICE 
  Pauline Colinet        : FMM embedding                                 
  Dipayan Datta          : RHF DLPNO-CCSD density                        
  Achintya Kumar Dutta   : EOM-CC, STEOM-CC                              
  Nicolas Foglia         : Exact transition moments, OPA infrastructure, MCD improvements    
  Dmitry Ganyushin       : Spin-Orbit,Spin-Spin,Magnetic field MRCI      
  Miquel Garcia-Rates    : C-PCM and meta-GGA Hessian, CCSD/C-PCM, Gaussian charge scheme 
  Tiago L. C. Gouveia    : GS-ROHF, GS-ROCIS                             
  Yang Guo               : DLPNO-NEVPT2, F12-NEVPT2, CIM, IAO-localization        
  Andreas Hansen         : Spin unrestricted coupled pair/coupled cluster methods 
  Ingolf Harden          : AUTO-CI MPn and infrastructure                
  Benjamin Helmich-Paris : MC-RPA, TRAH-(SCF,CASSCF), AVAS, COSX integrals, SCF dyn. polar. 
  Lee Huntington         : MR-EOM, pCC                                   
  Robert Izsak           : Overlap fitted RIJCOSX, COSX-SCS-MP3, EOM     
  Riya Kayal             : Wick's Theorem for AUTO-CI, AUTO-CI UHF-CCSDT 
  Emily Kempfer          : AUTO-CI, RHF CISDT and CCSDT                  
  Christian Kollmar      : KDIIS, OOCD, Brueckner-CCSD(T), CCSD density, CASPT2, CASPT2-K, improved NEVPT2 
  Axel Koslowski         : Symmetry handling                             
  Simone Kossmann        : meta-GGA functionals, TD-DFT gradient, OOMP2, (MP2 Hessian; deprecated post 5.0) 
  Lucas Lang             : DCDCAS                                        
  Marvin Lechner         : AUTO-CI (C++ implementation), FIC-MRCC        
  Spencer Leger          : CASSCF response                               
  Dagmar Lenk            : GEPOL surface, SMD, ORCA-2-JSON               
  Dimitrios Liakos       : Extrapolation schemes; Compound Job, initial MDCI parallelization 
  Dimitrios Manganas     : Further ROCIS development; embedding schemes. LFT, Crystal Embedding 
  Dimitrios Pantazis     : SARC Basis sets                               
  Anastasios Papadopoulos: AUTO-CI, single reference methods and gradients 
  Taras Petrenko         : pre 6.0 DFT Hessian and TD-DFT gradient, (ASA, deprecated), ECA, 1-Electron XAS/XES, NRVS 
  Peter Pinski           : DLPNO-MP2, DLPNO-MP2 Gradient                 
  Christoph Reimann      : Effective Core Potentials                     
  Marius Retegan         : Local ZFS, SOC                                
  Christoph Riplinger    : Optimizer, TS searches, QM/MM, DLPNO-CCSD(T), (RO)-DLPNO pert. Triples 
  Michael Roemelt        : Original ROCIS implementation                 
  Masaaki Saitow         : Open-shell DLPNO-CCSD energy and density      
  Barbara Sandhoefer     : DKH picture change effects                    
  Kantharuban Sivalingam : CASSCF convergence/infrastructure, NEVPT2 and variants, FIC-MRCI 
  Bernardo de Souza      : ESD, SOC TD-DFT                               
  Georgi L. Stoychev     : AutoAux, RI-MP2 NMR, DLPNO-MP2 response, X2C  
  Van Anh Tran           : RI-MP2 g-tensors                              
  Willem Van den Heuvel  : Paramagnetic NMR                              
  Zikuan Wang            : NOTCH, Electric field optimization            
  Frank Wennmohs         : Technical directorship and infrastructure     
  Hang Xu                : AUTO-CI-Response properties                   
                                                                         
[FACCTs GmbH]                                                            
  Markus Bursch, Miquel Garcia-Rates, Christoph Riplinger, Bernardo de Souza, Georgi L. Stoychev 
                                                                 
  APM, Basis sets (HGBS, AHGBS, def-TZVP (Ac-Lr), def2-XVPD (La-Lu)), CI-OPT, improved COSX, DLPNO-Multilevel,           
  DOCKER, DRACO, updates on ESD, GOAT, IRC, LR-CPCM, MBIS, meta-GGA TD-DFT gradient, ML-optimized integration grids, 
  MM, NACMEs, nearIR, NEB, NEB-TS, NL-DFT gradient (VV10), 2- and 3-layer-ONIOM, interface openCOSMO-RS, QMMM,   
  Crystal-QMMM, SF, symmetry and pop. for TD-DFT, r2SCAN hybrids, SOLVATOR                                   
                                                                         
[Other institutions]                                                     
  V. Asgeirsson          : NEB                                           
  Christoph Bannwarth    : sTDA-DFT, sTD-DFT, PBEh-3c, B97-3c, D3        
  Sebastian Ehlert       : rSCAN, r2SCAN, r2SCAN-3c, D4, dhf basis sets  
  Marvin Friede          : D4 for Fr, Ra, Ac-Lr                          
  Lars Goerigk           : TD-DFT with DH, B97 family of functionals     
  Stefan Grimme          : VdW corrections, initial TS optimization, DFT functionals, gCP, sTDA/sTD-DF 
  Waldemar Hujo          : DFT-NL                                        
  H. Jonsson             : NEB                                           
  Holger Kruse           : gCP                                           
  Marcel Mueller         : wB97X-3c, vDZP basis set                      
  Hagen Neugebauer       : wr2SCAN                                       
  Tobias Risthaus        : range-separated hybrid DFT                    
  Lukas Wittmann         : regularized MP2, r2SCAN double-hybrids, wr2SCAN        
                                                                         
We gratefully acknowledge several colleagues who have allowed us to      
interface, adapt or use parts of their codes:                            
  Ed Valeev, F. Pavosevic, A. Kumar             : LibInt (2-el integral package), F12 methods 
  Garnet Chan, S. Sharma, J. Yang, R. Olivares  : DMRG                   
  Ulf Ekstrom                                   : XCFun DFT Library      
  Mihaly Kallay                                 : mrcc  (arbitrary order and MRCC methods)
  Frank Weinhold                                : gennbo (NPA and NBO analysis)           
  Simon Mueller                                 : openCOSMO-RS                            
  Christopher J. Cramer and Donald G. Truhlar   : smd solvation model                     
  S Lehtola, MJT Oliveira, MAL Marques          : LibXC Library                           
  Liviu Ungur et al                             : ANISO software                          


 Your calculation uses the libint2 library for the computation of 2-el integrals
 For citations please refer to: http://libint.valeyev.net

 Your ORCA version has been built with support for libXC version: 6.2.2
 For citations please refer to: https://libxc.gitlab.io

 This ORCA versions uses:
   CBLAS   interface :  Fast vector & matrix operations
   LAPACKE interface :  Fast linear algebra routines
   SCALAPACK package :  Parallel linear algebra routines
   Shared memory     :  Shared parallel matrices
   BLAS/LAPACK       :  OpenBLAS 0.3.27  USE64BITINT DYNAMIC_ARCH NO_AFFINITY Zen SINGLE_THREADED
        Core in use  :  Zen
   Copyright (c) 2011-2014, The OpenBLAS Project




***************************************
The coordinates will be read from file: xtb_opt.xyz
***************************************


Your calculation utilizes the geometrical counterpoise correction gCP
Please cite in your paper:
H.Kruse, S. Grimme J.Chem.Phys., 136, (2012), 154101 
   

Your calculation utilizes the atom-pairwise dispersion correction
based on EEQ partial charges (D4)


================================================================================

----- Orbital basis set information -----
Your calculation utilizes the basis: def2-mTZVPP
   Stefan Grimme, Andreas Hansen, Sebastian Ehlert, and Jan-Michael Mewes 
   J. Chem. Phys. 154, 064103 (2021). DOI: 10.1063/5.0040021

----- AuxJ basis set information -----
Your calculation utilizes the auxiliary basis: def2/J
   F. Weigend, Phys. Chem. Chem. Phys. 8, 1057 (2006).

================================================================================
                                        WARNINGS
                       Please study these warnings very carefully!
================================================================================

WARNING: Old DensityContainer found on disk!
         Will remove this file - 
         If you want to keep old densities, please start your calculation with a different basename. 



WARNING: SCAN, rSCAN, or r2SCAN functional requested.
  ===> : libXC variant has now been activated.



================================================================================
                                       INPUT FILE
================================================================================
NAME = xtb_opt.inp
|  1> ! r2scan-3c def2/J RI DEFGRID2 scfconv7 ENGRAD tightSCF miniprint
|  2> * xyzfile 0 1 xtb_opt.xyz
|  3> 
|  4>                          ****END OF INPUT****
================================================================================

                     *******************************
                     * Energy+Gradient Calculation *
                     *******************************

---------------------------------
CARTESIAN COORDINATES (ANGSTROEM)
---------------------------------
  C     -0.676341   -2.169744   -0.000001
  C      0.213237   -0.967688    0.000030
  C      1.596880   -1.087446   -0.000049
  C      2.416997    0.027205    0.000037
  C      1.861934    1.294694   -0.000005
  C      0.486112    1.443415    0.000022
  C     -0.320536    0.318765    0.000106
  Cl    -2.041264    0.528210   -0.000019
  H     -1.320130   -2.162481   -0.878843
  H     -0.089975   -3.084578    0.000452
  H     -1.320780   -2.162031    0.878244
  H      2.035104   -2.074915   -0.000169
  H      3.489639   -0.094654   -0.000078
  H      2.494870    2.168913   -0.000311
  H      0.037358    2.424637   -0.000274

----------------------------
CARTESIAN COORDINATES (A.U.)
----------------------------
  NO LB      ZA    FRAG     MASS         X           Y           Z
   0 C     6.0000    0    12.011   -1.278100   -4.100222   -0.000003
   1 C     6.0000    0    12.011    0.402959   -1.828665    0.000057
   2 C     6.0000    0    12.011    3.017666   -2.054976   -0.000093
   3 C     6.0000    0    12.011    4.567463    0.051410    0.000070
   4 C     6.0000    0    12.011    3.518546    2.446617   -0.000009
   5 C     6.0000    0    12.011    0.918619    2.727659    0.000041
   6 C     6.0000    0    12.011   -0.605726    0.602379    0.000200
   7 Cl   17.0000    0    35.453   -3.857429    0.998172   -0.000037
   8 H     1.0000    0     1.008   -2.494684   -4.086497   -1.660773
   9 H     1.0000    0     1.008   -0.170028   -5.829007    0.000855
  10 H     1.0000    0     1.008   -2.495912   -4.085647    1.659641
  11 H     1.0000    0     1.008    3.845790   -3.921020   -0.000319
  12 H     1.0000    0     1.008    6.594462   -0.178870   -0.000147
  13 H     1.0000    0     1.008    4.714621    4.098652   -0.000587
  14 H     1.0000    0     1.008    0.070596    4.581900   -0.000517

------------------------------------------------------------------------------
                   ___                                                        
                  /   \      - P O W E R E D   B Y -                         
                 /     \                                                     
                 |  |  |   _    _      __       _____    __    __             
                 |  |  |  | |  | |    /  \     |  _  \  |  |  /  |          
                  \  \/   | |  | |   /    \    | | | |  |  | /  /          
                 / \  \   | |__| |  /  /\  \   | |_| |  |  |/  /          
                |  |  |   |  __  | /  /__\  \  |    /   |      \           
                |  |  |   | |  | | |   __   |  |    \   |  |\   \          
                \     /   | |  | | |  |  |  |  | |\  \  |  | \   \       
                 \___/    |_|  |_| |__|  |__|  |_| \__\ |__|  \__/        
                                                                              
                      - O R C A' S   B I G   F R I E N D -                    
                                      &                                       
                       - I N T E G R A L  F E E D E R -                       
                                                                              
 v1 FN, 2020, v2 2021, v3 2022-2024                                           
------------------------------------------------------------------------------


----------------------
SHARK INTEGRAL PACKAGE
----------------------

Number of atoms                             ...     15
Number of basis functions                   ...    195
Number of shells                            ...     95
Maximum angular momentum                    ...      2
Integral batch strategy                     ... SHARK/LIBINT Hybrid
RI-J (if used) integral strategy            ... SPLIT-RIJ (Revised 2003 algorithm where possible)
Printlevel                                  ...      1
Contraction scheme used                     ... SEGMENTED contraction
Prescreening option                         ... SCHWARTZ
   Thresh                                   ... 3.000e-11
   Tcut                                     ... 1.000e-12
   Tpresel                                  ... 1.000e-12 
Coulomb Range Separation                    ... NOT USED
Exchange Range Separation                   ... NOT USED
Multipole approximations                    ... NOT USED
Finite Nucleus Model                        ... NOT USED
CABS basis                                  ... NOT available
Auxiliary Coulomb fitting basis             ... AVAILABLE
   # of basis functions in Aux-J            ...    471
   # of shells in Aux-J                     ...    157
   Maximum angular momentum in Aux-J        ...      4
Auxiliary J/K fitting basis                 ... NOT available
Auxiliary Correlation fitting basis         ... NOT available
Auxiliary 'external' fitting basis          ... NOT available

Checking pre-screening integrals            ... done (  0.0 sec) Dimension = 95
Check shell pair data                       ... done (  0.0 sec)
Shell pair information
Shell pair cut-off parameter TPreSel        ...   1.0e-12
Total number of shell pairs                 ...      4560
Shell pairs after pre-screening             ...      4171
Total number of primitive shell pairs       ...     17606
Primitive shell pairs kept                  ...     11437
          la=0 lb=0:   1312 shell pairs
          la=1 lb=0:   1585 shell pairs
          la=1 lb=1:    496 shell pairs
          la=2 lb=0:    457 shell pairs
          la=2 lb=1:    276 shell pairs
          la=2 lb=2:     45 shell pairs

Calculating one electron integrals          ... done (  0.0 sec)
Calculating RI/J V-Matrix + Cholesky decomp.... done (  0.0 sec)
Calculating Nuclear repulsion               ... done (  0.0 sec) ENN=    405.070187508792 Eh

Diagonalization of the overlap matrix:
Smallest eigenvalue                        ... 2.653e-05
Time for diagonalization                   ...    0.003 sec
Threshold for overlap eigenvalues          ... 1.000e-07
Number of eigenvalues below threshold      ... 0
Time for construction of square roots      ...    0.001 sec
Total time needed                          ...    0.004 sec

-------------------
DFT GRID GENERATION
-------------------

General Integration Accuracy     IntAcc      ... 4.388
Radial Grid Type                 RadialGrid  ... OptM3 with GC (2021)
Angular Grid (max. ang.)         AngularGrid ... 4 (Lebedev-302)
Angular grid pruning method      GridPruning ... 4 (adaptive)
Weight generation scheme         WeightScheme... mBecke (2022)
Basis function cutoff            BFCut       ... 1.0000e-11
Integration weight cutoff        WCut        ... 1.0000e-14
Partially contracted basis set               ... off
Rotationally invariant grid construction     ... off
Angular grids for H and He will be reduced by one unit

Total number of grid points                  ...    71877
Total number of batches                      ...     1130
Average number of points per batch           ...       63
Average number of grid points per atom       ...     4792
Initializing property integral containers    ... done (  0.0 sec)

SHARK setup successfully completed in   0.4 seconds

Maximum memory used throughout the entire STARTUP-calculation: 34.0 MB
Occupation numbers will be reassigned to an Aufbau configuration
             **** ENERGY FILE WAS UPDATED (xtb_opt.en.tmp) ****
Finished Guess after   0.0 sec
Maximum memory used throughout the entire GUESS-calculation: 14.3 MB
----------------------------------------D-I-I-S--------------------------------------------
Iteration    Energy (Eh)           Delta-E    RMSDP     MaxDP     DIISErr   Damp  Time(sec)
-------------------------------------------------------------------------------------------
               ***  Starting incremental Fock matrix formation  ***
                              *** Initializing SOSCF ***
---------------------------------------S-O-S-C-F--------------------------------------
Iteration    Energy (Eh)           Delta-E    RMSDP     MaxDP     MaxGrad    Time(sec)
--------------------------------------------------------------------------------------
    1    -731.0647742334867871     0.00e+00  1.46e-05  2.87e-04  4.72e-05     1.0
               *** Restarting incremental Fock matrix formation ***
    2    -731.0647742750861653    -4.16e-08  2.08e-05  4.41e-04  1.26e-04     1.0
    3    -731.0647732128502412     1.06e-06  1.45e-05  3.61e-04  2.52e-04     0.8
    4    -731.0647746240315428    -1.41e-06  6.34e-06  9.55e-05  4.64e-05     0.8
    5    -731.0647745337525976     9.03e-08  4.60e-06  8.11e-05  8.17e-05     0.8
                 **** Energy Check signals convergence ****

               *****************************************************
               *                     SUCCESS                       *
               *           SCF CONVERGED AFTER   5 CYCLES          *
               *****************************************************

             **** ENERGY FILE WAS UPDATED (xtb_opt.en.tmp) ****

----------------
TOTAL SCF ENERGY
----------------

Total Energy       :       -731.06477453375260 Eh          -19893.28387 eV

Components:
Nuclear Repulsion  :        405.07018750879178 Eh           11022.52018 eV
Electronic Energy  :      -1136.13496204254443 Eh          -30915.80405 eV
One Electron Energy:      -1803.42728178373727 Eh          -49073.75120 eV
Two Electron Energy:        667.29231974119273 Eh           18157.94715 eV

Virial components:
Potential Energy   :      -1460.00031103851779 Eh          -39728.62823 eV
Kinetic Energy     :        728.93553650476531 Eh           19835.34436 eV
Virial Ratio       :          2.00292102377008

DFT components:
N(Alpha)           :       32.999990172622 electrons
N(Beta)            :       32.999990172622 electrons
N(Total)           :       65.999980345244 electrons
E(X)               :      -66.517340177743 Eh       
E(C)               :       -2.232028584896 Eh       
E(XC)              :      -68.749368762640 Eh       

---------------
SCF CONVERGENCE
---------------

  Last Energy change         ...   -9.0279e-08  Tolerance :   1.0000e-07
  Last MAX-Density change    ...    8.1061e-05  Tolerance :   1.0000e-07
  Last RMS-Density change    ...    4.6033e-06  Tolerance :   5.0000e-09
  Last DIIS Error            ...    3.7161e-04  Tolerance :   1.0000e-07
  Last Orbital Gradient      ...    8.1727e-05  Tolerance :   1.0000e-04
  Last Orbital Rotation      ...    1.3889e-04  Tolerance :   1.0000e-04


----------------
ORBITAL ENERGIES
----------------

  NO   OCC          E(Eh)            E(eV) 
   0   2.0000    -101.218781     -2754.3031 
   1   2.0000     -10.096573      -274.7417 
   2   2.0000     -10.057256      -273.6719 
   3   2.0000     -10.046192      -273.3708 
   4   2.0000     -10.042828      -273.2792 
   5   2.0000     -10.042680      -273.2752 
   6   2.0000     -10.040622      -273.2192 
   7   2.0000     -10.033413      -273.0231 
   8   2.0000      -9.374893      -255.1038 
   9   2.0000      -7.120959      -193.7711 
  10   2.0000      -7.111314      -193.5087 
  11   2.0000      -7.110652      -193.4907 
  12   2.0000      -0.865630       -23.5550 
  13   2.0000      -0.806189       -21.9375 
  14   2.0000      -0.752852       -20.4861 
  15   2.0000      -0.706669       -19.2294 
  16   2.0000      -0.661786       -18.0081 
  17   2.0000      -0.583761       -15.8849 
  18   2.0000      -0.560417       -15.2497 
  19   2.0000      -0.487245       -13.2586 
  20   2.0000      -0.452187       -12.3046 
  21   2.0000      -0.432632       -11.7725 
  22   2.0000      -0.406146       -11.0518 
  23   2.0000      -0.403005       -10.9663 
  24   2.0000      -0.389718       -10.6048 
  25   2.0000      -0.366090        -9.9618 
  26   2.0000      -0.354363        -9.6427 
  27   2.0000      -0.329708        -8.9718 
  28   2.0000      -0.326174        -8.8756 
  29   2.0000      -0.312385        -8.5004 
  30   2.0000      -0.283546        -7.7157 
  31   2.0000      -0.240971        -6.5572 
  32   2.0000      -0.225965        -6.1488 
  33   0.0000      -0.041220        -1.1217 
  34   0.0000      -0.037004        -1.0069 
  35   0.0000       0.014984         0.4077 
  36   0.0000       0.086726         2.3599 
  37   0.0000       0.107963         2.9378 
  38   0.0000       0.109382         2.9764 
  39   0.0000       0.112413         3.0589 
  40   0.0000       0.139830         3.8050 
  41   0.0000       0.141180         3.8417 
  42   0.0000       0.149492         4.0679 
  43   0.0000       0.157769         4.2931 
*Only the first 10 virtual orbitals were printed.
Total SCF time: 0 days 0 hours 0 min 4 sec 
Finished LeanSCF after   4.5 sec

Maximum memory used throughout the entire LEANSCF-calculation: 21.7 MB


-------------------------------------------------------------------------------
                          DFT DISPERSION CORRECTION                            
                                                                               
                                DFTD4 V3.4.0                                   
-------------------------------------------------------------------------------
-------------------------   ----------------
Dispersion correction           -0.005286511
-------------------------   ----------------

------------------   -----------------
gCP correction             0.005607227
------------------   -----------------

-------------------------   --------------------
FINAL SINGLE POINT ENERGY      -731.064453818200
-------------------------   --------------------

------------------------------------------------------------------------------
                         ORCA SCF GRADIENT CALCULATION
------------------------------------------------------------------------------

Nuc. rep. gradient        (SHARK) ... done (  0.0 sec)
HCore & Overlap gradient  (SHARK) ... done (  0.1 sec)
Split-RIJ-J gradient      (SHARK) ... done (  0.8 sec)
XC gradient                       ... done (  2.8 sec)
Dispersion correction             ... done (  0.0 sec)

-------------------
DISPERSION GRADIENT
-------------------

   1   C   :   -0.000050149   -0.000089272   -0.000000004
   2   C   :   -0.000013901   -0.000038918    0.000000003
   3   C   :    0.000065936   -0.000046546   -0.000000000
   4   C   :    0.000099394    0.000013069    0.000000002
   5   C   :    0.000070640    0.000067634   -0.000000001
   6   C   :    0.000005270    0.000083479    0.000000001
   7   C   :   -0.000039155    0.000027211    0.000000005
   8   Cl  :   -0.000171779    0.000055537    0.000000003
   9   H   :   -0.000025048   -0.000033174   -0.000010007
  10   H   :   -0.000009572   -0.000045774    0.000000006
  11   H   :   -0.000025057   -0.000033161    0.000010001
  12   H   :    0.000031304   -0.000033109   -0.000000002
  13   H   :    0.000042907   -0.000000332   -0.000000000
  14   H   :    0.000027799    0.000031639   -0.000000003
  15   H   :   -0.000008590    0.000041718   -0.000000003

Difference to translation invariance:
           :    0.0000000000    0.0000000000    0.0000000000

Difference to rotation invariance:
           :   -0.0000000000   -0.0000000000   -0.0000000000

Norm of the Dispersion gradient    ...    0.0003058284
RMS gradient                       ...    0.0000455902
MAX gradient                       ...    0.0001717792
gCP correction                   ... done

------------------
CARTESIAN GRADIENT
------------------

   1   C   :   -0.002327085   -0.001504392    0.000044824
   2   C   :    0.005099952    0.005386037   -0.000005677
   3   C   :   -0.001766408    0.000005112   -0.000011967
   4   C   :   -0.003886156    0.000445321    0.000013969
   5   C   :   -0.001247783   -0.001474281    0.000007870
   6   C   :    0.001372149   -0.003647645    0.000010698
   7   C   :   -0.007155048   -0.000507590    0.000008684
   8   Cl  :    0.010910421   -0.002182175   -0.000002151
   9   H   :    0.002947382    0.001442809    0.002148928
  10   H   :   -0.001645323    0.002956096    0.000000334
  11   H   :    0.002981266    0.001442346   -0.002192321
  12   H   :   -0.001110909    0.003801283   -0.000002123
  13   H   :   -0.003829994    0.000472479   -0.000002052
  14   H   :   -0.002028510   -0.003345216   -0.000009880
  15   H   :    0.001686045   -0.003290184   -0.000009136

Difference to translation invariance:
           :   -0.0000000000    0.0000000000    0.0000000000

Difference to rotation invariance:
           :    0.0000005763    0.0000005229   -0.0003752672

Norm of the Cartesian gradient     ...    0.0194280024
RMS gradient                       ...    0.0028961556
MAX gradient                       ...    0.0109104214

-------
TIMINGS
-------

Total SCF gradient time     ....        3.810 sec

Densities                   ....       0.000 sec  (  0.0%)
One electron gradient       ....       0.129 sec  (  3.4%)
RI-J Coulomb gradient       ....       0.824 sec  ( 21.6%)
XC gradient                 ....       2.838 sec  ( 74.5%)

Maximum memory used throughout the entire SCFGRAD-calculation: 34.4 MB

------------------------------------------------------------------------------
                              ORCA PROPERTY CALCULATIONS
------------------------------------------------------------------------------

GBWName                                 ... xtb_opt.gbw
Number of atoms                         ...     15
Number of basis functions               ...    195
Max core memory                         ...   1024 MB

Electric properties:
Dipole moment                           ... YES
Quadrupole moment                       ...  NO
Static polarizability (Dipole/Dipole)   ...  NO
Static polarizability (Dipole/Quad.)    ...  NO
Static polarizability (Quad./Quad.)     ...  NO
Static polarizability (Velocity)        ...  NO

Atomic electric properties:
Dipole moment                           ...  NO
Quadrupole moment                       ...  NO
Static polarizability                   ...  NO

Choice of electric origin               ... Center of mass
Position of electric origin             ...     0.000008    -0.000007    -0.000000

General magnetic properties:
Magnetizability                         ...  NO

EPR properties:
g-Tensor (aka g-matrix)                 ...  NO
Zero-Field splitting spin-orbit         ...  NO
Zero-field splitting spin-spin          ...  NO
Hyperfine couplings                     ...  NO (   0 nuclei)
Quadrupole couplings                    ...  NO (   0 nuclei)
Contact density                         ...  NO (   0 nuclei)

NMR properties:
Chemical shifts                         ...  NO (   0 nuclei)
Spin-rotation constants                 ...  NO (   0 nuclei)
Spin-spin couplings                     ...  NO (   0 nuclei,    0 pairs)

Choice of magnetic origin               ... GIAO
Position of magnetic origin             ...     0.000000     0.000000     0.000000

Properties with geometric perturbations:
SCF Hessian                             ...  NO
IR spectrum                             ...  NO
VCD spectrum                            ...  NO
X-ray spectroscopy properties:
SCF XES/XAS/RIXS spectra                ...  NO


-------------
DIPOLE MOMENT
-------------

Method             : SCF
Type of density    : Electron Density
Multiplicity       :   1
Irrep              :   0
Energy             :  -731.0647745337525976 Eh
Relativity type    : 
Basis              : AO
                                X                 Y                 Z
Electronic contribution:     -7.224597957       5.155937087       0.000641533
Nuclear contribution   :      7.736586077      -5.385857457      -0.000891142
                        -----------------------------------------
Total Dipole Moment    :      0.511988120      -0.229920369      -0.000249609
                        -----------------------------------------
Magnitude (a.u.)       :      0.561244397
Magnitude (Debye)      :      1.426569885



--------------------
Rotational spectrum 
--------------------
 
Rotational constants in cm-1:             0.096959             0.051383             0.033795 
Rotational constants in MHz :          2906.764087          1540.432895          1013.134811 

Dipole components along the rotational axes: 
x,y,z [a.u.] :     0.511987     0.229923    -0.000250 
x,y,z [Debye]:     1.301368     0.584417    -0.000634 

 

Dipole moment calculation done in   0.0 sec 

Maximum memory used throughout the entire PROP-calculation: 12.8 MB

--------------------------------
SUGGESTED CITATIONS FOR THIS RUN
--------------------------------

Below you find a list of papers that are relevant to this ORCA run
We neither can nor want to force you to cite these papers, but we appreciate if you do
You receive ORCA, which is the product of decades of hard work by many enthusiastic individuals, for free
The only thing we kindly ask in return is that you cite our papers,
We deeply appreciate it, if you show your appreciation for ORCA by not just citing the generic ORCA reference.

Please note that relegating all ORCA citations to the supporting information does *not* help us.
SI sections are not indexed - citations you put there will not count into any citation statistics
But we need these citations in order to attract the funding resources that allow us to do what we are doing

Therefore, if you are a happy ORCA user, please consider citing a few of the papers listed below in the main body of your paper

In addition to the list printed below, the program has created the file xtb_opt.bibtex that contains the list in bibtex format
You can import this file easily into all common literature databanks and citation aid programs


List of essential papers. We consider these as the minimum necessary citations

  1. Neese,F.
     Software update: the ORCA program system, version 5.0
     WIRES Comput. Molec. Sci., 2022 12(1)e1606
     doi.org/10.1002/wcms.1606
  2. Grimme,S.; Hansen,A.; Ehlert,S.; Mewes,J.
     r2SCAN-3c: A 'Swiss army knife' composite electronic-structure method
     J. Chem. Phys., 2021 154 064103
     doi.org/10.1063/5.0040021

List of papers to cite with high priority. The work reported in these papers was absolutely
necessary for this run to complete.
Our perspective: the developers of density functionals and basis sets usually get cited in chemistry papers
Good! But without the algorithms to do something with them, the functionals or basis sets would not do anything.
Hence, in our opinion, the algorithm design and method developments papers are equally worthy of getting cited

  1. Neese,F.
     An improvement of the resolution of the identity approximation for the formation of the Coulomb matrix
     J. Comp. Chem., 2003 24(14)1740-1747
     doi.org/10.1002/jcc.10318
  2. Neese,F.
     The SHARK Integral Generation and Digestion System
     J. Comp. Chem., 2022  1-16
     doi.org/10.1002/jcc.26942
  3. Lehtola,S.; Steigemann,C.; Oliveira,M.; Marques,M.
     Recent developments in Libxc - A comprehensive library of functionals for density functional theory
     Software X, 2018 7 
     doi.org/10.1016/j.softx.2017.11.002
  4. Caldeweyher,E.; Bannwarth,C.; Grimme,S.
     Extension of the D3 dispersion coefficient model
     J. Chem. Phys., 2017 147 034112
     doi.org/10.1063/1.4993215
  5. Caldeweyher,E.; Ehlert,S.; Hansen,A.; Neugebauer,H.; Spicher,S.; Bannwarth,C.; Grimme,S.
     A generally applicable atomic-charge dependent London dispersion correction
     J. Chem. Phys., 2019 150 154122
     doi.org/10.1063/1.5090222
  6. Caldeweyher,E.; Mewes,J.; Ehlert,S.; Grimme,S.
     Extension and evaluation of the D4 London-dispersion model for periodic systems
     Phys. Chem. Chem. Phys., 2020 22(16)8499-8512
     doi.org/10.1039/D0CP00502A
  7. Wittmann,L.; Gordiy,I.; Friede,M.; Helmich-Paris,B.; Grimme,S.; Hansen,A.; Bursch,M.
     Extension of the D3 and D4 London Dispersion Corrections to the full Actinides Series
     Phys. Chem. Chem. Phys., 2024 26(32)21379-21394
     doi.org/https://doi.org/10.1039/D4CP01514B 

List of suggested additional citations. These are papers that are important in the 'surrounding' of 
of this run, or papers that preceded the highly important papers. If you like your results we are grateful for a citation.

  1. Neese,F.
     The ORCA program system
     WIRES Comput. Molec. Sci., 2012 2(1)73-78
     doi.org/10.1002/wcms.81
  2. Neese,F.
     Software update: the ORCA program system, version 4.0
     WIRES Comput. Molec. Sci., 2018 8(1)1-6
     doi.org/10.1002/wcms.1327
  3. Neese,F.; Wennmohs,F.; Becker,U.; Riplinger,C.
     The ORCA quantum chemistry program package
     J. Chem. Phys., 2020 152 Art. No. L224108
     doi.org/10.1063/5.0004608

List of optional additional citations

  1. Neese,F.
     Approximate second-order SCF convergence for spin unrestricted wavefunctions
     Chem. Phys. Lett., 2000 325(1-3)93-98
     doi.org/10.1016/s0009-2614(00)00662-x

Timings for individual modules:

Sum of individual times          ...        8.913 sec (=   0.149 min)
Startup calculation              ...        0.461 sec (=   0.008 min)   5.2 %
SCF iterations                   ...        4.567 sec (=   0.076 min)  51.2 %
Property calculations            ...        0.037 sec (=   0.001 min)   0.4 %
SCF Gradient evaluation          ...        3.848 sec (=   0.064 min)  43.2 %
                             ****ORCA TERMINATED NORMALLY****
TOTAL RUN TIME: 0 days 0 hours 0 minutes 8 seconds 974 msec
  ------------------------------------------------------------------------
          * successful ORCA run, taking over control again...

         :::::::::::::::::::::::::::::::::::::::::::::::::::::
         ::                  ORCA SUMMARY                   ::
         :::::::::::::::::::::::::::::::::::::::::::::::::::::
         :: total energy            -731.064453818200 Eh    ::
         :: gradient norm              0.019428002399 Eh/a0 ::
         :: HOMO-LUMO gap              0.000000000000 eV    ::
         :::::::::::::::::::::::::::::::::::::::::::::::::::::

      ----------------------------------------------------------- 
     |                       L-ANC optimizer                     |
      ----------------------------------------------------------- 
          low memory version by Sebastian Ehlert

          ...................................................
          :                      SETUP                      :
          :.................................................:
          :   energy convergence        0.5000000E-05 Eh    :
          :   grad. convergence         0.1000000E-02 Eh/a0 :
          :   optimization log               true           :
          :   writing optlog all                1     steps :
          :   Hessian reset                    20     steps :
          :   maximium step len.        1.0000000     a0    :
          :   LBFGS images                     20           :
          ...................................................
 * calculating model hessian...
Using Lindh-Hessian (1995)
 Shifting diagonal of input Hessian by    1.0000000000000000E-002
 Lowest  eigenvalues of input Hessian
    0.000000    0.000000    0.000000    0.000000    0.000000    0.000000
    0.015669    0.019645    0.022117    0.027036    0.029564    0.032595
    0.053053    0.056582    0.069560    0.076396    0.084675    0.095946
 Highest eigenvalues
    1.434051    1.596599    1.630199    1.882338    2.004214    2.030111


........................................................................
.............................. CYCLE    1 ..............................
........................................................................
                         * ORCA takes the control...
  ------------------------------------------------------------------------

                                 *****************
                                 * O   R   C   A *
                                 *****************

                                            #,                                       
                                            ###                                      
                                            ####                                     
                                            #####                                    
                                            ######                                   
                                           ########,                                 
                                     ,,################,,,,,                         
                               ,,#################################,,                 
                          ,,##########################################,,             
                       ,#########################################, ''#####,          
                    ,#############################################,,   '####,        
                  ,##################################################,,,,####,       
                ,###########''''           ''''###############################       
              ,#####''   ,,,,##########,,,,          '''####'''          '####       
            ,##' ,,,,###########################,,,                        '##       
           ' ,,###''''                  '''############,,,                           
         ,,##''                                '''############,,,,        ,,,,,,###''
      ,#''                                            '''#######################'''  
     '                                                          ''''####''''         
             ,#######,   #######,   ,#######,      ##                                
            ,#'     '#,  ##    ##  ,#'     '#,    #''#        ,####,   ,####,        
            ##       ##  ##   ,#'  ##            #'  '#       #'       #'  '#        
            ##       ##  #######   ##           ,######,      #####,   #    #        
            '#,     ,#'  ##    ##  '#,     ,#' ,#      #,     #,   #   #,  ,#        
             '#######'   ##     ##  '#######'  #'      '#     '####' # '####'        



                #########################################################
                #                        -***-                          #
                #          Department of theory and spectroscopy        #
                #                                                       #
                #                      Frank Neese                      #
                #                                                       #
                #     Directorship, Architecture, Infrastructure        #
                #                    SHARK, DRIVERS                     #
                #        Core code/Algorithms in most modules           #
                #                                                       #
                #        Max Planck Institute fuer Kohlenforschung      #
                #                Kaiser Wilhelm Platz 1                 #
                #                 D-45470 Muelheim/Ruhr                 #
                #                      Germany                          #
                #                                                       #
                #                  All rights reserved                  #
                #                        -***-                          #
                #########################################################


                         Program Version 6.0.1  -  RELEASE   -


 With contributions from (in alphabetic order):
[Max-Planck-Institut fuer Kohlenforschung]                               
  Daniel Aravena         : Magnetic Suceptibility                        
  Michael Atanasov       : Ab Initio Ligand Field Theory (pilot matlab implementation)
  Alexander A. Auer      : GIAO ZORA, VPT2 properties, NMR spectrum      
  Ute Becker             : All parallelization in ORCA, NUMFREQ, NUMCALC 
  Giovanni Bistoni       : ED, misc. LED, open-shell LED, HFLD           
  Martin Brehm           : Molecular dynamics                            
  Dmytro Bykov           : pre 5.0 version of the SCF Hessian            
  Marcos Casanova-Páez   : Triplet and SCS-CIS(D). UHF-(DLPNO)-IP/EA/STEOM-CCSD. UHF-CVS-IP/STEOM-CCSD   
  Vijay G. Chilkuri      : MRCI spin determinant printing, contributions to CSF-ICE 
  Pauline Colinet        : FMM embedding                                 
  Dipayan Datta          : RHF DLPNO-CCSD density                        
  Achintya Kumar Dutta   : EOM-CC, STEOM-CC                              
  Nicolas Foglia         : Exact transition moments, OPA infrastructure, MCD improvements    
  Dmitry Ganyushin       : Spin-Orbit,Spin-Spin,Magnetic field MRCI      
  Miquel Garcia-Rates    : C-PCM and meta-GGA Hessian, CCSD/C-PCM, Gaussian charge scheme 
  Tiago L. C. Gouveia    : GS-ROHF, GS-ROCIS                             
  Yang Guo               : DLPNO-NEVPT2, F12-NEVPT2, CIM, IAO-localization        
  Andreas Hansen         : Spin unrestricted coupled pair/coupled cluster methods 
  Ingolf Harden          : AUTO-CI MPn and infrastructure                
  Benjamin Helmich-Paris : MC-RPA, TRAH-(SCF,CASSCF), AVAS, COSX integrals, SCF dyn. polar. 
  Lee Huntington         : MR-EOM, pCC                                   
  Robert Izsak           : Overlap fitted RIJCOSX, COSX-SCS-MP3, EOM     
  Riya Kayal             : Wick's Theorem for AUTO-CI, AUTO-CI UHF-CCSDT 
  Emily Kempfer          : AUTO-CI, RHF CISDT and CCSDT                  
  Christian Kollmar      : KDIIS, OOCD, Brueckner-CCSD(T), CCSD density, CASPT2, CASPT2-K, improved NEVPT2 
  Axel Koslowski         : Symmetry handling                             
  Simone Kossmann        : meta-GGA functionals, TD-DFT gradient, OOMP2, (MP2 Hessian; deprecated post 5.0) 
  Lucas Lang             : DCDCAS                                        
  Marvin Lechner         : AUTO-CI (C++ implementation), FIC-MRCC        
  Spencer Leger          : CASSCF response                               
  Dagmar Lenk            : GEPOL surface, SMD, ORCA-2-JSON               
  Dimitrios Liakos       : Extrapolation schemes; Compound Job, initial MDCI parallelization 
  Dimitrios Manganas     : Further ROCIS development; embedding schemes. LFT, Crystal Embedding 
  Dimitrios Pantazis     : SARC Basis sets                               
  Anastasios Papadopoulos: AUTO-CI, single reference methods and gradients 
  Taras Petrenko         : pre 6.0 DFT Hessian and TD-DFT gradient, (ASA, deprecated), ECA, 1-Electron XAS/XES, NRVS 
  Peter Pinski           : DLPNO-MP2, DLPNO-MP2 Gradient                 
  Christoph Reimann      : Effective Core Potentials                     
  Marius Retegan         : Local ZFS, SOC                                
  Christoph Riplinger    : Optimizer, TS searches, QM/MM, DLPNO-CCSD(T), (RO)-DLPNO pert. Triples 
  Michael Roemelt        : Original ROCIS implementation                 
  Masaaki Saitow         : Open-shell DLPNO-CCSD energy and density      
  Barbara Sandhoefer     : DKH picture change effects                    
  Kantharuban Sivalingam : CASSCF convergence/infrastructure, NEVPT2 and variants, FIC-MRCI 
  Bernardo de Souza      : ESD, SOC TD-DFT                               
  Georgi L. Stoychev     : AutoAux, RI-MP2 NMR, DLPNO-MP2 response, X2C  
  Van Anh Tran           : RI-MP2 g-tensors                              
  Willem Van den Heuvel  : Paramagnetic NMR                              
  Zikuan Wang            : NOTCH, Electric field optimization            
  Frank Wennmohs         : Technical directorship and infrastructure     
  Hang Xu                : AUTO-CI-Response properties                   
                                                                         
[FACCTs GmbH]                                                            
  Markus Bursch, Miquel Garcia-Rates, Christoph Riplinger, Bernardo de Souza, Georgi L. Stoychev 
                                                                 
  APM, Basis sets (HGBS, AHGBS, def-TZVP (Ac-Lr), def2-XVPD (La-Lu)), CI-OPT, improved COSX, DLPNO-Multilevel,           
  DOCKER, DRACO, updates on ESD, GOAT, IRC, LR-CPCM, MBIS, meta-GGA TD-DFT gradient, ML-optimized integration grids, 
  MM, NACMEs, nearIR, NEB, NEB-TS, NL-DFT gradient (VV10), 2- and 3-layer-ONIOM, interface openCOSMO-RS, QMMM,   
  Crystal-QMMM, SF, symmetry and pop. for TD-DFT, r2SCAN hybrids, SOLVATOR                                   
                                                                         
[Other institutions]                                                     
  V. Asgeirsson          : NEB                                           
  Christoph Bannwarth    : sTDA-DFT, sTD-DFT, PBEh-3c, B97-3c, D3        
  Sebastian Ehlert       : rSCAN, r2SCAN, r2SCAN-3c, D4, dhf basis sets  
  Marvin Friede          : D4 for Fr, Ra, Ac-Lr                          
  Lars Goerigk           : TD-DFT with DH, B97 family of functionals     
  Stefan Grimme          : VdW corrections, initial TS optimization, DFT functionals, gCP, sTDA/sTD-DF 
  Waldemar Hujo          : DFT-NL                                        
  H. Jonsson             : NEB                                           
  Holger Kruse           : gCP                                           
  Marcel Mueller         : wB97X-3c, vDZP basis set                      
  Hagen Neugebauer       : wr2SCAN                                       
  Tobias Risthaus        : range-separated hybrid DFT                    
  Lukas Wittmann         : regularized MP2, r2SCAN double-hybrids, wr2SCAN        
                                                                         
We gratefully acknowledge several colleagues who have allowed us to      
interface, adapt or use parts of their codes:                            
  Ed Valeev, F. Pavosevic, A. Kumar             : LibInt (2-el integral package), F12 methods 
  Garnet Chan, S. Sharma, J. Yang, R. Olivares  : DMRG                   
  Ulf Ekstrom                                   : XCFun DFT Library      
  Mihaly Kallay                                 : mrcc  (arbitrary order and MRCC methods)
  Frank Weinhold                                : gennbo (NPA and NBO analysis)           
  Simon Mueller                                 : openCOSMO-RS                            
  Christopher J. Cramer and Donald G. Truhlar   : smd solvation model                     
  S Lehtola, MJT Oliveira, MAL Marques          : LibXC Library                           
  Liviu Ungur et al                             : ANISO software                          


 Your calculation uses the libint2 library for the computation of 2-el integrals
 For citations please refer to: http://libint.valeyev.net

 Your ORCA version has been built with support for libXC version: 6.2.2
 For citations please refer to: https://libxc.gitlab.io

 This ORCA versions uses:
   CBLAS   interface :  Fast vector & matrix operations
   LAPACKE interface :  Fast linear algebra routines
   SCALAPACK package :  Parallel linear algebra routines
   Shared memory     :  Shared parallel matrices
   BLAS/LAPACK       :  OpenBLAS 0.3.27  USE64BITINT DYNAMIC_ARCH NO_AFFINITY Zen SINGLE_THREADED
        Core in use  :  Zen
   Copyright (c) 2011-2014, The OpenBLAS Project




***************************************
The coordinates will be read from file: xtb_opt.xyz
***************************************


Your calculation utilizes the geometrical counterpoise correction gCP
Please cite in your paper:
H.Kruse, S. Grimme J.Chem.Phys., 136, (2012), 154101 
   

Your calculation utilizes the atom-pairwise dispersion correction
based on EEQ partial charges (D4)


================================================================================

----- Orbital basis set information -----
Your calculation utilizes the basis: def2-mTZVPP
   Stefan Grimme, Andreas Hansen, Sebastian Ehlert, and Jan-Michael Mewes 
   J. Chem. Phys. 154, 064103 (2021). DOI: 10.1063/5.0040021

----- AuxJ basis set information -----
Your calculation utilizes the auxiliary basis: def2/J
   F. Weigend, Phys. Chem. Chem. Phys. 8, 1057 (2006).

================================================================================
                                        WARNINGS
                       Please study these warnings very carefully!
================================================================================

WARNING: Old DensityContainer found on disk!
         Will remove this file - 
         If you want to keep old densities, please start your calculation with a different basename. 



WARNING: SCAN, rSCAN, or r2SCAN functional requested.
  ===> : libXC variant has now been activated.



================================================================================
                                       INPUT FILE
================================================================================
NAME = xtb_opt.inp
|  1> ! r2scan-3c def2/J RI DEFGRID2 scfconv7 ENGRAD tightSCF miniprint
|  2> * xyzfile 0 1 xtb_opt.xyz
|  3> 
|  4>                          ****END OF INPUT****
================================================================================

                     *******************************
                     * Energy+Gradient Calculation *
                     *******************************

---------------------------------
CARTESIAN COORDINATES (ANGSTROEM)
---------------------------------
  C     -0.678539   -2.178839   -0.000008
  C      0.207221   -0.969471    0.000016
  C      1.597233   -1.087291   -0.000025
  C      2.423997    0.028982   -0.000076
  C      1.868249    1.301753   -0.000110
  C      0.487898    1.453231   -0.000086
  C     -0.322299    0.325261   -0.000010
  Cl    -2.052773    0.546275    0.000021
  H     -1.329270   -2.183106   -0.878906
  H     -0.084643   -3.093477    0.000441
  H     -1.329953   -2.182652    0.878353
  H      2.034480   -2.080123   -0.000065
  H      3.500569   -0.095806   -0.000078
  H      2.503532    2.179495   -0.000174
  H      0.037403    2.438070   -0.000151

----------------------------
CARTESIAN COORDINATES (A.U.)
----------------------------
  NO LB      ZA    FRAG     MASS         X           Y           Z
   0 C     6.0000    0    12.011   -1.282252   -4.117409   -0.000015
   1 C     6.0000    0    12.011    0.391591   -1.832034    0.000030
   2 C     6.0000    0    12.011    3.018333   -2.054682   -0.000046
   3 C     6.0000    0    12.011    4.580691    0.054768   -0.000143
   4 C     6.0000    0    12.011    3.530479    2.459956   -0.000207
   5 C     6.0000    0    12.011    0.921994    2.746209   -0.000163
   6 C     6.0000    0    12.011   -0.609056    0.614654   -0.000020
   7 Cl   17.0000    0    35.453   -3.879178    1.032309    0.000039
   8 H     1.0000    0     1.008   -2.511957   -4.125472   -1.660892
   9 H     1.0000    0     1.008   -0.159952   -5.845824    0.000833
  10 H     1.0000    0     1.008   -2.513246   -4.124614    1.659846
  11 H     1.0000    0     1.008    3.844610   -3.930862   -0.000122
  12 H     1.0000    0     1.008    6.615116   -0.181047   -0.000147
  13 H     1.0000    0     1.008    4.730990    4.118649   -0.000328
  14 H     1.0000    0     1.008    0.070681    4.607285   -0.000286

------------------------------------------------------------------------------
                   ___                                                        
                  /   \      - P O W E R E D   B Y -                         
                 /     \                                                     
                 |  |  |   _    _      __       _____    __    __             
                 |  |  |  | |  | |    /  \     |  _  \  |  |  /  |          
                  \  \/   | |  | |   /    \    | | | |  |  | /  /          
                 / \  \   | |__| |  /  /\  \   | |_| |  |  |/  /          
                |  |  |   |  __  | /  /__\  \  |    /   |      \           
                |  |  |   | |  | | |   __   |  |    \   |  |\   \          
                \     /   | |  | | |  |  |  |  | |\  \  |  | \   \       
                 \___/    |_|  |_| |__|  |__|  |_| \__\ |__|  \__/        
                                                                              
                      - O R C A' S   B I G   F R I E N D -                    
                                      &                                       
                       - I N T E G R A L  F E E D E R -                       
                                                                              
 v1 FN, 2020, v2 2021, v3 2022-2024                                           
------------------------------------------------------------------------------


----------------------
SHARK INTEGRAL PACKAGE
----------------------

Number of atoms                             ...     15
Number of basis functions                   ...    195
Number of shells                            ...     95
Maximum angular momentum                    ...      2
Integral batch strategy                     ... SHARK/LIBINT Hybrid
RI-J (if used) integral strategy            ... SPLIT-RIJ (Revised 2003 algorithm where possible)
Printlevel                                  ...      1
Contraction scheme used                     ... SEGMENTED contraction
Prescreening option                         ... SCHWARTZ
   Thresh                                   ... 3.000e-11
   Tcut                                     ... 1.000e-12
   Tpresel                                  ... 1.000e-12 
Coulomb Range Separation                    ... NOT USED
Exchange Range Separation                   ... NOT USED
Multipole approximations                    ... NOT USED
Finite Nucleus Model                        ... NOT USED
CABS basis                                  ... NOT available
Auxiliary Coulomb fitting basis             ... AVAILABLE
   # of basis functions in Aux-J            ...    471
   # of shells in Aux-J                     ...    157
   Maximum angular momentum in Aux-J        ...      4
Auxiliary J/K fitting basis                 ... NOT available
Auxiliary Correlation fitting basis         ... NOT available
Auxiliary 'external' fitting basis          ... NOT available

Checking pre-screening integrals            ... done (  0.0 sec) Dimension = 95
Check shell pair data                       ... done (  0.0 sec)
Shell pair information
Shell pair cut-off parameter TPreSel        ...   1.0e-12
Total number of shell pairs                 ...      4560
Shell pairs after pre-screening             ...      4167
Total number of primitive shell pairs       ...     17606
Primitive shell pairs kept                  ...     11417
          la=0 lb=0:   1309 shell pairs
          la=1 lb=0:   1585 shell pairs
          la=1 lb=1:    496 shell pairs
          la=2 lb=0:    457 shell pairs
          la=2 lb=1:    275 shell pairs
          la=2 lb=2:     45 shell pairs

Calculating one electron integrals          ... done (  0.0 sec)
Calculating RI/J V-Matrix + Cholesky decomp.... done (  0.0 sec)
Calculating Nuclear repulsion               ... done (  0.0 sec) ENN=    403.220414345961 Eh

Diagonalization of the overlap matrix:
Smallest eigenvalue                        ... 2.736e-05
Time for diagonalization                   ...    0.002 sec
Threshold for overlap eigenvalues          ... 1.000e-07
Number of eigenvalues below threshold      ... 0
Time for construction of square roots      ...    0.001 sec
Total time needed                          ...    0.004 sec

-------------------
DFT GRID GENERATION
-------------------

General Integration Accuracy     IntAcc      ... 4.388
Radial Grid Type                 RadialGrid  ... OptM3 with GC (2021)
Angular Grid (max. ang.)         AngularGrid ... 4 (Lebedev-302)
Angular grid pruning method      GridPruning ... 4 (adaptive)
Weight generation scheme         WeightScheme... mBecke (2022)
Basis function cutoff            BFCut       ... 1.0000e-11
Integration weight cutoff        WCut        ... 1.0000e-14
Partially contracted basis set               ... off
Rotationally invariant grid construction     ... off
Angular grids for H and He will be reduced by one unit

Total number of grid points                  ...    71885
Total number of batches                      ...     1131
Average number of points per batch           ...       63
Average number of grid points per atom       ...     4792
Initializing property integral containers    ... done (  0.0 sec)

SHARK setup successfully completed in   0.4 seconds

Maximum memory used throughout the entire STARTUP-calculation: 33.9 MB
Occupation numbers will be reassigned to an Aufbau configuration
             **** ENERGY FILE WAS UPDATED (xtb_opt.en.tmp) ****
Finished Guess after   0.0 sec
Maximum memory used throughout the entire GUESS-calculation: 14.2 MB
----------------------------------------D-I-I-S--------------------------------------------
Iteration    Energy (Eh)           Delta-E    RMSDP     MaxDP     DIISErr   Damp  Time(sec)
-------------------------------------------------------------------------------------------
               ***  Starting incremental Fock matrix formation  ***
    1    -731.0652715344575654     0.00e+00  7.34e-05  1.48e-03  3.64e-03  0.700   1.0
                              *** Initializing SOSCF ***
---------------------------------------S-O-S-C-F--------------------------------------
Iteration    Energy (Eh)           Delta-E    RMSDP     MaxDP     MaxGrad    Time(sec)
--------------------------------------------------------------------------------------
    2    -731.0653135887292819    -4.21e-05  2.09e-04  4.14e-03  2.51e-03     0.8
               *** Restarting incremental Fock matrix formation ***
    3    -731.0653959553129653    -8.24e-05  1.02e-04  2.73e-03  5.19e-04     1.0
    4    -731.0653833438381071     1.26e-05  6.31e-05  1.86e-03  9.85e-04     0.8
    5    -731.0654033771010063    -2.00e-05  2.51e-05  3.79e-04  2.11e-04     0.8
    6    -731.0654014504881388     1.93e-06  1.82e-05  2.58e-04  4.18e-04     0.8
    7    -731.0654040689308886    -2.62e-06  6.44e-06  1.74e-04  2.15e-05     0.8
                  *** Gradient check signals convergence ***

               *****************************************************
               *                     SUCCESS                       *
               *           SCF CONVERGED AFTER   7 CYCLES          *
               *****************************************************

             **** ENERGY FILE WAS UPDATED (xtb_opt.en.tmp) ****

----------------
TOTAL SCF ENERGY
----------------

Total Energy       :       -731.06540406893089 Eh          -19893.30100 eV

Components:
Nuclear Repulsion  :        403.22041434596110 Eh           10972.18529 eV
Electronic Energy  :      -1134.28581841489176 Eh          -30865.48629 eV
One Electron Energy:      -1799.75072330166017 Eh          -48973.70696 eV
Two Electron Energy:        665.46490488676830 Eh           18108.22067 eV

Virial components:
Potential Energy   :      -1459.85130208350483 Eh          -39724.57349 eV
Kinetic Energy     :        728.78589801457406 Eh           19831.27249 eV
Virial Ratio       :          2.00312781306632

DFT components:
N(Alpha)           :       32.999987638553 electrons
N(Beta)            :       32.999987638553 electrons
N(Total)           :       65.999975277106 electrons
E(X)               :      -66.481896573783 Eh       
E(C)               :       -2.229961678298 Eh       
E(XC)              :      -68.711858252081 Eh       

---------------
SCF CONVERGENCE
---------------

  Last Energy change         ...    2.6184e-06  Tolerance :   1.0000e-07
  Last MAX-Density change    ...    1.7362e-04  Tolerance :   1.0000e-07
  Last RMS-Density change    ...    6.4422e-06  Tolerance :   5.0000e-09
  Last DIIS Error            ...    2.5092e-03  Tolerance :   1.0000e-07
  Last Orbital Gradient      ...    2.1456e-05  Tolerance :   1.0000e-04
  Last Orbital Rotation      ...    6.6668e-05  Tolerance :   1.0000e-04


----------------
ORBITAL ENERGIES
----------------

  NO   OCC          E(Eh)            E(eV) 
   0   2.0000    -101.218650     -2754.2995 
   1   2.0000     -10.099050      -274.8091 
   2   2.0000     -10.060145      -273.7505 
   3   2.0000     -10.048632      -273.4372 
   4   2.0000     -10.045516      -273.3524 
   5   2.0000     -10.045312      -273.3468 
   6   2.0000     -10.043390      -273.2945 
   7   2.0000     -10.035684      -273.0849 
   8   2.0000      -9.374498      -255.0930 
   9   2.0000      -7.120610      -193.7617 
  10   2.0000      -7.110915      -193.4978 
  11   2.0000      -7.110282      -193.4806 
  12   2.0000      -0.862552       -23.4712 
  13   2.0000      -0.804063       -21.8797 
  14   2.0000      -0.751720       -20.4554 
  15   2.0000      -0.705957       -19.2101 
  16   2.0000      -0.661128       -17.9902 
  17   2.0000      -0.582855       -15.8603 
  18   2.0000      -0.560252       -15.2452 
  19   2.0000      -0.485961       -13.2237 
  20   2.0000      -0.450854       -12.2684 
  21   2.0000      -0.432641       -11.7728 
  22   2.0000      -0.404011       -10.9937 
  23   2.0000      -0.402102       -10.9417 
  24   2.0000      -0.389994       -10.6123 
  25   2.0000      -0.365696        -9.9511 
  26   2.0000      -0.353142        -9.6095 
  27   2.0000      -0.330322        -8.9885 
  28   2.0000      -0.326317        -8.8795 
  29   2.0000      -0.311287        -8.4706 
  30   2.0000      -0.283584        -7.7167 
  31   2.0000      -0.240905        -6.5553 
  32   2.0000      -0.226225        -6.1559 
  33   0.0000      -0.042570        -1.1584 
  34   0.0000      -0.038899        -1.0585 
  35   0.0000       0.011299         0.3075 
  36   0.0000       0.086011         2.3405 
  37   0.0000       0.105056         2.8587 
  38   0.0000       0.108504         2.9525 
  39   0.0000       0.111821         3.0428 
  40   0.0000       0.138932         3.7805 
  41   0.0000       0.139636         3.7997 
  42   0.0000       0.148550         4.0423 
  43   0.0000       0.156074         4.2470 
*Only the first 10 virtual orbitals were printed.
Total SCF time: 0 days 0 hours 0 min 6 sec 
Finished LeanSCF after   6.2 sec

Maximum memory used throughout the entire LEANSCF-calculation: 21.7 MB


-------------------------------------------------------------------------------
                          DFT DISPERSION CORRECTION                            
                                                                               
                                DFTD4 V3.4.0                                   
-------------------------------------------------------------------------------
-------------------------   ----------------
Dispersion correction           -0.005266185
-------------------------   ----------------

------------------   -----------------
gCP correction             0.005520120
------------------   -----------------

-------------------------   --------------------
FINAL SINGLE POINT ENERGY      -731.065150133785
-------------------------   --------------------

------------------------------------------------------------------------------
                         ORCA SCF GRADIENT CALCULATION
------------------------------------------------------------------------------

Nuc. rep. gradient        (SHARK) ... done (  0.0 sec)
HCore & Overlap gradient  (SHARK) ... done (  0.1 sec)
Split-RIJ-J gradient      (SHARK) ... done (  0.8 sec)
XC gradient                       ... done (  2.9 sec)
Dispersion correction             ... done (  0.0 sec)

-------------------
DISPERSION GRADIENT
-------------------

   1   C   :   -0.000049965   -0.000090128   -0.000000000
   2   C   :   -0.000014164   -0.000039752    0.000000002
   3   C   :    0.000066131   -0.000046673    0.000000001
   4   C   :    0.000099411    0.000012893   -0.000000001
   5   C   :    0.000070580    0.000067389   -0.000000003
   6   C   :    0.000005112    0.000083759   -0.000000002
   7   C   :   -0.000039169    0.000027939    0.000000002
   8   Cl  :   -0.000172015    0.000057322    0.000000007
   9   H   :   -0.000024665   -0.000033506   -0.000009919
  10   H   :   -0.000009644   -0.000045373    0.000000006
  11   H   :   -0.000024672   -0.000033493    0.000009912
  12   H   :    0.000031131   -0.000033093    0.000000000
  13   H   :    0.000042809   -0.000000442   -0.000000000
  14   H   :    0.000027708    0.000031546   -0.000000002
  15   H   :   -0.000008589    0.000041613   -0.000000002

Difference to translation invariance:
           :    0.0000000000   -0.0000000000   -0.0000000000

Difference to rotation invariance:
           :    0.0000000000   -0.0000000000    0.0000000000

Norm of the Dispersion gradient    ...    0.0003066437
RMS gradient                       ...    0.0000457117
MAX gradient                       ...    0.0001720147
gCP correction                   ... done

------------------
CARTESIAN GRADIENT
------------------

   1   C   :   -0.000598984   -0.000807185    0.000009576
   2   C   :    0.002683257    0.001485498    0.000002812
   3   C   :   -0.000849060   -0.000600501    0.000001724
   4   C   :   -0.000968581    0.000243381   -0.000001462
   5   C   :   -0.000403564   -0.000168381    0.000000643
   6   C   :    0.000735747   -0.001140565    0.000000673
   7   C   :   -0.006403767    0.000485828   -0.000000011
   8   Cl  :    0.005759873   -0.000792387    0.000001021
   9   H   :    0.000691590    0.000559650    0.000530889
  10   H   :   -0.000489227    0.000615102   -0.000000384
  11   H   :    0.000698776    0.000561982   -0.000542051
  12   H   :   -0.000076096    0.000860676   -0.000002682
  13   H   :   -0.000746353    0.000162975    0.000001355
  14   H   :   -0.000415531   -0.000838535   -0.000000579
  15   H   :    0.000381920   -0.000627539   -0.000001523

Difference to translation invariance:
           :   -0.0000000000    0.0000000000    0.0000000000

Difference to rotation invariance:
           :    0.0000006457    0.0000006535   -0.0003767093

Norm of the Cartesian gradient     ...    0.0097525492
RMS gradient                       ...    0.0014538242
MAX gradient                       ...    0.0064037670

-------
TIMINGS
-------

Total SCF gradient time     ....        3.827 sec

Densities                   ....       0.000 sec  (  0.0%)
One electron gradient       ....       0.123 sec  (  3.2%)
RI-J Coulomb gradient       ....       0.817 sec  ( 21.4%)
XC gradient                 ....       2.867 sec  ( 74.9%)

Maximum memory used throughout the entire SCFGRAD-calculation: 34.4 MB

------------------------------------------------------------------------------
                              ORCA PROPERTY CALCULATIONS
------------------------------------------------------------------------------

GBWName                                 ... xtb_opt.gbw
Number of atoms                         ...     15
Number of basis functions               ...    195
Max core memory                         ...   1024 MB

Electric properties:
Dipole moment                           ... YES
Quadrupole moment                       ...  NO
Static polarizability (Dipole/Dipole)   ...  NO
Static polarizability (Dipole/Quad.)    ...  NO
Static polarizability (Quad./Quad.)     ...  NO
Static polarizability (Velocity)        ...  NO

Atomic electric properties:
Dipole moment                           ...  NO
Quadrupole moment                       ...  NO
Static polarizability                   ...  NO

Choice of electric origin               ... Center of mass
Position of electric origin             ...    -0.005010     0.011651    -0.000051

General magnetic properties:
Magnetizability                         ...  NO

EPR properties:
g-Tensor (aka g-matrix)                 ...  NO
Zero-Field splitting spin-orbit         ...  NO
Zero-field splitting spin-spin          ...  NO
Hyperfine couplings                     ...  NO (   0 nuclei)
Quadrupole couplings                    ...  NO (   0 nuclei)
Contact density                         ...  NO (   0 nuclei)

NMR properties:
Chemical shifts                         ...  NO (   0 nuclei)
Spin-rotation constants                 ...  NO (   0 nuclei)
Spin-spin couplings                     ...  NO (   0 nuclei,    0 pairs)

Choice of magnetic origin               ... GIAO
Position of magnetic origin             ...     0.000000     0.000000     0.000000

Properties with geometric perturbations:
SCF Hessian                             ...  NO
IR spectrum                             ...  NO
VCD spectrum                            ...  NO
X-ray spectroscopy properties:
SCF XES/XAS/RIXS spectra                ...  NO


-------------
DIPOLE MOMENT
-------------

Method             : SCF
Type of density    : Electron Density
Multiplicity       :   1
Irrep              :   0
Energy             :  -731.0654040689308886 Eh
Relativity type    : 
Basis              : AO
[...]

Components:
Nuclear Repulsion  :        402.25474970739378 Eh           10945.90822 eV
Electronic Energy  :      -1133.32024959548016 Eh          -30839.21183 eV
One Electron Energy:      -1797.83525662440843 Eh          -48921.58446 eV
Two Electron Energy:        664.51500702892827 Eh           18082.37263 eV

Virial components:
Potential Energy   :      -1459.79106050744713 Eh          -39722.93423 eV
Kinetic Energy     :        728.72556061936075 Eh           19829.63062 eV
Virial Ratio       :          2.00321100204957

DFT components:
N(Alpha)           :       32.999983158250 electrons
N(Beta)            :       32.999983158250 electrons
N(Total)           :       65.999966316500 electrons
E(X)               :      -66.468506261655 Eh       
E(C)               :       -2.228978388312 Eh       
E(XC)              :      -68.697484649967 Eh       

---------------
SCF CONVERGENCE
---------------

  Last Energy change         ...    6.5256e-10  Tolerance :   1.0000e-07
  Last MAX-Density change    ...    1.2600e-05  Tolerance :   1.0000e-07
  Last RMS-Density change    ...    4.1772e-07  Tolerance :   5.0000e-09
  Last DIIS Error            ...    1.5901e-05  Tolerance :   1.0000e-07
  Last Orbital Gradient      ...    2.7951e-06  Tolerance :   1.0000e-04
  Last Orbital Rotation      ...    1.1932e-05  Tolerance :   1.0000e-04


----------------
ORBITAL ENERGIES
----------------

  NO   OCC          E(Eh)            E(eV) 
   0   2.0000    -101.217570     -2754.2701 
   1   2.0000     -10.100437      -274.8469 
   2   2.0000     -10.061384      -273.7842 
   3   2.0000     -10.049741      -273.4674 
   4   2.0000     -10.046862      -273.3890 
   5   2.0000     -10.046488      -273.3788 
   6   2.0000     -10.044597      -273.3274 
   7   2.0000     -10.036641      -273.1109 
   8   2.0000      -9.373187      -255.0574 
   9   2.0000      -7.119334      -193.7269 
  10   2.0000      -7.109602      -193.4621 
  11   2.0000      -7.109002      -193.4458 
  12   2.0000      -0.860400       -23.4127 
  13   2.0000      -0.802134       -21.8272 
  14   2.0000      -0.751852       -20.4589 
  15   2.0000      -0.706112       -19.2143 
  16   2.0000      -0.661415       -17.9980 
  17   2.0000      -0.583001       -15.8643 
  18   2.0000      -0.560507       -15.2522 
  19   2.0000      -0.485695       -13.2164 
  20   2.0000      -0.450472       -12.2580 
  21   2.0000      -0.432267       -11.7626 
  22   2.0000      -0.403389       -10.9768 
  23   2.0000      -0.401396       -10.9226 
  24   2.0000      -0.390666       -10.6306 
  25   2.0000      -0.365498        -9.9457 
  26   2.0000      -0.352567        -9.5938 
  27   2.0000      -0.330939        -9.0053 
  28   2.0000      -0.326188        -8.8760 
  29   2.0000      -0.310065        -8.4373 
  30   2.0000      -0.283183        -7.7058 
  31   2.0000      -0.241225        -6.5641 
  32   2.0000      -0.226990        -6.1767 
  33   0.0000      -0.043105        -1.1730 
  34   0.0000      -0.039958        -1.0873 
  35   0.0000       0.006905         0.1879 
  36   0.0000       0.085408         2.3241 
  37   0.0000       0.104019         2.8305 
  38   0.0000       0.108074         2.9408 
  39   0.0000       0.111588         3.0365 
  40   0.0000       0.138400         3.7660 
  41   0.0000       0.138978         3.7818 
  42   0.0000       0.148142         4.0312 
  43   0.0000       0.155365         4.2277 
*Only the first 10 virtual orbitals were printed.
Total SCF time: 0 days 0 hours 0 min 2 sec 
Finished LeanSCF after   2.1 sec

Maximum memory used throughout the entire LEANSCF-calculation: 21.7 MB


-------------------------------------------------------------------------------
                          DFT DISPERSION CORRECTION                            
                                                                               
                                DFTD4 V3.4.0                                   
-------------------------------------------------------------------------------
-------------------------   ----------------
Dispersion correction           -0.005256794
-------------------------   ----------------

------------------   -----------------
gCP correction             0.005474811
------------------   -----------------

-------------------------   --------------------
FINAL SINGLE POINT ENERGY      -731.065281871025
-------------------------   --------------------

------------------------------------------------------------------------------
                         ORCA SCF GRADIENT CALCULATION
------------------------------------------------------------------------------

Nuc. rep. gradient        (SHARK) ... done (  0.0 sec)
HCore & Overlap gradient  (SHARK) ... done (  0.1 sec)
Split-RIJ-J gradient      (SHARK) ... done (  0.8 sec)
XC gradient                       ... done (  2.8 sec)
Dispersion correction             ... done (  0.0 sec)

-------------------
DISPERSION GRADIENT
-------------------

   1   C   :   -0.000049719   -0.000090610    0.000000002
   2   C   :   -0.000014308   -0.000040082    0.000000002
   3   C   :    0.000066093   -0.000046696    0.000000002
   4   C   :    0.000099260    0.000012810   -0.000000001
   5   C   :    0.000070604    0.000067249   -0.000000002
   6   C   :    0.000005054    0.000083844   -0.000000001
   7   C   :   -0.000038856    0.000028309    0.000000000
   8   Cl  :   -0.000172282    0.000058284   -0.000000001
   9   H   :   -0.000024481   -0.000033714   -0.000009915
  10   H   :   -0.000009660   -0.000045202    0.000000005
  11   H   :   -0.000024486   -0.000033704    0.000009911
  12   H   :    0.000030938   -0.000033043    0.000000001
  13   H   :    0.000042761   -0.000000508   -0.000000001
  14   H   :    0.000027626    0.000031463   -0.000000001
  15   H   :   -0.000008545    0.000041598   -0.000000001

Difference to translation invariance:
           :   -0.0000000000   -0.0000000000   -0.0000000000

Difference to rotation invariance:
           :   -0.0000000000   -0.0000000000    0.0000000000

Norm of the Dispersion gradient    ...    0.0003070019
RMS gradient                       ...    0.0000457651
MAX gradient                       ...    0.0001722824
gCP correction                   ... done

------------------
CARTESIAN GRADIENT
------------------

   1   C   :   -0.000008108    0.000048392   -0.000000568
   2   C   :   -0.000120389    0.000011303   -0.000000085
   3   C   :   -0.000041372    0.000009508   -0.000000036
   4   C   :    0.000078161   -0.000021206   -0.000000299
   5   C   :    0.000006502    0.000032476    0.000000108
   6   C   :   -0.000062672   -0.000058691    0.000000290
   7   C   :   -0.000074153    0.000113172    0.000000833
   8   Cl  :    0.000103201   -0.000000638   -0.000000148
   9   H   :   -0.000013656   -0.000033516   -0.000008640
  10   H   :    0.000030783   -0.000049637    0.000000545
  11   H   :   -0.000014777   -0.000032928    0.000008437
  12   H   :    0.000013049   -0.000062433   -0.000000079
  13   H   :    0.000062055   -0.000020519   -0.000000220
  14   H   :    0.000032025    0.000053984   -0.000000227
  15   H   :    0.000009350    0.000010735    0.000000089

Difference to translation invariance:
           :   -0.0000000001    0.0000000000   -0.0000000000

Difference to rotation invariance:
           :    0.0000005214    0.0000006023   -0.0003746236

Norm of the Cartesian gradient     ...    0.0002854299
RMS gradient                       ...    0.0000425494
MAX gradient                       ...    0.0001203886

-------
TIMINGS
-------

Total SCF gradient time     ....        3.769 sec

Densities                   ....       0.000 sec  (  0.0%)
One electron gradient       ....       0.122 sec  (  3.2%)
RI-J Coulomb gradient       ....       0.820 sec  ( 21.8%)
XC gradient                 ....       2.808 sec  ( 74.5%)

Maximum memory used throughout the entire SCFGRAD-calculation: 34.4 MB

------------------------------------------------------------------------------
                              ORCA PROPERTY CALCULATIONS
------------------------------------------------------------------------------

GBWName                                 ... xtb_opt.gbw
Number of atoms                         ...     15
Number of basis functions               ...    195
Max core memory                         ...   1024 MB

Electric properties:
Dipole moment                           ... YES
Quadrupole moment                       ...  NO
Static polarizability (Dipole/Dipole)   ...  NO
Static polarizability (Dipole/Quad.)    ...  NO
Static polarizability (Quad./Quad.)     ...  NO
Static polarizability (Velocity)        ...  NO

Atomic electric properties:
Dipole moment                           ...  NO
Quadrupole moment                       ...  NO
Static polarizability                   ...  NO

Choice of electric origin               ... Center of mass
Position of electric origin             ...    -0.009632     0.018116    -0.000120

General magnetic properties:
Magnetizability                         ...  NO

EPR properties:
g-Tensor (aka g-matrix)                 ...  NO
Zero-Field splitting spin-orbit         ...  NO
Zero-field splitting spin-spin          ...  NO
Hyperfine couplings                     ...  NO (   0 nuclei)
Quadrupole couplings                    ...  NO (   0 nuclei)
Contact density                         ...  NO (   0 nuclei)

NMR properties:
Chemical shifts                         ...  NO (   0 nuclei)
Spin-rotation constants                 ...  NO (   0 nuclei)
Spin-spin couplings                     ...  NO (   0 nuclei,    0 pairs)

Choice of magnetic origin               ... GIAO
Position of magnetic origin             ...     0.000000     0.000000     0.000000

Properties with geometric perturbations:
SCF Hessian                             ...  NO
IR spectrum                             ...  NO
VCD spectrum                            ...  NO
X-ray spectroscopy properties:
SCF XES/XAS/RIXS spectra                ...  NO


-------------
DIPOLE MOMENT
-------------

Method             : SCF
Type of density    : Electron Density
Multiplicity       :   1
Irrep              :   0
Energy             :  -731.0654998880863786 Eh
Relativity type    : 
Basis              : AO
                                X                 Y                 Z
Electronic contribution:     -7.252023094       5.276035379      -0.000098604
Nuclear contribution   :      7.803965007      -5.521593282       0.000078717
                        -----------------------------------------
Total Dipole Moment    :      0.551941913      -0.245557902      -0.000019886
                        -----------------------------------------
Magnitude (a.u.)       :      0.604101448
Magnitude (Debye)      :      1.535503853



--------------------
Rotational spectrum 
--------------------
 
Rotational constants in cm-1:             0.095248             0.050716             0.033298 
Rotational constants in MHz :          2855.475451          1520.413362           998.247303 

Dipole components along the rotational axes: 
x,y,z [a.u.] :     0.553991    -0.240899    -0.000026 
x,y,z [Debye]:     1.408134    -0.612316    -0.000067 

 

Dipole moment calculation done in   0.0 sec 

Maximum memory used throughout the entire PROP-calculation: 12.8 MB

--------------------------------
SUGGESTED CITATIONS FOR THIS RUN
--------------------------------

Below you find a list of papers that are relevant to this ORCA run
We neither can nor want to force you to cite these papers, but we appreciate if you do
You receive ORCA, which is the product of decades of hard work by many enthusiastic individuals, for free
The only thing we kindly ask in return is that you cite our papers,
We deeply appreciate it, if you show your appreciation for ORCA by not just citing the generic ORCA reference.

Please note that relegating all ORCA citations to the supporting information does *not* help us.
SI sections are not indexed - citations you put there will not count into any citation statistics
But we need these citations in order to attract the funding resources that allow us to do what we are doing

Therefore, if you are a happy ORCA user, please consider citing a few of the papers listed below in the main body of your paper

In addition to the list printed below, the program has created the file xtb_opt.bibtex that contains the list in bibtex format
You can import this file easily into all common literature databanks and citation aid programs


List of essential papers. We consider these as the minimum necessary citations

  1. Neese,F.
     Software update: the ORCA program system, version 5.0
     WIRES Comput. Molec. Sci., 2022 12(1)e1606
     doi.org/10.1002/wcms.1606
  2. Grimme,S.; Hansen,A.; Ehlert,S.; Mewes,J.
     r2SCAN-3c: A 'Swiss army knife' composite electronic-structure method
     J. Chem. Phys., 2021 154 064103
     doi.org/10.1063/5.0040021

List of papers to cite with high priority. The work reported in these papers was absolutely
necessary for this run to complete.
Our perspective: the developers of density functionals and basis sets usually get cited in chemistry papers
Good! But without the algorithms to do something with them, the functionals or basis sets would not do anything.
Hence, in our opinion, the algorithm design and method developments papers are equally worthy of getting cited

  1. Neese,F.
     An improvement of the resolution of the identity approximation for the formation of the Coulomb matrix
     J. Comp. Chem., 2003 24(14)1740-1747
     doi.org/10.1002/jcc.10318
  2. Neese,F.
     The SHARK Integral Generation and Digestion System
     J. Comp. Chem., 2022  1-16
     doi.org/10.1002/jcc.26942
  3. Lehtola,S.; Steigemann,C.; Oliveira,M.; Marques,M.
     Recent developments in Libxc - A comprehensive library of functionals for density functional theory
     Software X, 2018 7 
     doi.org/10.1016/j.softx.2017.11.002
  4. Caldeweyher,E.; Bannwarth,C.; Grimme,S.
     Extension of the D3 dispersion coefficient model
     J. Chem. Phys., 2017 147 034112
     doi.org/10.1063/1.4993215
  5. Caldeweyher,E.; Ehlert,S.; Hansen,A.; Neugebauer,H.; Spicher,S.; Bannwarth,C.; Grimme,S.
     A generally applicable atomic-charge dependent London dispersion correction
     J. Chem. Phys., 2019 150 154122
     doi.org/10.1063/1.5090222
  6. Caldeweyher,E.; Mewes,J.; Ehlert,S.; Grimme,S.
     Extension and evaluation of the D4 London-dispersion model for periodic systems
     Phys. Chem. Chem. Phys., 2020 22(16)8499-8512
     doi.org/10.1039/D0CP00502A
  7. Wittmann,L.; Gordiy,I.; Friede,M.; Helmich-Paris,B.; Grimme,S.; Hansen,A.; Bursch,M.
     Extension of the D3 and D4 London Dispersion Corrections to the full Actinides Series
     Phys. Chem. Chem. Phys., 2024 26(32)21379-21394
     doi.org/https://doi.org/10.1039/D4CP01514B 

List of suggested additional citations. These are papers that are important in the 'surrounding' of 
of this run, or papers that preceded the highly important papers. If you like your results we are grateful for a citation.

  1. Neese,F.
     The ORCA program system
     WIRES Comput. Molec. Sci., 2012 2(1)73-78
     doi.org/10.1002/wcms.81
  2. Neese,F.
     Software update: the ORCA program system, version 4.0
     WIRES Comput. Molec. Sci., 2018 8(1)1-6
     doi.org/10.1002/wcms.1327
  3. Neese,F.; Wennmohs,F.; Becker,U.; Riplinger,C.
     The ORCA quantum chemistry program package
     J. Chem. Phys., 2020 152 Art. No. L224108
     doi.org/10.1063/5.0004608

List of optional additional citations

  1. Neese,F.
     Approximate second-order SCF convergence for spin unrestricted wavefunctions
     Chem. Phys. Lett., 2000 325(1-3)93-98
     doi.org/10.1016/s0009-2614(00)00662-x

Timings for individual modules:

Sum of individual times          ...        6.494 sec (=   0.108 min)
Startup calculation              ...        0.466 sec (=   0.008 min)   7.2 %
SCF iterations                   ...        2.184 sec (=   0.036 min)  33.6 %
Property calculations            ...        0.036 sec (=   0.001 min)   0.6 %
SCF Gradient evaluation          ...        3.808 sec (=   0.063 min)  58.6 %
                             ****ORCA TERMINATED NORMALLY****
TOTAL RUN TIME: 0 days 0 hours 0 minutes 6 seconds 555 msec
  ------------------------------------------------------------------------
          * successful ORCA run, taking over control again...

         :::::::::::::::::::::::::::::::::::::::::::::::::::::
         ::                  ORCA SUMMARY                   ::
         :::::::::::::::::::::::::::::::::::::::::::::::::::::
         :: total energy            -731.065281871025 Eh    ::
         :: gradient norm              0.000285429864 Eh/a0 ::
         :: HOMO-LUMO gap              0.000000000000 eV    ::
         :::::::::::::::::::::::::::::::::::::::::::::::::::::

           -------------------------------------------------
          |                Property Printout                |
           -------------------------------------------------
           -------------------------------------------------
          |                Geometry Summary                 |
           -------------------------------------------------

      molecular mass/u    :      126.5836741
   center of mass at/Å    :       -0.0051103       0.0095911      -0.0000633
  moments of inertia/u·Å² :        0.1769811E+03   0.3323909E+03   0.5062568E+03
rotational constants/cm⁻¹ :        0.9525103E-01   0.5071629E-01   0.3329858E-01

 * 14 selected distances

     #   Z          #   Z                                           value/Å
     2   6          3   6                                         1.3980442
     3   6          4   6                                         1.3902917
     4   6          5   6                                         1.3906039
     5   6          6   6                                         1.3904209
     2   6          7   6                                         1.3985707
     6   6          7   6                                         1.3891776
     7   6          8  17                                         1.7596033 (max)
     1   6          9   1                                         1.0949163
     1   6         10   1                                         1.0919864
     1   6         11   1                                         1.0949124
     3   6         12   1                                         1.0862525
     4   6         13   1                                         1.0849114
     5   6         14   1                                         1.0849517
     6   6         15   1                                         1.0838268 (min)

 * 3 distinct bonds (by element types)

   Z      Z             #   av. dist./Å        max./Å        min./Å
   1 H    6 C           7     1.0888225     1.0949163     1.0838268
   6 C    6 C           6     1.3928515     1.3985707     1.3891776
   6 C   17 Cl          1     1.7596033     1.7596033     1.7596033


optimized geometry written to: xtbopt.coord


           -------------------------------------------------
          | TOTAL ENERGY             -731.065281871025 Eh   |
          | GRADIENT NORM               0.000285429864 Eh/α |
           -------------------------------------------------

------------------------------------------------------------------------
 * finished run on 2025/04/09 at 00:42:01.392     
------------------------------------------------------------------------
 total:
 * wall-time:     0 d,  0 h,  0 min, 52.234 sec
 *  cpu-time:     0 d,  0 h,  0 min,  0.086 sec
 * ratio c/w:     0.002 speedup
 SCF:
 * wall-time:     0 d,  0 h,  0 min,  8.987 sec
 *  cpu-time:     0 d,  0 h,  0 min,  0.074 sec
 * ratio c/w:     0.008 speedup
 ANC optimizer:
 * wall-time:     0 d,  0 h,  0 min, 43.245 sec
 *  cpu-time:     0 d,  0 h,  0 min,  0.004 sec
 * ratio c/w:     0.000 speedup

