
                                 *****************
                                 * O   R   C   A *
                                 *****************

                                            #,                                       
                                            ###                                      
                                            ####                                     
                                            #####                                    
                                            ######                                   
                                           ########,                                 
                                     ,,################,,,,,                         
                               ,,#################################,,                 
                          ,,##########################################,,             
                       ,#########################################, ''#####,          
                    ,#############################################,,   '####,        
                  ,##################################################,,,,####,       
                ,###########''''           ''''###############################       
              ,#####''   ,,,,##########,,,,          '''####'''          '####       
            ,##' ,,,,###########################,,,                        '##       
           ' ,,###''''                  '''############,,,                           
         ,,##''                                '''############,,,,        ,,,,,,###''
      ,#''                                            '''#######################'''  
     '                                                          ''''####''''         
             ,#######,   #######,   ,#######,      ##                                
            ,#'     '#,  ##    ##  ,#'     '#,    #''#        ,####,   ,####,        
            ##       ##  ##   ,#'  ##            #'  '#       #'       #'  '#        
            ##       ##  #######   ##           ,######,      #####,   #    #        
            '#,     ,#'  ##    ##  '#,     ,#' ,#      #,     #,   #   #,  ,#        
             '#######'   ##     ##  '#######'  #'      '#     '####' # '####'        



                #########################################################
                #                        -***-                          #
                #          Department of theory and spectroscopy        #
                #                                                       #
                #                      Frank Neese                      #
                #                                                       #
                #     Directorship, Architecture, Infrastructure        #
                #                    SHARK, DRIVERS                     #
                #        Core code/Algorithms in most modules           #
                #                                                       #
                #        Max Planck Institute fuer Kohlenforschung      #
                #                Kaiser Wilhelm Platz 1                 #
                #                 D-45470 Muelheim/Ruhr                 #
                #                      Germany                          #
                #                                                       #
                #                  All rights reserved                  #
                #                        -***-                          #
                #########################################################


                         Program Version 6.0.1  -  RELEASE   -


 With contributions from (in alphabetic order):
[Max-Planck-Institut fuer Kohlenforschung]                               
  Daniel Aravena         : Magnetic Suceptibility                        
  Michael Atanasov       : Ab Initio Ligand Field Theory (pilot matlab implementation)
  Alexander A. Auer      : GIAO ZORA, VPT2 properties, NMR spectrum      
  Ute Becker             : All parallelization in ORCA, NUMFREQ, NUMCALC 
  Giovanni Bistoni       : ED, misc. LED, open-shell LED, HFLD           
  Martin Brehm           : Molecular dynamics                            
  Dmytro Bykov           : pre 5.0 version of the SCF Hessian            
  Marcos Casanova-Páez   : Triplet and SCS-CIS(D). UHF-(DLPNO)-IP/EA/STEOM-CCSD. UHF-CVS-IP/STEOM-CCSD   
  Vijay G. Chilkuri      : MRCI spin determinant printing, contributions to CSF-ICE 
  Pauline Colinet        : FMM embedding                                 
  Dipayan Datta          : RHF DLPNO-CCSD density                        
  Achintya Kumar Dutta   : EOM-CC, STEOM-CC                              
  Nicolas Foglia         : Exact transition moments, OPA infrastructure, MCD improvements    
  Dmitry Ganyushin       : Spin-Orbit,Spin-Spin,Magnetic field MRCI      
  Miquel Garcia-Rates    : C-PCM and meta-GGA Hessian, CCSD/C-PCM, Gaussian charge scheme 
  Tiago L. C. Gouveia    : GS-ROHF, GS-ROCIS                             
  Yang Guo               : DLPNO-NEVPT2, F12-NEVPT2, CIM, IAO-localization        
  Andreas Hansen         : Spin unrestricted coupled pair/coupled cluster methods 
  Ingolf Harden          : AUTO-CI MPn and infrastructure                
  Benjamin Helmich-Paris : MC-RPA, TRAH-(SCF,CASSCF), AVAS, COSX integrals, SCF dyn. polar. 
  Lee Huntington         : MR-EOM, pCC                                   
  Robert Izsak           : Overlap fitted RIJCOSX, COSX-SCS-MP3, EOM     
  Riya Kayal             : Wick's Theorem for AUTO-CI, AUTO-CI UHF-CCSDT 
  Emily Kempfer          : AUTO-CI, RHF CISDT and CCSDT                  
  Christian Kollmar      : KDIIS, OOCD, Brueckner-CCSD(T), CCSD density, CASPT2, CASPT2-K, improved NEVPT2 
  Axel Koslowski         : Symmetry handling                             
  Simone Kossmann        : meta-GGA functionals, TD-DFT gradient, OOMP2, (MP2 Hessian; deprecated post 5.0) 
  Lucas Lang             : DCDCAS                                        
  Marvin Lechner         : AUTO-CI (C++ implementation), FIC-MRCC        
  Spencer Leger          : CASSCF response                               
  Dagmar Lenk            : GEPOL surface, SMD, ORCA-2-JSON               
  Dimitrios Liakos       : Extrapolation schemes; Compound Job, initial MDCI parallelization 
  Dimitrios Manganas     : Further ROCIS development; embedding schemes. LFT, Crystal Embedding 
  Dimitrios Pantazis     : SARC Basis sets                               
  Anastasios Papadopoulos: AUTO-CI, single reference methods and gradients 
  Taras Petrenko         : pre 6.0 DFT Hessian and TD-DFT gradient, (ASA, deprecated), ECA, 1-Electron XAS/XES, NRVS 
  Peter Pinski           : DLPNO-MP2, DLPNO-MP2 Gradient                 
  Christoph Reimann      : Effective Core Potentials                     
  Marius Retegan         : Local ZFS, SOC                                
  Christoph Riplinger    : Optimizer, TS searches, QM/MM, DLPNO-CCSD(T), (RO)-DLPNO pert. Triples 
  Michael Roemelt        : Original ROCIS implementation                 
  Masaaki Saitow         : Open-shell DLPNO-CCSD energy and density      
  Barbara Sandhoefer     : DKH picture change effects                    
  Kantharuban Sivalingam : CASSCF convergence/infrastructure, NEVPT2 and variants, FIC-MRCI 
  Bernardo de Souza      : ESD, SOC TD-DFT                               
  Georgi L. Stoychev     : AutoAux, RI-MP2 NMR, DLPNO-MP2 response, X2C  
  Van Anh Tran           : RI-MP2 g-tensors                              
  Willem Van den Heuvel  : Paramagnetic NMR                              
  Zikuan Wang            : NOTCH, Electric field optimization            
  Frank Wennmohs         : Technical directorship and infrastructure     
  Hang Xu                : AUTO-CI-Response properties                   
                                                                         
[FACCTs GmbH]                                                            
  Markus Bursch, Miquel Garcia-Rates, Christoph Riplinger, Bernardo de Souza, Georgi L. Stoychev 
                                                                 
  APM, Basis sets (HGBS, AHGBS, def-TZVP (Ac-Lr), def2-XVPD (La-Lu)), CI-OPT, improved COSX, DLPNO-Multilevel,           
  DOCKER, DRACO, updates on ESD, GOAT, IRC, LR-CPCM, MBIS, meta-GGA TD-DFT gradient, ML-optimized integration grids, 
  MM, NACMEs, nearIR, NEB, NEB-TS, NL-DFT gradient (VV10), 2- and 3-layer-ONIOM, interface openCOSMO-RS, QMMM,   
  Crystal-QMMM, SF, symmetry and pop. for TD-DFT, r2SCAN hybrids, SOLVATOR                                   
                                                                         
[Other institutions]                                                     
  V. Asgeirsson          : NEB                                           
  Christoph Bannwarth    : sTDA-DFT, sTD-DFT, PBEh-3c, B97-3c, D3        
  Sebastian Ehlert       : rSCAN, r2SCAN, r2SCAN-3c, D4, dhf basis sets  
  Marvin Friede          : D4 for Fr, Ra, Ac-Lr                          
  Lars Goerigk           : TD-DFT with DH, B97 family of functionals     
  Stefan Grimme          : VdW corrections, initial TS optimization, DFT functionals, gCP, sTDA/sTD-DF 
  Waldemar Hujo          : DFT-NL                                        
  H. Jonsson             : NEB                                           
  Holger Kruse           : gCP                                           
  Marcel Mueller         : wB97X-3c, vDZP basis set                      
  Hagen Neugebauer       : wr2SCAN                                       
  Tobias Risthaus        : range-separated hybrid DFT                    
  Lukas Wittmann         : regularized MP2, r2SCAN double-hybrids, wr2SCAN        
                                                                         
We gratefully acknowledge several colleagues who have allowed us to      
interface, adapt or use parts of their codes:                            
  Ed Valeev, F. Pavosevic, A. Kumar             : LibInt (2-el integral package), F12 methods 
  Garnet Chan, S. Sharma, J. Yang, R. Olivares  : DMRG                   
  Ulf Ekstrom                                   : XCFun DFT Library      
  Mihaly Kallay                                 : mrcc  (arbitrary order and MRCC methods)
  Frank Weinhold                                : gennbo (NPA and NBO analysis)           
  Simon Mueller                                 : openCOSMO-RS                            
  Christopher J. Cramer and Donald G. Truhlar   : smd solvation model                     
  S Lehtola, MJT Oliveira, MAL Marques          : LibXC Library                           
  Liviu Ungur et al                             : ANISO software                          


 Your calculation uses the libint2 library for the computation of 2-el integrals
 For citations please refer to: http://libint.valeyev.net

 Your ORCA version has been built with support for libXC version: 6.2.2
 For citations please refer to: https://libxc.gitlab.io

 This ORCA versions uses:
   CBLAS   interface :  Fast vector & matrix operations
   LAPACKE interface :  Fast linear algebra routines
   SCALAPACK package :  Parallel linear algebra routines
   Shared memory     :  Shared parallel matrices
   BLAS/LAPACK       :  OpenBLAS 0.3.27  USE64BITINT DYNAMIC_ARCH NO_AFFINITY Zen SINGLE_THREADED
        Core in use  :  Zen
   Copyright (c) 2011-2014, The OpenBLAS Project


Your calculation utilizes the geometrical counterpoise correction gCP
Please cite in your paper:
H.Kruse, S. Grimme J.Chem.Phys., 136, (2012), 154101 
   

Your calculation utilizes the DFT-NL dispersion correction.
Cite in your paper:
Vydrov, O. A.; Van Voorhis, T. J. Chem. Phys. 2010, 133, 244103
Hujo, W.; Grimme, S. J. Chem. Theory Comput. 2011, 7, 3866 
   

================================================================================

----- Orbital basis set information -----
Your calculation utilizes the basis: def2-TZVP
   F. Weigend and R. Ahlrichs, Phys. Chem. Chem. Phys. 7, 3297 (2005).

----- AuxJ basis set information -----
Your calculation utilizes the auxiliary basis: def2/J
   F. Weigend, Phys. Chem. Chem. Phys. 8, 1057 (2006).

================================================================================
                                        WARNINGS
                       Please study these warnings very carefully!
================================================================================


================================================================================
                                       INPUT FILE
================================================================================
NAME = sp.inp
|  1> ! wb97x-v def2-tzvp def2/J RIJCOSX DEFGRID2 scfconv7 GCP(DFT/TZ) printgap
|  2> %output
|  3>     printlevel normal
|  4> end
|  5> * xyz 0 1
|  6> C -2.5616135535194187 0.6243185153064598 5.9477964254089634e-05
|  7> C -1.2229419062058913 -0.060685865779612005 5.347079552891272e-05
|  8> C -1.1510107898076791 -1.4553439235980996 4.8287320998905435e-05
|  9> C 0.08004329661143035 -2.099618842501786 -2.3096254701683762e-05
| 10> C 1.2518856101252087 -1.3559794496984023 -2.8843717386187128e-05
| 11> C 1.1830617741268041 0.03680421550554052 -1.858347965184212e-06
| 12> C -0.04660366215940605 0.7072366058635333 -1.9956634774715457e-05
| 13> C -0.10363321936766039 2.209613737835765 -0.00014219845127287826
| 14> O 2.322741707298005 0.8038176525095454 2.6853511329693717e-05
| 15> H -2.6834936866199124 1.2660704850671773 -0.8801615409681323
| 16> H -3.3733894149413834 -0.10625670222686512 0.0011247344253946137
| 17> H -2.682665738688531 1.2677487825978058 0.8791567878833697
| 18> H -2.0679142785405324 -2.036535639187227 9.250862430006727e-05
| 19> H 0.13043515092309638 -3.1837005715016624 -5.669713623927513e-05
| 20> H 2.2198994966144565 -1.851819606038248 -5.408864912910949e-05
| 21> H -0.640261131329261 2.582191048619418 -0.8803030504873411
| 22> H -0.6394471291773739 2.5824070516692577 0.880425362418391
| 23> H 0.8941543160610752 2.6463348889736884 -0.000643272719741593
| 24> H 3.0869280388699645 0.2175936259283125 0.00014848481706946793
| 25> *
| 26> 
| 27>                          ****END OF INPUT****
================================================================================

                       ****************************
                       * Single Point Calculation *
                       ****************************

---------------------------------
CARTESIAN COORDINATES (ANGSTROEM)
---------------------------------
  C     -2.561614    0.624319    0.000059
  C     -1.222942   -0.060686    0.000053
  C     -1.151011   -1.455344    0.000048
  C      0.080043   -2.099619   -0.000023
  C      1.251886   -1.355979   -0.000029
  C      1.183062    0.036804   -0.000002
  C     -0.046604    0.707237   -0.000020
  C     -0.103633    2.209614   -0.000142
  O      2.322742    0.803818    0.000027
  H     -2.683494    1.266070   -0.880162
  H     -3.373389   -0.106257    0.001125
  H     -2.682666    1.267749    0.879157
  H     -2.067914   -2.036536    0.000093
  H      0.130435   -3.183701   -0.000057
  H      2.219899   -1.851820   -0.000054
  H     -0.640261    2.582191   -0.880303
  H     -0.639447    2.582407    0.880425
  H      0.894154    2.646335   -0.000643
  H      3.086928    0.217594    0.000148

----------------------------
CARTESIAN COORDINATES (A.U.)
----------------------------
  NO LB      ZA    FRAG     MASS         X           Y           Z
   0 C     6.0000    0    12.011   -4.840748    1.179791    0.000112
   1 C     6.0000    0    12.011   -2.311025   -0.114680    0.000101
   2 C     6.0000    0    12.011   -2.175095   -2.750201    0.000091
   3 C     6.0000    0    12.011    0.151260   -3.967705   -0.000044
   4 C     6.0000    0    12.011    2.365721   -2.562430   -0.000055
   5 C     6.0000    0    12.011    2.235663    0.069550   -0.000004
   6 C     6.0000    0    12.011   -0.088068    1.336483   -0.000038
   7 C     6.0000    0    12.011   -0.195838    4.175565   -0.000269
   8 O     8.0000    0    15.999    4.389346    1.518995    0.000051
   9 H     1.0000    0     1.008   -5.071068    2.392526   -1.663264
  10 H     1.0000    0     1.008   -6.374782   -0.200796    0.002125
  11 H     1.0000    0     1.008   -5.069504    2.395698    1.661366
  12 H     1.0000    0     1.008   -3.907792   -3.848495    0.000175
  13 H     1.0000    0     1.008    0.246487   -6.016322   -0.000107
  14 H     1.0000    0     1.008    4.195002   -3.499432   -0.000102
  15 H     1.0000    0     1.008   -1.209918    4.879634   -1.663532
  16 H     1.0000    0     1.008   -1.208380    4.880042    1.663763
  17 H     1.0000    0     1.008    1.689707    5.000848   -0.001216
  18 H     1.0000    0     1.008    5.833449    0.411192    0.000281

--------------------------------
INTERNAL COORDINATES (ANGSTROEM)
--------------------------------
 C      0   0   0     0.000000000000     0.00000000     0.00000000
 C      1   0   0     1.503752899071     0.00000000     0.00000000
 C      2   1   0     1.396511791490   120.05151353     0.00000000
 C      3   2   1     1.389454691565   120.57789280   179.99684801
 C      4   3   2     1.387881102366   119.97578511     0.00000000
 C      5   4   3     1.394483079563   119.56985610     0.00000000
 C      6   5   4     1.400555845215   121.42883977     0.00000000
 C      7   6   5     1.503459155418   120.77377146   180.00673294
 O      6   5   4     1.373746688237   121.11191318   179.99836857
 H      1   2   3     1.096124719047   111.44960485   239.63125178
 H      1   2   3     1.092117819849   110.91464350     0.05985427
 H      1   2   3     1.096115058152   111.45174009   120.49164368
 H      3   2   1     1.085585473316   119.41664059     0.00000000
 H      4   3   2     1.085252291065   120.28680186   180.00182745
 H      5   4   3     1.087615899899   120.47857339   179.99814222
 H      8   7   6     1.096114270441   110.99574497   120.67530221
 H      8   7   6     1.096116157184   110.99804810   239.37387946
 H      8   7   6     1.089176560886   111.46461313     0.02457908
 H      9   6   5     0.963140370609   108.56653916     0.00000000

---------------------------
INTERNAL COORDINATES (A.U.)
---------------------------
 C      0   0   0     0.000000000000     0.00000000     0.00000000
 C      1   0   0     2.841681152334     0.00000000     0.00000000
 C      2   1   0     2.639024828708   120.05151353     0.00000000
 C      3   2   1     2.625688842551   120.57789280   179.99684801
 C      4   3   2     2.622715189916   119.97578511     0.00000000
 C      5   4   3     2.635191118762   119.56985610     0.00000000
 C      6   5   4     2.646666982719   121.42883977     0.00000000
 C      7   6   5     2.841126057277   120.77377146   180.00673294
 O      6   5   4     2.596005018149   121.11191318   179.99836857
 H      1   2   3     2.071375527621   111.44960485   239.63125178
 H      1   2   3     2.063803585490   110.91464350     0.05985427
 H      1   2   3     2.071357271175   111.45174009   120.49164368
 H      3   2   1     2.051459239531   119.41664059     0.00000000
 H      4   3   2     2.050829616323   120.28680186   180.00182745
 H      5   4   3     2.055296189707   120.47857339   179.99814222
 H      8   7   6     2.071355782616   110.99574497   120.67530221
 H      8   7   6     2.071359348045   110.99804810   239.37387946
 H      8   7   6     2.058245411561   111.46461313     0.02457908
 H      9   6   5     1.820071528974   108.56653916     0.00000000

---------------------
BASIS SET INFORMATION
---------------------
There are 3 groups of distinct atoms

 Group   1 Type C   : 11s6p2d1f contracted to 5s3p2d1f pattern {62111/411/11/1}
 Group   2 Type O   : 11s6p2d1f contracted to 5s3p2d1f pattern {62111/411/11/1}
 Group   3 Type H   : 5s1p contracted to 3s1p pattern {311/1}

Atom   0C    basis set group =>   1
Atom   1C    basis set group =>   1
Atom   2C    basis set group =>   1
Atom   3C    basis set group =>   1
Atom   4C    basis set group =>   1
Atom   5C    basis set group =>   1
Atom   6C    basis set group =>   1
Atom   7C    basis set group =>   1
Atom   8O    basis set group =>   2
Atom   9H    basis set group =>   3
Atom  10H    basis set group =>   3
Atom  11H    basis set group =>   3
Atom  12H    basis set group =>   3
Atom  13H    basis set group =>   3
Atom  14H    basis set group =>   3
Atom  15H    basis set group =>   3
Atom  16H    basis set group =>   3
Atom  17H    basis set group =>   3
Atom  18H    basis set group =>   3
---------------------------------
AUXILIARY/J BASIS SET INFORMATION
---------------------------------
There are 3 groups of distinct atoms

 Group   1 Type C   : 12s5p4d2f1g contracted to 6s4p3d1f1g pattern {711111/2111/211/2/1}
 Group   2 Type O   : 12s5p4d2f1g contracted to 6s4p3d1f1g pattern {711111/2111/211/2/1}
 Group   3 Type H   : 5s2p1d contracted to 3s1p1d pattern {311/2/1}

Atom   0C    basis set group =>   1
Atom   1C    basis set group =>   1
Atom   2C    basis set group =>   1
Atom   3C    basis set group =>   1
Atom   4C    basis set group =>   1
Atom   5C    basis set group =>   1
Atom   6C    basis set group =>   1
Atom   7C    basis set group =>   1
Atom   8O    basis set group =>   2
Atom   9H    basis set group =>   3
Atom  10H    basis set group =>   3
Atom  11H    basis set group =>   3
Atom  12H    basis set group =>   3
Atom  13H    basis set group =>   3
Atom  14H    basis set group =>   3
Atom  15H    basis set group =>   3
Atom  16H    basis set group =>   3
Atom  17H    basis set group =>   3
Atom  18H    basis set group =>   3

Checking for AutoStart:
The File: sp.gbw exists
Trying to determine its content:
     ... Fine, the file contains calculation information
     ... Fine, the calculation information was read
     ... Fine, the file contains a basis set
     ... Fine, the basis set was read
     ... Fine, the file contains a geometry
     ... Fine, the geometry was read
     ... Fine, the file contains a set of orbitals
     ... Fine, the orbitals can be read
     => possible old guess file was deleted
     => GBW file was renamed to GES file
     => GES file is set as startup file
     => Guess is set to MORead
     ... now leaving AutoStart

------------------------------------------------------------------------------
                             ORCA STARTUP CALCULATIONS
                           -- RI-GTO INTEGRALS CHOSEN --
------------------------------------------------------------------------------
------------------------------------------------------------------------------
                   ___                                                        
                  /   \      - P O W E R E D   B Y -                         
                 /     \                                                     
                 |  |  |   _    _      __       _____    __    __             
                 |  |  |  | |  | |    /  \     |  _  \  |  |  /  |          
                  \  \/   | |  | |   /    \    | | | |  |  | /  /          
                 / \  \   | |__| |  /  /\  \   | |_| |  |  |/  /          
                |  |  |   |  __  | /  /__\  \  |    /   |      \           
                |  |  |   | |  | | |   __   |  |    \   |  |\   \          
                \     /   | |  | | |  |  |  |  | |\  \  |  | \   \       
                 \___/    |_|  |_| |__|  |__|  |_| \__\ |__|  \__/        
                                                                              
                      - O R C A' S   B I G   F R I E N D -                    
                                      &                                       
                       - I N T E G R A L  F E E D E R -                       
                                                                              
 v1 FN, 2020, v2 2021, v3 2022-2024                                           
------------------------------------------------------------------------------


----------------------
SHARK INTEGRAL PACKAGE
----------------------

Number of atoms                             ...     19
Number of basis functions                   ...    339
Number of shells                            ...    139
Maximum angular momentum                    ...      3
Integral batch strategy                     ... SHARK/LIBINT Hybrid
RI-J (if used) integral strategy            ... SPLIT-RIJ (Revised 2003 algorithm where possible)
Printlevel                                  ...      1
Contraction scheme used                     ... SEGMENTED contraction
Prescreening option                         ... SCHWARTZ
   Thresh                                   ... 3.000e-11
   Tcut                                     ... 1.000e-12
   Tpresel                                  ... 1.000e-12 
Coulomb Range Separation                    ... NOT USED
Exchange Range Separation                   ... Long Range
   Mu parameter                             ... 3.000e-01
   Scaling (regular/separated)              ... 1.670e-01 8.330e-01
Multipole approximations                    ... NOT USED
Finite Nucleus Model                        ... NOT USED
CABS basis                                  ... NOT available
Auxiliary Coulomb fitting basis             ... AVAILABLE
   # of basis functions in Aux-J            ...    551
   # of shells in Aux-J                     ...    185
   Maximum angular momentum in Aux-J        ...      4
Auxiliary J/K fitting basis                 ... NOT available
Auxiliary Correlation fitting basis         ... NOT available
Auxiliary 'external' fitting basis          ... NOT available

Checking pre-screening integrals            ... done (  0.0 sec) Dimension = 139
Check shell pair data                       ... done (  0.0 sec)
Shell pair information
Shell pair cut-off parameter TPreSel        ...   1.0e-12
Total number of shell pairs                 ...      9730
Shell pairs after pre-screening             ...      8893
Total number of primitive shell pairs       ...     29148
Primitive shell pairs kept                  ...     19937
          la=0 lb=0:   2487 shell pairs
          la=1 lb=0:   2541 shell pairs
          la=1 lb=1:    665 shell pairs
          la=2 lb=0:   1257 shell pairs
          la=2 lb=1:    636 shell pairs
          la=2 lb=2:    164 shell pairs
          la=3 lb=0:    617 shell pairs
          la=3 lb=1:    323 shell pairs
          la=3 lb=2:    159 shell pairs
          la=3 lb=3:     44 shell pairs

Calculating one electron integrals          ... done (  0.0 sec)
Calculating RI/J V-Matrix + Cholesky decomp.... done (  0.0 sec)
Calculating Nuclear repulsion               ... done (  0.0 sec) ENN=    431.303718350475 Eh

Diagonalization of the overlap matrix:
Smallest eigenvalue                        ... 6.862e-06
Time for diagonalization                   ...    0.009 sec
Threshold for overlap eigenvalues          ... 1.000e-07
Number of eigenvalues below threshold      ... 0
Time for construction of square roots      ...    0.004 sec
Total time needed                          ...    0.013 sec

-------------------
DFT GRID GENERATION
-------------------

General Integration Accuracy     IntAcc      ... 4.388
Radial Grid Type                 RadialGrid  ... OptM3 with GC (2021)
Angular Grid (max. ang.)         AngularGrid ... 4 (Lebedev-302)
Angular grid pruning method      GridPruning ... 4 (adaptive)
Weight generation scheme         WeightScheme... mBecke (2022)
Basis function cutoff            BFCut       ... 1.0000e-11
Integration weight cutoff        WCut        ... 1.0000e-14
Partially contracted basis set               ... off
Rotationally invariant grid construction     ... off
Angular grids for H and He will be reduced by one unit

Total number of grid points                  ...    86115
Total number of batches                      ...     1357
Average number of points per batch           ...       63
Average number of grid points per atom       ...     4532

--------------------
COSX GRID GENERATION
--------------------

GRIDX 1
-------
General Integration Accuracy     IntAcc      ... 3.816
Radial Grid Type                 RadialGrid  ... OptM3 with GC (2021)
Angular Grid (max. ang.)         AngularGrid ... 1 (Lebedev-50)
Angular grid pruning method      GridPruning ... 4 (adaptive)
Weight generation scheme         WeightScheme... mBecke (2022)
Basis function cutoff            BFCut       ... 1.0000e-11
Integration weight cutoff        WCut        ... 1.0000e-14
Partially contracted basis set               ... on
Rotationally invariant grid construction     ... off
Angular grids for H and He will be reduced by one unit

Total number of grid points                  ...    11028
Total number of batches                      ...       96
Average number of points per batch           ...      114
Average number of grid points per atom       ...      580
UseSFitting                                  ... on

GRIDX 2
-------
General Integration Accuracy     IntAcc      ... 4.020
Radial Grid Type                 RadialGrid  ... OptM3 with GC (2021)
Angular Grid (max. ang.)         AngularGrid ... 2 (Lebedev-110)
Angular grid pruning method      GridPruning ... 4 (adaptive)
Weight generation scheme         WeightScheme... mBecke (2022)
Basis function cutoff            BFCut       ... 1.0000e-11
Integration weight cutoff        WCut        ... 1.0000e-14
Partially contracted basis set               ... on
Rotationally invariant grid construction     ... off
Angular grids for H and He will be reduced by one unit

Total number of grid points                  ...    23608
Total number of batches                      ...      194
Average number of points per batch           ...      121
Average number of grid points per atom       ...     1243
UseSFitting                                  ... on

GRIDX 3
-------
General Integration Accuracy     IntAcc      ... 4.338
Radial Grid Type                 RadialGrid  ... OptM3 with GC (2021)
Angular Grid (max. ang.)         AngularGrid ... 3 (Lebedev-194)
Angular grid pruning method      GridPruning ... 4 (adaptive)
Weight generation scheme         WeightScheme... mBecke (2022)
Basis function cutoff            BFCut       ... 1.0000e-11
Integration weight cutoff        WCut        ... 1.0000e-14
Partially contracted basis set               ... on
Rotationally invariant grid construction     ... off
Angular grids for H and He will be reduced by one unit

Total number of grid points                  ...    51768
Total number of batches                      ...      415
Average number of points per batch           ...      124
Average number of grid points per atom       ...     2725
UseSFitting                                  ... on
Initializing property integral containers    ... done (  0.0 sec)

SHARK setup successfully completed in   1.6 seconds

Maximum memory used throughout the entire STARTUP-calculation: 53.7 MB
-------------------------------------------------------------------------------
                                 ORCA GUESS
                   Start orbitals & Density for SCF / CASSCF
-------------------------------------------------------------------------------

------------
SCF SETTINGS
------------
Hamiltonian:
 Density Functional     Method          .... DFT(GTOs)
 Exchange Functional    Exchange        .... WB97X-V
 Correlation Functional Correlation     .... WB97X-V
 Gradients option       PostSCFGGA      .... off
 Hybrid DFT is turned on
   Fraction HF Exchange ScalHFX         ....  0.167000
   Scaling of DF-GGA-X  ScalDFX         ....  0.000000
   Scaling of DF-GGA-C  ScalDFC         ....  1.000000
   Scaling of DF-LDA-C  ScalLDAC        ....  1.000000
   Perturbative correction              ....  0.000000
 Long-range corrected/Screened/Range-Separated Hybrid DFT is turned on
   Amount of maximum screened exact exchange              ....  0.833000
   Range separation parameter mu (erf(mu*r12)/r12)        ....  0.300000
   NL short-range parameter             ....  6.000000
   NL long-range parameter              ....  0.010000
 RI-approximation to the Coulomb term is turned on
   Number of AuxJ basis functions       .... 551
   RIJ-COSX (HFX calculated with COS-X)).... on


General Settings:
 Integral files         IntName         .... sp
 Hartree-Fock type      HFTyp           .... RHF
 Total Charge           Charge          ....    0
 Multiplicity           Mult            ....    1
 Number of Electrons    NEL             ....   66
 Basis Dimension        Dim             ....  339
 Nuclear Repulsion      ENuc            ....    431.3037183505 Eh

Convergence Acceleration:
 AO-DIIS                CNVDIIS         .... on
   Start iteration      DIISMaxIt       ....    12
   Startup error        DIISStart       ....  0.200000
   # of expansion vecs  DIISMaxEq       ....     5
   Bias factor          DIISBfac        ....   1.050
   Max. coefficient     DIISMaxC        ....  10.000
 MO-DIIS                CNVKDIIS        .... off
 Trust-Rad. Augm. Hess. CNVTRAH         .... auto
   Auto Start mean grad. ratio tolernc. ....  1.125000
   Auto Start start iteration           ....     1
   Auto Start num. interpolation iter.  ....    10
   Max. Number of Micro iterations      ....    24
   Max. Number of Macro iterations      .... Maxiter - #DIIS iter
   Number of Davidson start vectors     ....     2
   Converg. threshold    (grad. norm)   ....   1.000e-04
   Grad. Scal. Fac. for Micro threshold ....   0.100
   Minimum threshold for Micro iter.    ....   1.000e-02
   NR start threshold (gradient norm)   ....   1.000e-04
   Initial trust radius                 ....   0.400
   Minimum AH scaling param. (alpha)    ....   1.000
   Maximum AH scaling param. (alpha)    .... 1000.000
   Quad. conv. algorithm                .... NR
   White noise on init. David. guess    .... on
   Maximum white noise                  ....   0.010
   Pseudo random numbers                .... off
   Inactive MOs                         .... canonical
   Orbital update algorithm             .... Taylor
   Preconditioner                       .... Diag
   Full preconditioner red. dimension   ....   250
 SOSCF                  CNVSOSCF        .... on
   Start iteration      SOSCFMaxIt      ....   150
   Startup grad/error   SOSCFStart      ....  0.003300
   Hessian update       SOSCFHessUp     .... L-BFGS
 Level Shifting         CNVShift        .... on
   Level shift para.    LevelShift      ....    0.2500
   Turn off err/grad.   ShiftErr        ....    0.0010
 Zerner damping         CNVZerner       .... off
 Static damping         CNVDamp         .... on
   Fraction old density DampFac         ....    0.7000
   Max. Damping (<1)    DampMax         ....    0.9800
   Min. Damping (>=0)   DampMin         ....    0.0000
   Turn off err/grad.   DampErr         ....    0.1000

SCF Procedure:
 Maximum # iterations   MaxIter         ....   125
 SCF integral mode      SCFMode         .... Direct
   Integral package                     .... SHARK and LIBINT hybrid scheme
 Reset frequency        DirectResetFreq ....    20
 Integral Threshold     Thresh          ....  3.000e-11 Eh
 Primitive CutOff       TCut            ....  1.000e-12 Eh

Convergence Tolerance:
 Convergence Check Mode ConvCheckMode   .... Total+1el-Energy
 Convergence forced     ConvForced      .... 0
 Energy Change          TolE            ....  1.000e-07 Eh
 1-El. energy change                    ....  1.000e-04 Eh
 Orbital Gradient       TolG            ....  1.000e-04
 Orbital Rotation angle TolX            ....  1.000e-04
 DIIS Error             TolErr          ....  1.000e-07

---------------------
INITIAL GUESS: MOREAD
---------------------
Guess MOs are being read from file: sp.ges
Input Geometry matches current geometry (good)
Atom 0: N(Shells)= 11 and 9 - projection required
Input basis set needs projection
NBasis(read)= 226
NBasis(calc)= 339
Basis set overlap was calculated
Using GuessMode=FMatrix for the initial guess
C*T matrix was formed
Effective Fockian was calculated
Effective Fockian was diagonalized
Initial density was built
                      ------------------
                      INITIAL GUESS DONE (   0.0 sec)
                      ------------------
             **** ENERGY FILE WAS UPDATED (sp.en.tmp) ****
Finished Guess after   0.1 sec
Maximum memory used throughout the entire GUESS-calculation: 34.7 MB

-------------------------------------------------------------------------------------------
                                      ORCA LEAN-SCF
                              memory conserving SCF solver
-------------------------------------------------------------------------------------------

----------------------------------------D-I-I-S--------------------------------------------
Iteration    Energy (Eh)           Delta-E    RMSDP     MaxDP     DIISErr   Damp  Time(sec)
-------------------------------------------------------------------------------------------
               ***  Starting incremental Fock matrix formation  ***
    1    -386.3615626434088313     0.00e+00  2.67e-03  1.42e-01  7.24e-02  0.700  15.6
    2    -386.3674257476590697    -5.86e-03  2.15e-03  1.11e-01  5.25e-02  0.700   7.5
                               ***Turning on AO-DIIS***
    3    -386.3718353018918492    -4.41e-03  1.66e-03  8.32e-02  3.74e-02  0.700   7.3
    4    -386.3750727143240624    -3.24e-03  4.00e-03  1.98e-01  2.63e-02  0.000   7.4
                              *** Initializing SOSCF ***
---------------------------------------S-O-S-C-F--------------------------------------
Iteration    Energy (Eh)           Delta-E    RMSDP     MaxDP     MaxGrad    Time(sec)
--------------------------------------------------------------------------------------
    5    -386.3832619601470810    -8.19e-03  9.71e-05  3.63e-03  1.38e-03     7.5
               *** Restarting incremental Fock matrix formation ***
    6    -386.3832825274016045    -2.06e-05  3.58e-05  1.20e-03  4.02e-04    15.4
    7    -386.3832872744341671    -4.75e-06  2.05e-05  9.54e-04  9.83e-05    11.6
    8    -386.3832877501553753    -4.76e-07  4.82e-06  1.88e-04  6.73e-05    11.1
    9    -386.3832879344601565    -1.84e-07  1.83e-06  5.46e-05  1.91e-05     9.9
                  *** Gradient check signals convergence ***

               *****************************************************
               *                     SUCCESS                       *
               *           SCF CONVERGED AFTER   9 CYCLES          *
               *****************************************************


------------------
NL GRID GENERATION
------------------

General Integration Accuracy     IntAcc      ... 4.004
Radial Grid Type                 RadialGrid  ... OptM3 with GC (2021)
Angular Grid (max. ang.)         AngularGrid ... 2 (Lebedev-110)
Angular grid pruning method      GridPruning ... 4 (adaptive)
Weight generation scheme         WeightScheme... mBecke (2022)
Basis function cutoff            BFCut       ... 1.0000e-10
Integration weight cutoff        WCut        ... 1.0000e-14
Partially contracted basis set               ... off
Rotationally invariant grid construction     ... off
Angular grids for H and He will be reduced by one unit

Total number of grid points                  ...    26767
Total number of batches                      ...      427
Average number of points per batch           ...       62
Average number of grid points per atom       ...     1409
Final grid set up in    0.2 sec

-------------------------------------------------------------------------------
                    post-SCF DFT-NL dispersion correction                      
-------------------------------------------------------------------------------

SCF Energy:     -386.383287934 
NL    Energy:      0.249738455 
SC+NL Energy:   -386.133549479 
NL done in  :              2.3 sec
-------------------------------------------------------------------------------
Recomputing exchange energy using gridx3       ... done (   29.471 sec)
Old exchange energy                            :    -17.492527444 Eh
New exchange energy                            :    -17.492502112 Eh
Exchange energy change after final integration :      0.000025332 Eh
Total energy after final integration           :   -386.133524147 Eh
             **** ENERGY FILE WAS UPDATED (sp.en.tmp) ****

----------------
TOTAL SCF ENERGY
----------------

Total Energy       :       -386.13352414741894 Eh          -10507.22737 eV

Components:
Nuclear Repulsion  :        431.30371835047487 Eh           11736.37084 eV
Electronic Energy  :       -817.68700628493502 Eh          -22250.39463 eV
One Electron Energy:      -1376.70792132514316 Eh          -37462.12708 eV
Two Electron Energy:        559.02091504020814 Eh           15211.73245 eV

Virial components:
Potential Energy   :       -770.72680811638770 Eh          -20972.54267 eV
Kinetic Energy     :        384.59328396896882 Eh           10465.31530 eV
Virial Ratio       :          2.00400485458965

DFT components:
N(Alpha)           :       33.000093764798 electrons
N(Beta)            :       33.000093764798 electrons
N(Total)           :       66.000187529596 electrons
E(X)               :      -35.770985700597 Eh       
E(C)               :       -2.718508857569 Eh       
NL Energy, E(C,NL) :        0.249738455302 Eh       
E(XC)              :      -38.239756102864 Eh       

---------------
SCF CONVERGENCE
---------------

  Last Energy change         ...    1.8430e-07  Tolerance :   1.0000e-07
  Last MAX-Density change    ...    5.4647e-05  Tolerance :   1.0000e-05
  Last RMS-Density change    ...    1.8284e-06  Tolerance :   1.0000e-06
  Last DIIS Error            ...    1.3805e-03  Tolerance :   1.0000e-07
  Last Orbital Gradient      ...    1.9071e-05  Tolerance :   1.0000e-04
  Last Orbital Rotation      ...    3.7011e-05  Tolerance :   1.0000e-04


----------------
ORBITAL ENERGIES
----------------

  NO   OCC          E(Eh)            E(eV) 
   0   2.0000     -19.241985      -523.6010 
   1   2.0000     -10.332259      -281.1551 
   2   2.0000     -10.280896      -279.7574 
   3   2.0000     -10.274264      -279.5769 
   4   2.0000     -10.272873      -279.5391 
   5   2.0000     -10.269592      -279.4498 
   6   2.0000     -10.265875      -279.3487 
   7   2.0000     -10.261418      -279.2274 
   8   2.0000     -10.260267      -279.1961 
   9   2.0000      -1.191682       -32.4273 
  10   2.0000      -0.993749       -27.0413 
  11   2.0000      -0.914198       -24.8766 
  12   2.0000      -0.888319       -24.1724 
  13   2.0000      -0.824716       -22.4417 
  14   2.0000      -0.803473       -21.8636 
  15   2.0000      -0.732430       -19.9304 
  16   2.0000      -0.704755       -19.1773 
  17   2.0000      -0.638992       -17.3878 
  18   2.0000      -0.606518       -16.5042 
  19   2.0000      -0.593311       -16.1448 
  20   2.0000      -0.555216       -15.1082 
  21   2.0000      -0.539385       -14.6774 
  22   2.0000      -0.516044       -14.0423 
  23   2.0000      -0.513439       -13.9714 
  24   2.0000      -0.508419       -13.8348 
  25   2.0000      -0.498504       -13.5650 
  26   2.0000      -0.496489       -13.5101 
  27   2.0000      -0.480570       -13.0770 
  28   2.0000      -0.446892       -12.1605 
  29   2.0000      -0.440498       -11.9866 
  30   2.0000      -0.433934       -11.8079 
  31   2.0000      -0.331318        -9.0156 
  32   2.0000      -0.312014        -8.4903 
  33   0.0000       0.071259         1.9391 
  34   0.0000       0.089639         2.4392 
  35   0.0000       0.107438         2.9235 
  36   0.0000       0.119013         3.2385 
  37   0.0000       0.137571         3.7435 
  38   0.0000       0.162344         4.4176 
  39   0.0000       0.175839         4.7848 
  40   0.0000       0.176455         4.8016 
  41   0.0000       0.196096         5.3360 
  42   0.0000       0.204142         5.5550 
  43   0.0000       0.220771         6.0075 
*Only the first 10 virtual orbitals were printed.

                    ********************************
                    * MULLIKEN POPULATION ANALYSIS *
                    ********************************

-----------------------
MULLIKEN ATOMIC CHARGES
-----------------------
   0 C :   -0.352324
   1 C :    0.113623
   2 C :   -0.217991
   3 C :   -0.123742
   4 C :   -0.236452
   5 C :    0.242611
   6 C :   -0.024794
   7 C :   -0.368160
   8 O :   -0.404630
   9 H :    0.120826
  10 H :    0.116686
  11 H :    0.120762
  12 H :    0.104993
  13 H :    0.115089
  14 H :    0.100745
  15 H :    0.116024
  16 H :    0.116065
  17 H :    0.149350
  18 H :    0.311318
Sum of atomic charges:    0.0000000

--------------------------------
MULLIKEN REDUCED ORBITAL CHARGES
--------------------------------
  0 C s       :     3.261656  s :     3.261656
      pz      :     1.054783  p :     3.031553
      px      :     0.931123
      py      :     1.045647
      dz2     :     0.005464  d :     0.055817
      dxz     :     0.011143
      dyz     :     0.014482
      dx2y2   :     0.011289
      dxy     :     0.013438
      f0      :     0.000295  f :     0.003299
      f+1     :     0.000042
      f-1     :     0.000974
      f+2     :     0.000156
      f-2     :     0.000243
      f+3     :     0.000918
      f-3     :     0.000670

  1 C s       :     3.174564  s :     3.174564
      pz      :     0.901341  p :     2.556716
      px      :     0.808932
      py      :     0.846443
      dz2     :     0.004958  d :     0.144991
      dxz     :     0.021553
      dyz     :     0.028193
      dx2y2   :     0.040630
      dxy     :     0.049657
      f0      :     0.001711  f :     0.010106
      f+1     :     0.000754
      f-1     :     0.000673
      f+2     :     0.001039
      f-2     :     0.001098
      f+3     :     0.003390
      f-3     :     0.001441

  2 C s       :     3.199646  s :     3.199646
      pz      :     1.028160  p :     2.921937
      px      :     0.970459
      py      :     0.923318
      dz2     :     0.004641  d :     0.088873
      dxz     :     0.009669
      dyz     :     0.017953
      dx2y2   :     0.025776
      dxy     :     0.030834
      f0      :     0.001601  f :     0.007534
      f+1     :     0.000677
      f-1     :     0.000631
      f+2     :     0.000941
      f-2     :     0.000389
      f+3     :     0.002173
      f-3     :     0.001122

  3 C s       :     3.166132  s :     3.166132
      pz      :     0.952650  p :     2.860932
      px      :     0.947933
      py      :     0.960349
      dz2     :     0.004130  d :     0.089015
      dxz     :     0.028654
      dyz     :     0.005199
      dx2y2   :     0.029349
      dxy     :     0.021684
      f0      :     0.001656  f :     0.007662
      f+1     :     0.000609
      f-1     :     0.000710
      f+2     :     0.000194
      f-2     :     0.001342
      f+3     :     0.002105
      f-3     :     0.001047

  4 C s       :     3.217346  s :     3.217346
      pz      :     1.067241  p :     2.936181
      px      :     0.971228
      py      :     0.897712
      dz2     :     0.006975  d :     0.075540
      dxz     :     0.007762
      dyz     :     0.018903
      dx2y2   :     0.024636
      dxy     :     0.017264
      f0      :     0.001651  f :     0.007386
      f+1     :     0.000681
      f-1     :     0.000668
      f+2     :     0.000772
      f-2     :     0.000539
      f+3     :     0.001959
      f-3     :     0.001116

  5 C s       :     3.027395  s :     3.027395
      pz      :     0.915587  p :     2.537356
      px      :     0.753813
      py      :     0.867955
      dz2     :     0.005032  d :     0.176934
      dxz     :     0.041706
      dyz     :     0.030422
      dx2y2   :     0.053241
      dxy     :     0.046533
      f0      :     0.002525  f :     0.015705
      f+1     :     0.001104
      f-1     :     0.000889
      f+2     :     0.001261
      f-2     :     0.002500
      f+3     :     0.005430
      f-3     :     0.001995

  6 C s       :     3.239741  s :     3.239741
      pz      :     0.997123  p :     2.640136
      px      :     0.807856
      py      :     0.835157
      dz2     :     0.004850  d :     0.134935
      dxz     :     0.021530
      dyz     :     0.023708
      dx2y2   :     0.034031
      dxy     :     0.050815
      f0      :     0.001761  f :     0.009982
      f+1     :     0.000703
      f-1     :     0.000866
      f+2     :     0.000928
      f-2     :     0.001055
      f+3     :     0.003266
      f-3     :     0.001403

  7 C s       :     3.268135  s :     3.268135
      pz      :     1.039804  p :     3.041286
      px      :     1.104550
      py      :     0.896932
      dz2     :     0.005166  d :     0.055415
      dxz     :     0.006861
      dyz     :     0.018762
      dx2y2   :     0.007296
      dxy     :     0.017330
      f0      :     0.000307  f :     0.003324
      f+1     :     0.000694
      f-1     :     0.000325
      f+2     :     0.000494
      f-2     :    -0.000040
      f+3     :     0.000784
      f-3     :     0.000760

  8 O s       :     3.751696  s :     3.751696
      pz      :     1.841141  p :     4.619254
      px      :     1.229763
      py      :     1.548350
      dz2     :     0.004421  d :     0.031975
      dxz     :     0.002866
      dyz     :     0.003722
      dx2y2   :     0.004526
      dxy     :     0.016440
      f0      :     0.000231  f :     0.001705
      f+1     :     0.000448
      f-1     :     0.000235
      f+2     :     0.000035
      f-2     :     0.000097
      f+3     :     0.000206
      f-3     :     0.000452

  9 H s       :     0.858057  s :     0.858057
      pz      :     0.009607  p :     0.021117
      px      :     0.004289
      py      :     0.007222

 10 H s       :     0.861904  s :     0.861904
      pz      :     0.004270  p :     0.021410
      px      :     0.009440
      py      :     0.007700

 11 H s       :     0.858120  s :     0.858120
      pz      :     0.009593  p :     0.021118
      px      :     0.004288
      py      :     0.007237

 12 H s       :     0.872861  s :     0.872861
      pz      :     0.004936  p :     0.022146
      px      :     0.010774
      py      :     0.006436

 13 H s       :     0.862919  s :     0.862919
      pz      :     0.004522  p :     0.021992
      px      :     0.003560
      py      :     0.013910

 14 H s       :     0.877091  s :     0.877091
      pz      :     0.005132  p :     0.022165
      px      :     0.011287
      py      :     0.005746

 15 H s       :     0.862848  s :     0.862848
      pz      :     0.009584  p :     0.021128
      px      :     0.006199
      py      :     0.005345

 16 H s       :     0.862806  s :     0.862806
      pz      :     0.009589  p :     0.021129
      px      :     0.006193
      py      :     0.005346

 17 H s       :     0.828499  s :     0.828499
      pz      :     0.004260  p :     0.022151
      px      :     0.012204
      py      :     0.005688

 18 H s       :     0.641778  s :     0.641778
      pz      :     0.016236  p :     0.046905
      px      :     0.016898
      py      :     0.013771


------------------------
MULLIKEN OVERLAP CHARGES
------------------------
B(  0-C ,  1-C ) :   0.6134 B(  0-C ,  2-C ) :  -0.1471 B(  0-C ,  6-C ) :  -0.1451 
B(  0-C ,  9-H ) :   0.8397 B(  0-C , 10-H ) :   0.8376 B(  0-C , 11-H ) :   0.8395 
B(  1-C ,  2-C ) :   1.0478 B(  1-C ,  4-C ) :  -0.1441 B(  1-C ,  5-C ) :  -0.0879 
B(  1-C ,  6-C ) :   0.8936 B(  1-C ,  7-C ) :  -0.1143 B(  1-C ,  9-H ) :  -0.0801 
B(  1-C , 10-H ) :  -0.1078 B(  1-C , 11-H ) :  -0.0800 B(  1-C , 12-H ) :  -0.1171 
B(  2-C ,  3-C ) :   0.9594 B(  2-C ,  5-C ) :  -0.1397 B(  2-C ,  6-C ) :  -0.1052 
B(  2-C , 12-H ) :   0.8631 B(  2-C , 13-H ) :  -0.0853 B(  3-C ,  4-C ) :   0.7782 
B(  3-C ,  6-C ) :  -0.1012 B(  3-C , 12-H ) :  -0.0961 B(  3-C , 13-H ) :   0.8369 
B(  4-C ,  5-C ) :   0.9753 B(  4-C ,  6-C ) :  -0.0868 B(  4-C ,  8-O ) :  -0.1622 
B(  4-C , 13-H ) :  -0.0740 B(  4-C , 14-H ) :   0.8360 B(  5-C ,  6-C ) :   0.8905 
B(  5-C ,  7-C ) :  -0.1344 B(  5-C ,  8-O ) :   0.7254 B(  5-C , 14-H ) :  -0.1284 
B(  5-C , 18-H ) :  -0.0837 B(  6-C ,  7-C ) :   0.5502 B(  6-C ,  8-O ) :  -0.1242 
B(  6-C , 15-H ) :  -0.0994 B(  6-C , 16-H ) :  -0.0996 B(  6-C , 17-H ) :  -0.0705 
B(  7-C , 15-H ) :   0.8470 B(  7-C , 16-H ) :   0.8474 B(  7-C , 17-H ) :   0.8402 
B(  8-O , 18-H ) :   0.6120 B(  9-H , 11-H ) :  -0.0722 B( 15-H , 16-H ) :  -0.0713 



                     *******************************
                     * LOEWDIN POPULATION ANALYSIS *
                     *******************************

----------------------
LOEWDIN ATOMIC CHARGES
----------------------
   0 C :   -0.246089
   1 C :   -0.138520
   2 C :   -0.138775
   3 C :   -0.143361
   4 C :   -0.154360
   5 C :   -0.235922
   6 C :   -0.127611
   7 C :   -0.247696
   8 O :    0.068213
   9 H :    0.126858
  10 H :    0.124052
  11 H :    0.126848
  12 H :    0.141177
  13 H :    0.141822
  14 H :    0.138239
  15 H :    0.126170
  16 H :    0.126168
  17 H :    0.129854
  18 H :    0.182933

-------------------------------
LOEWDIN REDUCED ORBITAL CHARGES
-------------------------------
  0 C s       :     2.811491  s :     2.811491
      pz      :     1.067782  p :     3.154476
      px      :     1.029992
      py      :     1.056702
      dz2     :     0.033802  d :     0.255343
      dxz     :     0.035023
      dyz     :     0.064037
      dx2y2   :     0.048990
      dxy     :     0.073491
      f0      :     0.001907  f :     0.024779
      f+1     :     0.002917
      f-1     :     0.003758
      f+2     :     0.004151
      f-2     :     0.001776
      f+3     :     0.006195
      f-3     :     0.004074

  1 C s       :     2.707522  s :     2.707522
      pz      :     0.824072  p :     2.848671
      px      :     0.991301
      py      :     1.033298
      dz2     :     0.032078  d :     0.524890
      dxz     :     0.072661
      dyz     :     0.084777
      dx2y2   :     0.164523
      dxy     :     0.170851
      f0      :     0.004011  f :     0.057436
      f+1     :     0.003892
      f-1     :     0.004082
      f+2     :     0.007128
      f-2     :     0.007154
      f+3     :     0.022005
      f-3     :     0.009165

  2 C s       :     2.753169  s :     2.753169
      pz      :     0.927145  p :     2.960356
      px      :     1.008897
      py      :     1.024313
      dz2     :     0.025748  d :     0.382651
      dxz     :     0.030677
      dyz     :     0.057558
      dx2y2   :     0.114099
      dxy     :     0.154570
      f0      :     0.002997  f :     0.042598
      f+1     :     0.003514
      f-1     :     0.003960
      f+2     :     0.006330
      f-2     :     0.002459
      f+3     :     0.015257
      f-3     :     0.008081

  3 C s       :     2.760575  s :     2.760575
      pz      :     0.879016  p :     2.939954
      px      :     1.072568
      py      :     0.988369
      dz2     :     0.024903  d :     0.398704
      dxz     :     0.095072
      dyz     :     0.012660
      dx2y2   :     0.164568
      dxy     :     0.101502
      f0      :     0.003144  f :     0.044129
      f+1     :     0.004292
      f-1     :     0.003192
      f+2     :     0.001361
      f-2     :     0.008871
      f+3     :     0.015313
      f-3     :     0.007956

  4 C s       :     2.757322  s :     2.757322
      pz      :     0.951795  p :     2.982540
      px      :     1.006080
      py      :     1.024665
      dz2     :     0.026529  d :     0.371769
      dxz     :     0.025411
      dyz     :     0.063638
      dx2y2   :     0.129624
      dxy     :     0.126568
      f0      :     0.003124  f :     0.042728
      f+1     :     0.003517
      f-1     :     0.004310
      f+2     :     0.005701
      f-2     :     0.003594
      f+3     :     0.014379
      f-3     :     0.008104

  5 C s       :     2.712803  s :     2.712803
      pz      :     0.853039  p :     2.753151
      px      :     0.890736
      py      :     1.009375
      dz2     :     0.044407  d :     0.674978
      dxz     :     0.121591
      dyz     :     0.101446
      dx2y2   :     0.183609
      dxy     :     0.223924
      f0      :     0.006890  f :     0.094991
      f+1     :     0.007308
      f-1     :     0.006030
      f+2     :     0.009325
      f-2     :     0.015801
      f+3     :     0.033830
      f-3     :     0.015806

  6 C s       :     2.703174  s :     2.703174
      pz      :     0.875686  p :     2.874179
      px      :     1.011469
      py      :     0.987025
      dz2     :     0.032494  d :     0.495166
      dxz     :     0.066533
      dyz     :     0.073213
      dx2y2   :     0.161510
      dxy     :     0.161417
      f0      :     0.004074  f :     0.055092
      f+1     :     0.004293
      f-1     :     0.003923
      f+2     :     0.005969
      f-2     :     0.007246
      f+3     :     0.020395
      f-3     :     0.009192

  7 C s       :     2.809018  s :     2.809018
      pz      :     1.064289  p :     3.158831
      px      :     1.071784
      py      :     1.022758
      dz2     :     0.033233  d :     0.254783
      dxz     :     0.031868
      dyz     :     0.070530
      dx2y2   :     0.049692
      dxy     :     0.069461
      f0      :     0.002023  f :     0.025064
      f+1     :     0.003217
      f-1     :     0.003442
      f+2     :     0.003923
      f-2     :     0.002470
      f+3     :     0.005317
      f-3     :     0.004673

  8 O s       :     3.323217  s :     3.323217
      pz      :     1.727249  p :     4.533037
      px      :     1.251050
      py      :     1.554738
      dz2     :     0.008287  d :     0.070760
      dxz     :     0.009381
      dyz     :     0.004900
      dx2y2   :     0.014867
      dxy     :     0.033326
      f0      :     0.000394  f :     0.004772
      f+1     :     0.000819
      f-1     :     0.000311
      f+2     :     0.000088
      f-2     :     0.000497
      f+3     :     0.001332
      f-3     :     0.001331

  9 H s       :     0.813010  s :     0.813010
      pz      :     0.027437  p :     0.060132
      px      :     0.012368
      py      :     0.020327

 10 H s       :     0.816179  s :     0.816179
      pz      :     0.013171  p :     0.059769
      px      :     0.023651
      py      :     0.022947

 11 H s       :     0.813019  s :     0.813019
      pz      :     0.027402  p :     0.060133
      px      :     0.012364
      py      :     0.020367

 12 H s       :     0.800406  s :     0.800406
      pz      :     0.014485  p :     0.058417
      px      :     0.026932
      py      :     0.017000

 13 H s       :     0.800457  s :     0.800457
      pz      :     0.013035  p :     0.057721
      px      :     0.010740
      py      :     0.033945

 14 H s       :     0.803276  s :     0.803276
      pz      :     0.015024  p :     0.058485
      px      :     0.027792
      py      :     0.015669

 15 H s       :     0.813739  s :     0.813739
      pz      :     0.027226  p :     0.060092
      px      :     0.018644
      py      :     0.014222

 16 H s       :     0.813740  s :     0.813740
      pz      :     0.027239  p :     0.060092
      px      :     0.018628
      py      :     0.014225

 17 H s       :     0.807505  s :     0.807505
      pz      :     0.013248  p :     0.062641
      px      :     0.034400
      py      :     0.014992

 18 H s       :     0.664706  s :     0.664706
      pz      :     0.043335  p :     0.152362
      px      :     0.053212
      py      :     0.055814


---------------------------------
LOEWDIN BOND ORDERS (THRESH 0.050000)
---------------------------------
B(  0-C ,  1-C ) :   1.2013 B(  0-C ,  2-C ) :   0.1799 B(  0-C ,  6-C ) :   0.1659 
B(  0-C ,  9-H ) :   0.8901 B(  0-C , 10-H ) :   0.8923 B(  0-C , 11-H ) :   0.8901 
B(  1-C ,  2-C ) :   1.4853 B(  1-C ,  3-C ) :   0.2380 B(  1-C ,  4-C ) :   0.0993 
B(  1-C ,  5-C ) :   0.2302 B(  1-C ,  6-C ) :   1.3972 B(  1-C ,  7-C ) :   0.1634 
B(  1-C ,  9-H ) :   0.0796 B(  1-C , 10-H ) :   0.0816 B(  1-C , 11-H ) :   0.0796 
B(  1-C , 12-H ) :   0.0934 B(  2-C ,  3-C ) :   1.5847 B(  2-C ,  4-C ) :   0.2445 
B(  2-C ,  5-C ) :   0.1004 B(  2-C ,  6-C ) :   0.2204 B(  2-C , 12-H ) :   0.8235 
B(  2-C , 13-H ) :   0.0957 B(  3-C ,  4-C ) :   1.5927 B(  3-C ,  5-C ) :   0.2441 
B(  3-C ,  6-C ) :   0.0988 B(  3-C , 12-H ) :   0.0958 B(  3-C , 13-H ) :   0.8293 
B(  3-C , 14-H ) :   0.0950 B(  4-C ,  5-C ) :   1.4966 B(  4-C ,  6-C ) :   0.2178 
B(  4-C ,  8-O ) :   0.1472 B(  4-C , 13-H ) :   0.0976 B(  4-C , 14-H ) :   0.8256 
B(  5-C ,  6-C ) :   1.4037 B(  5-C ,  7-C ) :   0.1673 B(  5-C ,  8-O ) :   1.6087 
B(  5-C , 14-H ) :   0.0967 B(  5-C , 18-H ) :   0.1045 B(  6-C ,  7-C ) :   1.1982 
B(  6-C ,  8-O ) :   0.1411 B(  6-C , 15-H ) :   0.0810 B(  6-C , 16-H ) :   0.0810 
B(  6-C , 17-H ) :   0.0815 B(  7-C , 15-H ) :   0.8895 B(  7-C , 16-H ) :   0.8895 
B(  7-C , 17-H ) :   0.8887 B(  8-O , 18-H ) :   0.9971 

------------------------------------------
LOEWDIN REDUCED ORBITAL POPULATIONS PER MO
-------------------------------------------
THRESHOLD FOR PRINTING IS 0.1%%
                      0         1         2         3         4         5   
                 -19.24199 -10.33226 -10.28090 -10.27426 -10.27287 -10.26959
                   2.00000   2.00000   2.00000   2.00000   2.00000   2.00000
                  --------  --------  --------  --------  --------  --------
 1 C  s               0.0       0.0      98.5       0.2       0.0       0.0
 1 C  dxy             0.0       0.0       0.0       0.2       0.0       0.0
 2 C  px              0.0       0.0       0.0       0.0       0.1       0.0
 2 C  py              0.0       0.0       0.1       0.0       0.0       0.0
 2 C  dx2y2           0.0       0.0       0.2       0.0       0.1       0.0
 2 C  dxy             0.0       0.0       0.0       0.0       0.2       0.0
 3 C  s               0.0       0.0       0.0       0.0      97.9       0.8
 3 C  dxy             0.0       0.0       0.0       0.0       0.0       0.2
 4 C  s               0.0       0.0       0.0       0.0       0.7      98.0
 4 C  py              0.0       0.1       0.0       0.0       0.0       0.0
 4 C  dx2y2           0.0       0.2       0.0       0.0       0.0       0.0
 4 C  dxy             0.0       0.0       0.0       0.0       0.2       0.0
 5 C  s               0.0      98.7       0.0       0.0       0.0       0.0
 5 C  py              0.0       0.0       0.0       0.0       0.0       0.1
 5 C  dx2y2           0.0       0.0       0.0       0.1       0.0       0.2
 5 C  dxy             0.1       0.0       0.0       0.2       0.0       0.0
 6 C  s               0.0       0.0       0.1      98.5       0.0       0.0
 6 C  dxy             0.0       0.2       0.2       0.0       0.0       0.0
 7 C  dx2y2           0.0       0.0       0.0       0.1       0.0       0.0
 8 O  s              99.8       0.0       0.0       0.0       0.0       0.0

                      6         7         8         9        10        11   
                 -10.26588 -10.26142 -10.26027  -1.19168  -0.99375  -0.91420
                   2.00000   2.00000   2.00000   2.00000   2.00000   2.00000
                  --------  --------  --------  --------  --------  --------
 0 C  s              99.4       0.0       0.0       0.0       3.0       6.5
 0 C  px              0.0       0.0       0.0       0.0       1.6       1.0
 0 C  py              0.0       0.0       0.0       0.0       0.3       0.0
 0 C  dx2y2           0.0       0.0       0.0       0.0       0.1       0.1
 0 C  dxy             0.0       0.0       0.0       0.0       0.1       0.0
 1 C  s               0.0       0.0       0.0       0.1      14.0       5.2
 1 C  px              0.1       0.0       0.0       0.1       1.2       0.4
 1 C  py              0.0       0.1       0.0       0.0       0.1       4.6
 1 C  dz2             0.0       0.1       0.0       0.0       0.8       0.2
 1 C  dx2y2           0.1       0.2       0.0       0.0       0.0       0.2
 1 C  dxy             0.1       0.0       0.0       0.0       0.0       0.2
 1 C  f-3             0.0       0.1       0.0       0.0       0.1       0.1
 2 C  s               0.0      98.7       0.0       0.0      10.5       1.1
 2 C  px              0.0       0.0       0.0       0.0       1.4       3.1
 2 C  py              0.0       0.0       0.0       0.0       1.3       3.2
 2 C  dz2             0.0       0.0       0.0       0.0       0.5       0.0
 2 C  dx2y2           0.0       0.0       0.0       0.0       0.0       0.9
 2 C  dxy             0.0       0.0       0.0       0.0       0.0       0.1
 3 C  s               0.0       0.1       0.0       0.1       8.9      12.0
 3 C  px              0.0       0.1       0.0       0.1       0.0       0.9
 3 C  py              0.0       0.0       0.0       0.1       2.5       0.5
 3 C  dz2             0.0       0.1       0.0       0.0       0.5       0.3
 3 C  dx2y2           0.0       0.1       0.0       0.0       0.0       0.1
 3 C  dxy             0.0       0.2       0.0       0.0       0.0       0.2
 4 C  s               0.0       0.0       0.0       1.0       7.5      12.0
 4 C  px              0.0       0.0       0.0       0.1       2.5       1.0
 4 C  py              0.0       0.0       0.0       1.8       0.2       0.5
 4 C  dz2             0.0       0.0       0.0       0.1       0.4       0.3
 4 C  dx2y2           0.0       0.0       0.0       0.3       0.0       0.0
 4 C  dxy             0.0       0.0       0.0       0.1       0.0       0.4
 4 C  f-3             0.0       0.0       0.0       0.0       0.1       0.1
 5 C  s               0.0       0.0       0.0       9.8       5.9       0.5
 5 C  px              0.0       0.0       0.0       6.6       5.0       0.7
 5 C  py              0.0       0.0       0.0       2.2       1.0       7.4
 5 C  dz2             0.0       0.0       0.0       1.3       0.2       0.0
 5 C  dx2y2           0.0       0.0       0.0       0.6       0.1       0.8
 5 C  dxy             0.0       0.0       0.0       2.1       0.4       0.2
 5 C  f+1             0.0       0.0       0.0       0.2       0.0       0.0
 5 C  f-3             0.0       0.0       0.0       0.5       0.0       0.0
 6 C  s               0.0       0.0       0.0       0.9      12.0       6.5
 6 C  px              0.0       0.0       0.0       1.8       0.3       1.8
 6 C  py              0.0       0.0       0.1       0.1       1.6       2.3
 6 C  dz2             0.0       0.0       0.0       0.1       0.7       0.2
 6 C  dx2y2           0.0       0.0       0.1       0.3       0.0       0.0
 6 C  dxy             0.0       0.0       0.0       0.0       0.0       0.2
 6 C  f-3             0.0       0.0       0.0       0.0       0.1       0.1
 7 C  s               0.0       0.0      99.4       0.1       2.3       7.2
 7 C  px              0.0       0.0       0.0       0.2       0.0       0.1
 7 C  py              0.0       0.0       0.0       0.2       1.5       1.1
 7 C  dx2y2           0.0       0.0       0.0       0.0       0.2       0.2
 8 O  s               0.0       0.0       0.0      52.2       1.6       0.1
 8 O  px              0.0       0.0       0.0       0.2       1.0       0.0
 8 O  py              0.0       0.0       0.0       2.1       0.1       0.3
 9 H  s               0.1       0.0       0.0       0.0       0.5       1.5
10 H  s               0.1       0.0       0.0       0.0       0.6       1.2
11 H  s               0.1       0.0       0.0       0.0       0.5       1.5
12 H  s               0.0       0.0       0.0       0.0       1.4       0.1
13 H  s               0.0       0.0       0.0       0.0       1.1       2.2
13 H  py              0.0       0.0       0.0       0.0       0.1       0.2
14 H  s               0.0       0.0       0.0       0.2       0.9       2.3
14 H  px              0.0       0.0       0.0       0.0       0.0       0.2
15 H  s               0.0       0.0       0.1       0.0       0.4       1.6
16 H  s               0.0       0.0       0.1       0.0       0.4       1.6
17 H  s               0.0       0.0       0.1       0.1       0.4       1.4
18 H  s               0.0       0.0       0.0      11.2       0.6       0.0
18 H  px              0.0       0.0       0.0       1.9       0.1       0.0
18 H  py              0.0       0.0       0.0       0.9       0.1       0.0

                     12        13        14        15        16        17   
                  -0.88832  -0.82472  -0.80347  -0.73243  -0.70475  -0.63899
                   2.00000   2.00000   2.00000   2.00000   2.00000   2.00000
                  --------  --------  --------  --------  --------  --------
 0 C  s               8.5      11.4       6.7       2.8       0.6       1.0
 0 C  px              0.2       0.2       0.5       3.2       0.1       6.4
 0 C  py              0.7       0.1       0.7       0.0       1.7       1.9
 0 C  dz2             0.1       0.0       0.0       0.1       0.1       0.2
 0 C  dx2y2           0.0       0.0       0.0       0.3       0.1       0.2
 0 C  dxy             0.2       0.0       0.1       0.1       0.2       0.3
 1 C  s               5.5       0.1       2.0       3.7       0.3       3.6
 1 C  px              5.9       2.6       4.3       3.4       2.3       1.0
 1 C  py              2.5       3.2       2.4       1.5       8.5       0.1
 1 C  dz2             0.1       0.0       0.0       0.0       0.0       0.1
 1 C  dx2y2           0.3       1.6       0.0       0.0       0.8       0.2
 1 C  dxy             0.8       0.4       0.5       0.4       0.0       0.2
 2 C  s               9.2       7.4       1.3       2.0       4.0       0.3
 2 C  px              0.4       0.7       0.3       0.2       6.1       1.8
 2 C  py              0.4       1.6       2.3       4.4       2.2       2.3
 2 C  dz2             0.2       0.1       0.0       0.0       0.0       0.0
 2 C  dx2y2           0.2       0.0       0.5       0.2       0.1       0.4
 2 C  dxy             0.3       0.0       0.5       0.2       0.2       0.1
 3 C  s               1.1       3.5       4.2       0.7       6.6       0.2
 3 C  px              3.5       6.0       3.4       4.1       0.6       5.3
 3 C  py              0.0       0.2       0.6       0.6       2.9       3.4
 3 C  dx2y2           0.1       0.1       0.1       0.0       0.2       0.1
 3 C  dxy             0.7       0.9       0.4       0.1       0.0       0.0
 3 C  f+3             0.0       0.0       0.0       0.0       0.0       0.1
 4 C  s               2.0       4.7       4.6       2.1       1.5       0.9
 4 C  px              0.2       1.6       0.1       0.5       5.7       3.4
 4 C  py              1.8       2.6       3.8       0.4       6.3      10.6
 4 C  dx2y2           0.5       0.6       0.1       0.1       0.1       0.0
 4 C  dxy             0.2       0.2       0.5       0.1       0.2       0.2
 5 C  s               7.1       4.2       1.8       3.4       0.8       0.6
 5 C  px              2.0       0.1       1.9       0.3       3.9       6.3
 5 C  py              0.0       3.8       1.6       6.4       6.5       3.8
 5 C  dx2y2           0.3       0.2       0.8       0.4       0.5       0.2
 5 C  dxy             1.0       0.1       0.0       0.1       0.1       0.3
 5 C  f+3             0.0       0.0       0.1       0.0       0.0       0.2
 6 C  s               6.0       0.2       1.6       0.6       4.1       0.1
 6 C  px              5.0       0.2       0.4      11.4       0.0       2.9
 6 C  py              1.3       3.6       9.2       0.6       0.4       0.8
 6 C  dz2             0.1       0.0       0.0       0.0       0.0       0.0
 6 C  dx2y2           0.2       1.1       0.8       0.3       0.7       0.7
 6 C  dxy             1.0       0.4       0.1       0.4       0.0       1.0
 7 C  s               6.7       8.5      11.9       0.0       3.4       0.1
 7 C  px              0.2       0.1       0.2       1.1       0.0       0.0
 7 C  py              0.6       0.1       1.1       0.1       4.5       0.4
 7 C  dz2             0.0       0.0       0.0       0.0       0.2       0.0
 7 C  dx2y2           0.1       0.0       0.1       0.1       0.3       0.0
 7 C  dxy             0.1       0.0       0.0       0.3       0.0       0.1
 8 O  s               1.8       0.9       0.0       0.1       0.9       0.2
 8 O  px              3.9       1.2       1.6      24.4       0.3      18.1
 8 O  py              0.1       0.9       0.0       0.3       2.6       0.6
 8 O  dxy             0.1       0.1       0.0       0.5       0.1       0.3
 9 H  s               1.7       3.3       2.6       1.2       0.6       1.6
 9 H  pz              0.1       0.2       0.2       0.1       0.1       0.1
 9 H  py              0.1       0.1       0.1       0.0       0.0       0.0
10 H  s               2.4       3.2       2.0       2.3       0.0       1.4
10 H  px              0.1       0.2       0.1       0.1       0.0       0.0
10 H  py              0.1       0.2       0.1       0.1       0.0       0.1
11 H  s               1.7       3.3       2.6       1.2       0.6       1.6
11 H  pz              0.1       0.2       0.2       0.1       0.1       0.1
11 H  py              0.1       0.1       0.1       0.0       0.0       0.0
12 H  s               2.3       1.9       0.2       2.2       3.2       0.0
12 H  px              0.1       0.2       0.0       0.2       0.1       0.0
12 H  py              0.1       0.0       0.0       0.0       0.2       0.0
13 H  s               0.3       1.1       1.9       0.6       5.3       1.8
13 H  py              0.0       0.1       0.2       0.0       0.4       0.1
14 H  s               0.3       1.5       2.3       1.5       1.5       5.5
14 H  px              0.0       0.1       0.2       0.1       0.0       0.3
14 H  py              0.0       0.1       0.0       0.0       0.2       0.0
15 H  s               1.3       2.3       4.3       0.0       2.0       0.1
15 H  pz              0.1       0.2       0.3       0.0       0.1       0.0
16 H  s               1.3       2.3       4.3       0.0       2.0       0.1
16 H  pz              0.1       0.2       0.3       0.0       0.1       0.0
17 H  s               1.7       2.6       3.5       0.3       1.9       0.1
17 H  px              0.1       0.2       0.3       0.0       0.2       0.0
18 H  s               1.5       0.4       0.5       7.0       0.0       5.0
18 H  px              0.1       0.0       0.0       0.1       0.0       0.0
18 H  py              0.1       0.1       0.0       0.4       0.1       0.2

                     18        19        20        21        22        23   
                  -0.60652  -0.59331  -0.55522  -0.53939  -0.51604  -0.51344
                   2.00000   2.00000   2.00000   2.00000   2.00000   2.00000
                  --------  --------  --------  --------  --------  --------
 0 C  pz              0.0       0.0      14.9       0.0      27.1       0.0
 0 C  px              0.9       1.8       0.0       1.5       0.0      12.9
 0 C  py              1.4       3.4       0.0      10.7       0.0       0.4
 0 C  dz2             0.0       0.0       0.0       0.2       0.0       0.0
 0 C  dyz             0.0       0.0       0.3       0.0       0.9       0.0
 0 C  dxy             0.0       0.0       0.0       0.0       0.0       0.1
 1 C  s               0.2       0.5       0.0       0.9       0.0       0.0
 1 C  pz              0.0       0.0       9.5       0.0       1.8       0.0
 1 C  px              0.3       1.0       0.0       3.8       0.0       8.9
 1 C  py              6.8       1.4       0.0       0.0       0.0       5.2
 1 C  dxz             0.0       0.0       0.0       0.0       1.3       0.0
 1 C  dyz             0.0       0.0       0.2       0.0       0.1       0.0
 1 C  dx2y2           0.2       0.1       0.0       1.3       0.0       0.0
 1 C  dxy             0.4       1.3       0.0       0.0       0.0       0.0
 1 C  f0              0.0       0.0       0.1       0.0       0.0       0.0
 2 C  s               0.5       0.5       0.0       1.6       0.0       0.1
 2 C  pz              0.0       0.0       2.7       0.0       0.1       0.0
 2 C  px              0.9      11.9       0.0       1.0       0.0       5.0
 2 C  py             13.8       0.3       0.0       1.0       0.0       4.8
 2 C  dz2             0.0       0.0       0.0       0.1       0.0       0.0
 2 C  dyz             0.0       0.0       0.2       0.0       0.1       0.0
 2 C  dx2y2           0.1       0.0       0.0       0.5       0.0       1.2
 2 C  dxy             0.0       0.2       0.0       1.0       0.0       0.1
 2 C  f+3             0.1       0.0       0.0       0.0       0.0       0.3
 3 C  s               0.1       0.5       0.0       0.8       0.0       0.0
 3 C  pz              0.0       0.0       1.6       0.0       0.5       0.0
 3 C  px              8.2       1.9       0.0       1.1       0.0       1.9
 3 C  py              7.7       2.3       0.0      13.6       0.0       3.1
 3 C  dxz             0.0       0.0       0.0       0.0       0.1       0.0
 3 C  dyz             0.0       0.0       0.1       0.0       0.0       0.0
 3 C  dx2y2           0.1       0.5       0.0       3.3       0.0       0.2
 3 C  dxy             0.0       0.0       0.0       0.1       0.0       1.5
 3 C  f+3             0.1       0.0       0.0       0.0       0.0       0.4
 4 C  s               0.2       0.7       0.0       1.0       0.0       0.6
 4 C  pz              0.0       0.0       3.0       0.0       3.9       0.0
 4 C  px              8.0       3.2       0.0       3.0       0.0      10.3
 4 C  py              2.8       3.5       0.0       2.6       0.0       2.0
 4 C  dz2             0.0       0.0       0.0       0.0       0.0       0.2
 4 C  dyz             0.0       0.0       0.2       0.0       0.4       0.0
 4 C  dx2y2           0.2       0.0       0.0       2.2       0.0       0.2
 4 C  dxy             0.0       0.9       0.0       0.8       0.0       0.3
 4 C  f+3             0.0       0.2       0.0       0.1       0.0       0.0
 5 C  s               0.4       0.2       0.0       1.5       0.0       0.1
 5 C  pz              0.0       0.0       9.4       0.0      12.3       0.0
 5 C  px              2.1       7.4       0.0       0.3       0.0       0.1
 5 C  py              1.2       1.2       0.0       0.5       0.0       2.3
 5 C  dz2             0.0       0.0       0.0       0.2       0.0       0.0
 5 C  dxz             0.0       0.0       0.0       0.0       0.7       0.0
 5 C  dyz             0.0       0.0       0.1       0.0       0.1       0.0
 5 C  dx2y2           0.4       0.0       0.0       0.4       0.0       1.8
 5 C  dxy             1.7       2.5       0.0       0.0       0.0       0.8
 5 C  f0              0.0       0.0       0.1       0.0       0.2       0.0
 5 C  f+3             0.0       0.0       0.0       0.1       0.0       0.1
 6 C  s               1.1       2.3       0.0       0.3       0.0       0.1
 6 C  pz              0.0       0.0      12.5       0.0       1.2       0.0
 6 C  px              2.8       7.5       0.0       1.0       0.0       0.0
 6 C  py              0.9       0.8       0.0       1.6       0.0       3.1
 6 C  dxz             0.0       0.0       0.0       0.0       0.9       0.0
 6 C  dx2y2           0.1       0.1       0.0       0.1       0.0       0.1
 6 C  dxy             0.3       0.1       0.0       0.1       0.0       0.9
 6 C  f0              0.0       0.0       0.2       0.0       0.0       0.0
 6 C  f+3             0.0       0.0       0.0       0.1       0.0       0.2
 7 C  s               0.2       0.1       0.0       0.2       0.0       0.0
 7 C  pz              0.0       0.0      16.4       0.0       0.5       0.0
[...]
 4 C  s               0.2       0.0       0.0       0.1       0.4       0.4
 4 C  px              0.1       0.0       0.0       0.3       0.0       0.0
 4 C  py              0.3       0.0       0.0       0.0       0.0       0.3
 4 C  dxy             0.5       0.0       0.0       0.2       0.0       0.2
 4 C  f+3             0.2       0.0       0.0       0.0       0.0       0.1
 4 C  f-3             0.1       0.0       0.0       0.0       0.1       0.1
 5 C  s               0.9       0.0       0.0       0.9       1.0       0.7
 5 C  pz              0.0       0.0       0.6       0.0       0.0       0.0
 5 C  px              0.5       0.0       0.0       0.5       0.9       0.0
 5 C  py              0.1       0.0       0.0       0.3       0.9       0.1
 5 C  dz2             0.4       0.0       0.0       0.1       0.1       0.1
 5 C  dxz             0.0       0.3       1.0       0.0       0.0       0.0
 5 C  dyz             0.0       0.3       0.5       0.0       0.0       0.0
 5 C  dx2y2           0.3       0.0       0.0       0.5       0.6       1.6
 5 C  dxy             1.0       0.0       0.0       1.9       0.5       0.4
 5 C  f0              0.0       0.0       0.3       0.0       0.0       0.0
 5 C  f+1             0.0       0.0       0.0       0.0       0.2       0.0
 5 C  f-2             0.0       0.0       0.5       0.0       0.0       0.0
 5 C  f+3             5.9       0.0       0.0       0.1       0.0       2.3
 5 C  f-3             0.0       0.0       0.0       0.1       0.9       0.0
 6 C  s               0.1       0.0       0.0       0.1       0.3       0.0
 6 C  px              1.0       0.0       0.0       0.1       0.0       0.0
 6 C  py              0.1       0.0       0.0       0.0       0.2       0.1
 6 C  dx2y2           0.3       0.0       0.0       0.0       0.1       0.1
 6 C  dxy             0.2       0.0       0.0       0.1       0.1       0.2
 6 C  f+3             2.9       0.0       0.0       0.0       0.0       0.2
 7 C  dxy             0.1       0.0       0.0       0.0       0.0       0.0
 7 C  f+3             0.1       0.0       0.0       0.0       0.0       0.0
 8 O  s               3.8       0.0       0.0       2.1       0.9       2.6
 8 O  pz              0.0       0.1       0.9       0.0       0.0       0.0
 8 O  px              0.1       0.0       0.0       0.5       3.1       0.6
 8 O  py              1.2       0.0       0.0       3.2       0.1       0.1
 8 O  dz2            23.7       0.0       0.0      48.2       6.9       5.8
 8 O  dxz             0.0      22.6      63.4       0.0       0.0       0.0
 8 O  dyz             0.0      73.1      19.4       0.0       0.0       0.0
 8 O  dx2y2           7.3       0.0       0.0      25.9      33.2      23.3
 8 O  dxy            12.9       0.0       0.0       1.3      42.3      26.9
 8 O  f0              0.0       1.8       3.7       0.0       0.0       0.0
 8 O  f+1             1.1       0.0       0.0       0.0       3.9       1.5
 8 O  f-1             0.4       0.0       0.0       6.6       0.0       1.2
 8 O  f+2             0.0       0.4       1.0       0.0       0.0       0.0
 8 O  f-2             0.0       0.5       8.3       0.0       0.0       0.0
 8 O  f+3             6.0       0.0       0.0       0.4       0.3      12.7
 8 O  f-3            21.2       0.0       0.0       3.8       2.1      11.6
18 H  s               3.0       0.0       0.0       2.0       0.4       5.8
18 H  pz              0.0       0.4       0.0       0.0       0.0       0.0
18 H  px              1.0       0.0       0.0       0.2       0.0       0.2
18 H  py              0.4       0.0       0.0       0.0       0.1       0.1

                    330       331       332       333       334       335   
                  22.13776  22.52084  22.61212  22.79756  22.82443  23.00049
                   0.00000   0.00000   0.00000   0.00000   0.00000   0.00000
                  --------  --------  --------  --------  --------  --------
 0 C  s               3.8      51.7      38.6       2.6       0.7       0.0
 1 C  s              15.2       2.9       0.1       5.3       4.7       9.0
 1 C  py              0.0       0.1       0.0       0.0       0.3       0.3
 1 C  dx2y2           0.0       0.0       0.1       0.0       0.1       0.1
 2 C  s              15.4       2.4       2.6      22.8      16.3      32.7
 2 C  px              0.1       0.0       0.0       0.1       0.0       0.0
 2 C  py              0.0       0.0       0.0       0.2       0.1       0.1
 3 C  s              18.8       0.0       0.6      31.7      39.1       4.8
 3 C  px              0.0       0.0       0.0       0.2       0.2       0.0
 4 C  s              19.5       0.0       0.1      25.1      30.5      18.7
 4 C  px              0.1       0.0       0.0       0.0       0.1       0.0
 4 C  py              0.0       0.0       0.0       0.1       0.2       0.0
 5 C  s              10.8       1.2       1.1       5.6       3.6       0.1
 5 C  px              0.1       0.0       0.0       0.1       0.0       0.1
 5 C  py              0.1       0.0       0.0       0.3       0.0       0.2
 5 C  dx2y2           0.0       0.0       0.0       0.1       0.0       0.1
 6 C  s              13.8       2.3       0.2       3.4       1.6      31.9
 6 C  px              0.0       0.0       0.0       0.1       0.1       0.0
 6 C  py              0.1       0.1       0.1       0.0       0.0       0.1
 6 C  dx2y2           0.0       0.0       0.2       0.0       0.0       0.0
 7 C  s               1.0      38.0      55.1       1.3       1.5       0.8
 8 O  s               0.2       0.0       0.0       0.0       0.0       0.0
 9 H  s               0.0       0.1       0.1       0.0       0.0       0.0
11 H  s               0.0       0.1       0.1       0.0       0.0       0.0
15 H  s               0.0       0.1       0.1       0.0       0.0       0.0
16 H  s               0.0       0.1       0.1       0.0       0.0       0.0

                    336       337       338   
                  23.17234  23.62004  44.02099
                   0.00000   0.00000   0.00000
                  --------  --------  --------
 0 C  s               0.7       0.0       0.0
 1 C  s              32.3      28.6       0.0
 1 C  px              0.3       0.1       0.0
 1 C  dxy             0.1       0.2       0.0
 2 C  s               1.6       4.2       0.0
 3 C  s               0.7       2.3       0.0
 4 C  s               1.1       3.1       0.0
 5 C  s              59.6      15.8       0.0
 6 C  s               0.8      44.2       0.0
 6 C  px              0.7       0.0       0.0
 6 C  dx2y2           0.0       0.2       0.0
 6 C  dxy             0.4       0.0       0.0
 7 C  s               0.5       0.1       0.0
 8 O  s               0.2       0.0      99.7
 8 O  px              0.2       0.0       0.0


                      *****************************
                      * MAYER POPULATION ANALYSIS *
                      *****************************

  NA   - Mulliken gross atomic population
  ZA   - Total nuclear charge
  QA   - Mulliken gross atomic charge
  VA   - Mayer's total valence
  BVA  - Mayer's bonded valence
  FA   - Mayer's free valence

  ATOM       NA         ZA         QA         VA         BVA        FA
  0 C      6.3523     6.0000    -0.3523     3.8828     3.8828     0.0000
  1 C      5.8864     6.0000     0.1136     3.7186     3.7186     0.0000
  2 C      6.2180     6.0000    -0.2180     3.9847     3.9847     0.0000
  3 C      6.1237     6.0000    -0.1237     3.9859     3.9859     0.0000
  4 C      6.2365     6.0000    -0.2365     3.9324     3.9324     0.0000
  5 C      5.7574     6.0000     0.2426     3.9421     3.9421    -0.0000
  6 C      6.0248     6.0000    -0.0248     3.7174     3.7174     0.0000
  7 C      6.3682     6.0000    -0.3682     3.8873     3.8873     0.0000
  8 O      8.4046     8.0000    -0.4046     2.0759     2.0759    -0.0000
  9 H      0.8792     1.0000     0.1208     0.9666     0.9666     0.0000
 10 H      0.8833     1.0000     0.1167     0.9774     0.9774    -0.0000
 11 H      0.8792     1.0000     0.1208     0.9666     0.9666    -0.0000
 12 H      0.8950     1.0000     0.1050     0.9736     0.9736    -0.0000
 13 H      0.8849     1.0000     0.1151     0.9715     0.9715     0.0000
 14 H      0.8993     1.0000     0.1007     0.9805     0.9805    -0.0000
 15 H      0.8840     1.0000     0.1160     0.9683     0.9683     0.0000
 16 H      0.8839     1.0000     0.1161     0.9684     0.9684     0.0000
 17 H      0.8506     1.0000     0.1494     0.9819     0.9819     0.0000
 18 H      0.6887     1.0000     0.3113     0.9214     0.9214     0.0000

  Mayer bond orders larger than 0.100000
B(  0-C ,  1-C ) :   0.9329 B(  0-C ,  9-H ) :   0.9786 B(  0-C , 10-H ) :   0.9889 
B(  0-C , 11-H ) :   0.9786 B(  1-C ,  2-C ) :   1.4291 B(  1-C ,  6-C ) :   1.3613 
B(  2-C ,  3-C ) :   1.4411 B(  2-C , 12-H ) :   0.9749 B(  3-C ,  4-C ) :   1.4346 
B(  3-C , 13-H ) :   0.9695 B(  4-C ,  5-C ) :   1.3768 B(  4-C , 14-H ) :   0.9659 
B(  5-C ,  6-C ) :   1.3905 B(  5-C ,  8-O ) :   1.1316 B(  6-C ,  7-C ) :   0.9303 
B(  7-C , 15-H ) :   0.9826 B(  7-C , 16-H ) :   0.9827 B(  7-C , 17-H ) :   0.9777 
B(  8-O , 18-H ) :   0.8910 

-------
TIMINGS
-------

Total SCF time: 0 days 0 hours 2 min 5 sec 

Total time                  ....     125.594 sec
Sum of individual times     ....     123.223 sec  ( 98.1%)

SCF preparation             ....       0.066 sec  (  0.1%)
Fock matrix formation       ....     122.525 sec  ( 97.6%)
  Startup                   ....       0.006 sec  (  0.0% of F)
  Split-RI-J                ....       4.718 sec  (  3.9% of F)
  Chain of spheres X        ....     109.108 sec  ( 89.0% of F)
  XC integration            ....      11.000 sec  (  9.0% of F)
    XC Preparation          ....       0.000 sec  (  0.0% of XC)
    Basis function eval.    ....       2.553 sec  ( 23.2% of XC)
    Density eval.           ....       2.596 sec  ( 23.6% of XC)
    XC-Functional eval.     ....       2.621 sec  ( 23.8% of XC)
    XC-Potential eval.      ....       3.102 sec  ( 28.2% of XC)
Diagonalization             ....       0.000 sec  (  0.0%)
Density matrix formation    ....       0.022 sec  (  0.0%)
Total Energy calculation    ....       0.005 sec  (  0.0%)
Population analysis         ....       0.237 sec  (  0.2%)
Orbital Transformation      ....       0.034 sec  (  0.0%)
Orbital Orthonormalization  ....       0.000 sec  (  0.0%)
DIIS solution               ....       0.115 sec  (  0.1%)
  MO trafo                  ....       0.000 sec  (  0.0 % of DIIS)
  Orb grad                  ....       0.000 sec  (  0.0 % of DIIS)
  Energy W gradient         ....       0.000 sec  (  0.0 % of DIIS)
  DIIS error                ....       0.017 sec  ( 14.4 % of DIIS)
  DIIS work                 ....       0.080 sec  ( 70.1 % of DIIS)
  Form Q                    ....       0.000 sec  (  0.0 % of DIIS)
  Form QpQm                 ....       0.000 sec  (  0.0 % of DIIS)
  Exp/Cayley                ....       0.000 sec  (  0.0 % of DIIS)
  Orb update                ....       0.000 sec  (  0.0 % of DIIS)
  Wake-sleep                ....       0.001 sec  (  0.7 % of DIIS)
SOSCF solution              ....       0.058 sec  (  0.0%)
  MO trafo                  ....       0.033 sec  ( 55.8 % of SOSCF)
  Orb grad                  ....       0.000 sec  (  0.7 % of SOSCF)
  Rot update                ....       0.001 sec  (  2.0 % of SOSCF)
  Step                      ....       0.024 sec  ( 41.4 % of SOSCF)
Grid generation             ....       0.161 sec  (  0.1%)
Finished LeanSCF after 125.6 sec

Maximum memory used throughout the entire LEANSCF-calculation: 49.5 MB
------------------   -----------------
gCP correction             0.011354191
------------------   -----------------

-------------------------   --------------------
FINAL SINGLE POINT ENERGY      -386.122169956719
-------------------------   --------------------


------------------------------------------------------------------------------
                              ORCA PROPERTY CALCULATIONS
------------------------------------------------------------------------------

GBWName                                 ... sp.gbw
Number of atoms                         ...     19
Number of basis functions               ...    339
Max core memory                         ...   1024 MB

Electric properties:
Dipole moment                           ... YES
Quadrupole moment                       ...  NO
Static polarizability (Dipole/Dipole)   ...  NO
Static polarizability (Dipole/Quad.)    ...  NO
Static polarizability (Quad./Quad.)     ...  NO
Static polarizability (Velocity)        ...  NO

Atomic electric properties:
Dipole moment                           ...  NO
Quadrupole moment                       ...  NO
Static polarizability                   ...  NO

Choice of electric origin               ... Center of mass
Position of electric origin             ...     0.007451    -0.007236    -0.000008

General magnetic properties:
Magnetizability                         ...  NO

EPR properties:
g-Tensor (aka g-matrix)                 ...  NO
Zero-Field splitting spin-orbit         ...  NO
Zero-field splitting spin-spin          ...  NO
Hyperfine couplings                     ...  NO (   0 nuclei)
Quadrupole couplings                    ...  NO (   0 nuclei)
Contact density                         ...  NO (   0 nuclei)

NMR properties:
Chemical shifts                         ...  NO (   0 nuclei)
Spin-rotation constants                 ...  NO (   0 nuclei)
Spin-spin couplings                     ...  NO (   0 nuclei,    0 pairs)

Choice of magnetic origin               ... GIAO
Position of magnetic origin             ...     0.000000     0.000000     0.000000

Properties with geometric perturbations:
SCF Hessian                             ...  NO
IR spectrum                             ...  NO
VCD spectrum                            ...  NO
X-ray spectroscopy properties:
SCF XES/XAS/RIXS spectra                ...  NO


-------------
DIPOLE MOMENT
-------------

Method             : SCF
Type of density    : Electron Density
Multiplicity       :   1
Irrep              :   0
Energy             :  -386.1335241474189388 Eh
Relativity type    : 
Basis              : AO
                                X                 Y                 Z
Electronic contribution:      5.554809783      -3.462575153       0.000227158
Nuclear contribution   :     -5.402612778       3.222689795      -0.000215137
                        -----------------------------------------
Total Dipole Moment    :      0.152197005      -0.239885358       0.000012021
                        -----------------------------------------
Magnitude (a.u.)       :      0.284093142
Magnitude (Debye)      :      0.722107381



--------------------
Rotational spectrum 
--------------------
 
Rotational constants in cm-1:             0.074932             0.059251             0.033498 
Rotational constants in MHz :          2246.411153          1776.294883          1004.250839 

Dipole components along the rotational axes: 
x,y,z [a.u.] :     0.153938    -0.238772     0.000009 
x,y,z [Debye]:     0.391279    -0.606910     0.000023 

 

Dipole moment calculation done in   0.0 sec 

Maximum memory used throughout the entire PROP-calculation: 31.7 MB

--------------------------------
SUGGESTED CITATIONS FOR THIS RUN
--------------------------------

Below you find a list of papers that are relevant to this ORCA run
We neither can nor want to force you to cite these papers, but we appreciate if you do
You receive ORCA, which is the product of decades of hard work by many enthusiastic individuals, for free
The only thing we kindly ask in return is that you cite our papers,
We deeply appreciate it, if you show your appreciation for ORCA by not just citing the generic ORCA reference.

Please note that relegating all ORCA citations to the supporting information does *not* help us.
SI sections are not indexed - citations you put there will not count into any citation statistics
But we need these citations in order to attract the funding resources that allow us to do what we are doing

Therefore, if you are a happy ORCA user, please consider citing a few of the papers listed below in the main body of your paper

In addition to the list printed below, the program has created the file sp.bibtex that contains the list in bibtex format
You can import this file easily into all common literature databanks and citation aid programs


List of essential papers. We consider these as the minimum necessary citations

  1. Neese,F.
     Software update: the ORCA program system, version 5.0
     WIRES Comput. Molec. Sci., 2022 12(1)e1606
     doi.org/10.1002/wcms.1606

List of papers to cite with high priority. The work reported in these papers was absolutely
necessary for this run to complete.
Our perspective: the developers of density functionals and basis sets usually get cited in chemistry papers
Good! But without the algorithms to do something with them, the functionals or basis sets would not do anything.
Hence, in our opinion, the algorithm design and method developments papers are equally worthy of getting cited

  1. Neese,F.
     An improvement of the resolution of the identity approximation for the formation of the Coulomb matrix
     J. Comp. Chem., 2003 24(14)1740-1747
     doi.org/10.1002/jcc.10318
  2. Neese,F.; Wennmohs,F.; Hansen,A.; Becker,U.
     Efficient, approximate and parallel Hartree-Fock and hybrid DFT calculations. A 'chain-of-spheres' algorithm for the Hartree-Fock exchange
     Chem. Phys., 2009 356(1-3)98-109
     doi.org/10.1016/j.chemphys.2008.10.036
  3. Helmich-Paris,B.; de Souza,B.; Neese,F.; Izsák,R.
     An improved chain of spheres for exchange algorithm
     J. Chem. Phys., 2021 155 104109
     doi.org/doi: 10.1063/5.0058766.
  4. Neese,F.
     The SHARK Integral Generation and Digestion System
     J. Comp. Chem., 2022  1-16
     doi.org/10.1002/jcc.26942

List of suggested additional citations. These are papers that are important in the 'surrounding' of 
of this run, or papers that preceded the highly important papers. If you like your results we are grateful for a citation.

  1. Izsak,R.; Neese,F.
     An overlap fitted chain of spheres exchange method
     J. Chem. Phys., 2011 135 144105
     doi.org/10.1063/1.3646921
  2. Izsak,R.; Hansen,A.; Neese,F.
     The resolution of identity and chain of spheres approximations for the LPNO-CCSD singles Fock term
     Molec. Phys., 2012 110 2413-2417
     doi.org/10.1080/00268976.2012.687466
  3. Neese,F.
     The ORCA program system
     WIRES Comput. Molec. Sci., 2012 2(1)73-78
     doi.org/10.1002/wcms.81
  4. Izsak,R.; Neese,F.; Klopper,W.
     Robust fitting techniques in the chain of spheres approximation to the Fock exchange: The role of the complementary space
     J. Chem. Phys., 2013 139 
     doi.org/10.1063/1.4819264
  5. Neese,F.
     Software update: the ORCA program system, version 4.0
     WIRES Comput. Molec. Sci., 2018 8(1)1-6
     doi.org/10.1002/wcms.1327
  6. Neese,F.; Wennmohs,F.; Becker,U.; Riplinger,C.
     The ORCA quantum chemistry program package
     J. Chem. Phys., 2020 152 Art. No. L224108
     doi.org/10.1063/5.0004608

List of optional additional citations

  1. Neese,F.
     Approximate second-order SCF convergence for spin unrestricted wavefunctions
     Chem. Phys. Lett., 2000 325(1-3)93-98
     doi.org/10.1016/s0009-2614(00)00662-x

Timings for individual modules:

Sum of individual times          ...      127.392 sec (=   2.123 min)
Startup calculation              ...        1.613 sec (=   0.027 min)   1.3 %
SCF iterations                   ...      125.725 sec (=   2.095 min)  98.7 %
Property calculations            ...        0.053 sec (=   0.001 min)   0.0 %
                             ****ORCA TERMINATED NORMALLY****
TOTAL RUN TIME: 0 days 0 hours 2 minutes 7 seconds 454 msec
