14
 energy: -13.663628899673 gnorm: 0.015497326709 xtb: 6.7.1 (41059b4)
C            1.57076943023665       -0.02158670235297        0.57013812177555
C            0.67983953749867        0.35321715348603       -0.61336417220035
C           -0.67984733718420       -0.35326771713572       -0.61333335122259
C           -1.57076918168111        0.02164016352323        0.57014128872533
H            1.73496314712891       -1.10447079901082        0.60715696109818
H            2.54946243120849        0.46223114310385        0.49587317055742
H            1.12773407805981        0.28080400246080        1.52382159805958
H            0.51963094050273        1.43975108464100       -0.62231329326325
H            1.20374254176737        0.11218374023642       -1.54661084877078
H           -1.20375784157149       -0.11232560310847       -1.54659967345041
H           -0.51963135897136       -1.43980152529779       -0.62217918034499
H           -1.12771578501430       -0.28063154428522        1.52385489227308
H           -2.54944453383247       -0.46222294945583        0.49593778227357
H           -1.73500475106430        1.10452202202736        0.60704549879479
14
 energy: -13.664122947585 gnorm: 0.005432797867 xtb: 6.7.1 (41059b4)
C            1.56286111359364       -0.02472441408489        0.56897924760070
C            0.67559238186433        0.35765594979555       -0.60789409350958
C           -0.67559673641319       -0.35770730554723       -0.60785723637193
C           -1.56286489283109        0.02477595754686        0.56898284286304
H            1.72123824514848       -1.10314657317917        0.59700494882761
H            2.53474789359634        0.46021625301272        0.48358094993413
H            1.11738484342787        0.28128224965578        1.51406584491748
H            0.51261766168937        1.44024270072703       -0.60409593155329
H            1.19808738134056        0.10998577532344       -1.53694657084660
H           -1.19809596725321       -0.11012380918597       -1.53693007277631
H           -0.51261920872605       -1.44029334752726       -0.60396058076113
H           -1.11736884262647       -0.28111390914124        1.51409795334825
H           -2.53473836622111       -0.46020343020228        0.48364859285452
H           -1.72127418950609        1.10319637163854        0.59689289977823
14
 energy: -13.664160342129 gnorm: 0.001369023272 xtb: 6.7.1 (41059b4)
C            1.56256118679889       -0.02582880729202        0.56894087736245
C            0.67496646490219        0.35857620966872       -0.60773109033714
C           -0.67497312832430       -0.35862987300752       -0.60769650815371
C           -1.56256338329204        0.02588136237001        0.56894391882590
H            1.71718879470992       -1.10262191202963        0.59366609639149
H            2.53335940090294        0.45733313225865        0.48234069638244
H            1.11709730653911        0.28008525232891        1.51177901597624
H            0.50741703148096        1.43845774295360       -0.59738407072568
H            1.19659612182411        0.11473739756481       -1.53691221474605
H           -1.19660678216718       -0.11487691409266       -1.53689796634000
H           -0.50742197861578       -1.43851022174669       -0.59725108164640
H           -1.11708147300250       -0.27991977550111        1.51181020118316
H           -2.53335035162917       -0.45731440344919        0.48240627549278
H           -1.71721789304377        1.10267327880598        0.59355464463965
14
 energy: -13.664169360738 gnorm: 0.001085733485 xtb: 6.7.1 (41059b4)
C            1.56351963659458       -0.02737700492057        0.56820902985650
C            0.67385208672860        0.36138119531132       -0.60715058117190
C           -0.67385840868886       -0.36143614976094       -0.60711450569685
C           -1.56352229717329        0.02742973300881        0.56821217455752
H            1.71498189340961       -1.10423793458515        0.59035371438289
H            2.53480087116368        0.45380701791980        0.48055171348121
H            1.11942471908570        0.27842309666698        1.51123110980925
H            0.50293753391732        1.44007162593750       -0.59112992316016
H            1.19512409767696        0.12312293652983       -1.53736817024717
H           -1.19513379728142       -0.12326352904553       -1.53735208061400
H           -0.50294375383074       -1.44012508818150       -0.59099544765350
H           -1.11941175668831       -0.27826235133142        1.51126179715608
H           -2.53479566825438       -0.45378136435626        0.48061564645433
H           -1.71500383957606        1.10429028563900        0.59024431715093
14
 energy: -13.664173610318 gnorm: 0.000654176859 xtb: 6.7.1 (41059b4)
C            1.56519962944504       -0.02819444592260        0.56710904719890
C            0.67320178866129        0.36262099159790       -0.60615838593311
C           -0.67320896200113       -0.36267707790667       -0.60612252757072
C           -1.56520150381020        0.02824804376754        0.56711230299082
H            1.71491700978136       -1.10567095234995        0.58772288575455
H            2.53747264223265        0.45145804612178        0.47815425243657
H            1.12333842478543        0.27717520469779        1.51178432999980
H            0.49990925689360        1.44102577714494       -0.58588199670135
H            1.19414237067392        0.12935950599341       -1.53803379701185
H           -1.19415325524415       -0.12950253230165       -1.53801771625252
H           -0.49991627416081       -1.44107999704467       -0.58574617563089
H           -1.12332827494548       -0.27701888637442        1.51181514995030
H           -2.53746913669833       -0.45142599127532        0.47821495579472
H           -1.71493239852979        1.10572478268380        0.58761646927993
14
 energy: -13.664175107397 gnorm: 0.000184411619 xtb: 6.7.1 (41059b4)
C            1.56622081614607       -0.02899776422564        0.56603937551160
C            0.67253449534336        0.36352959783107       -0.60490548728783
C           -0.67254096693495       -0.36358596359465       -0.60486792126198
C           -1.56622319525604        0.02905154380850        0.56604309029559
H            1.71568775239853       -1.10662618798048        0.58588182700666
H            2.53871406393983        0.45005243255368        0.47583637985962
H            1.12658466773745        0.27567862315959        1.51208947249376
H            0.49799323877306        1.44184705718432       -0.58219424580349
H            1.19267095964819        0.13318523978355       -1.53805494174558
H           -1.19268121755893       -0.13332978682851       -1.53803697757686
H           -0.49799964468445       -1.44190130401327       -0.58205570199102
H           -1.12657794286524       -0.27552644963366        1.51212058658019
H           -2.53871338896700       -0.45001532996916        0.47589492800744
H           -1.71569832063650        1.10668076075653        0.58577841021704
14
 energy: -13.664175482533 gnorm: 0.000119182943 xtb: 6.7.1 (41059b4)
C            1.56690677663302       -0.02928234260395        0.56568954034413
C            0.67251645795156        0.36353243022214       -0.60437220208009
C           -0.67252364227893       -0.36358935380614       -0.60433518732928
C           -1.56690853326065        0.02933666213925        0.56569328134423
H            1.71671951169851       -1.10685927316053        0.58458915185580
H            2.53920326043296        0.45011170694726        0.47530516487285
H            1.12770750237059        0.27442270075637        1.51223846745067
H            0.49771396335367        1.44176768755141       -0.58078275980077
H            1.19226749946957        0.13409411377740       -1.53797454959612
H           -1.19227880075215       -0.13424000778355       -1.53795716856500
H           -0.49772072705578       -1.44182233733029       -0.58064382019159
H           -1.12770198269518       -0.27427245419661        1.51226961250923
H           -2.53920286231208       -0.45007167882438        0.47536200668768
H           -1.71672710647172        1.10691461514349        0.58448725680338
14
 energy: -13.664175785158 gnorm: 0.000147353098 xtb: 6.7.1 (41059b4)
C            1.56721346482220       -0.02963709137246        0.56555411448840
C            0.67254973768803        0.36350235760494       -0.60412852222107
C           -0.67255671955902       -0.36355953169255       -0.60409094414289
C           -1.56721537656011        0.02969152656722        0.56555802105692
H            1.71793089167032       -1.10711462914419        0.58354336409886
H            2.53912009295279        0.45061451993614        0.47550505396075
H            1.12787810936117        0.27288767458650        1.51242551818342
H            0.49775394113714        1.44174203991909       -0.58026451476932
H            1.19201829058823        0.13425435110492       -1.53794351501100
H           -1.19202939373450       -0.13440087146141       -1.53792557821575
H           -0.49776061239581       -1.44179689617029       -0.58012462605909
H           -1.12787396601984       -0.27273915895821        1.51245664708112
H           -2.53912084979489       -0.45057212289722        0.47556107655565
H           -1.71793629307233        1.10717030080938        0.58344269929913
14
 energy: -13.664176225969 gnorm: 0.000100556044 xtb: 6.7.1 (41059b4)
C            1.56751345262459       -0.03026731082451        0.56538770172896
C            0.67259634276042        0.36348005967238       -0.60391874087972
C           -0.67260369595204       -0.36353789366021       -0.60388117433773
C           -1.56751503906546        0.03032222162434        0.56539169845313
H            1.71981349554724       -1.10754180137668        0.58171578390632
H            2.53871925172818        0.45159618527431        0.47639963462538
H            1.12744040674753        0.27010873402883        1.51258883594365
H            0.49793128457804        1.44172218492374       -0.57959647413272
H            1.19187060912866        0.13446655198202       -1.53788569528256
H           -1.19188223766080       -0.13461440256381       -1.53786787645687
H           -0.49793833188683       -1.44177764211441       -0.57945571159298
H           -1.12743801756442       -0.26996289104558        1.51261982992282
H           -2.53872115232703       -0.45154979825155        0.47645401366361
H           -1.71981505157467        1.10759827116298        0.58161696874385
14
 energy: -13.664176608521 gnorm: 0.000050739573 xtb: 6.7.1 (41059b4)
C            1.56781057114432       -0.03107863311504        0.56518306774496
C            0.67256658525372        0.36353378179207       -0.60367397218819
C           -0.67257306817579       -0.36359197297838       -0.60363472634204
C           -1.56781286826430        0.03113355091159        0.56518741478545
H            1.72182025337197       -1.10813189403946        0.57944542084874
H            2.53825187972788        0.45252496371483        0.47736072012904
H            1.12702628223659        0.26677785714788        1.51285277417952
H            0.49779844027961        1.44172354124504       -0.57854215036270
H            1.19158189208374        0.13518606136184       -1.53793817201935
H           -1.19159242667226       -0.13533469965000       -1.53791864173221
H           -0.49780519159872       -1.44177931776281       -0.57839937137677
H           -1.12702653576962       -0.26663527136521        1.51288364268845
H           -2.53825656209468       -0.45247427369631        0.47741406534975
H           -1.72181793443907        1.10818877526582        0.57934872260050
14
 energy: -13.664176833842 gnorm: 0.000051219960 xtb: 6.7.1 (41059b4)
C            1.56818185468438       -0.03161575118363        0.56493525860028
C            0.67250519449237        0.36366503257425       -0.60339201451379
C           -0.67251305223456       -0.36372395753516       -0.60335425337637
C           -1.56818299040767        0.03167141166325        0.56493940724873
H            1.72312792228694       -1.10855198512106        0.57784713190026
H            2.53819256079719        0.45297668938119        0.47777046073252
H            1.12707989990403        0.26464175082243        1.51294925962737
H            0.49763071056104        1.44182317399637       -0.57754096014852
H            1.19139127676481        0.13597072433232       -1.53787917610644
H           -1.19140361982814       -0.13612079723762       -1.53786125399201
H           -0.49763835695024       -1.44187956477596       -0.57739858691176
H           -1.12708058050081       -0.26450056935303        1.51297999669789
H           -2.53819665915051       -0.45292344384359        0.47782206468671
H           -1.72312284333546        1.10860975511209        0.57775145986026
14
 energy: -13.664176975567 gnorm: 0.000049263617 xtb: 6.7.1 (41059b4)
C            1.56842371732725       -0.03192492231868        0.56477204816498
C            0.67243096990386        0.36378356769585       -0.60318509247123
C           -0.67243748440107       -0.36384212507386       -0.60314552251240
C           -1.56842597262033        0.03198006102529        0.56477645915059
H            1.72374941080710       -1.10880892271005        0.57692889784784
H            2.53825216356191        0.45304523136163        0.47774977519358
H            1.12739346703890        0.26353678715541        1.51306678876189
H            0.49734103457011        1.44188935959710       -0.57674350522492
H            1.19115928934933        0.13666988294163       -1.53790203939583
H           -1.19116989937034       -0.13681933682948       -1.53788213583268
H           -0.49734792385657       -1.44194537883537       -0.57659991008250
H           -1.12739503443682       -0.26339613598724        1.51309747670824
H           -2.53825795025957       -0.45299181610176        0.47780208353848
H           -1.72374447053037        1.10886621691141        0.57683347045907
14
 energy: -13.664177079325 gnorm: 0.000032008206 xtb: 6.7.1 (41059b4)
C            1.56870474208530       -0.03213093077823        0.56461052862879
C            0.67237004540675        0.36388869355882       -0.60296280785907
C           -0.67237847803564       -0.36394765950790       -0.60292584111372
C           -1.56870539504520        0.03218673905878        0.56461447952339
H            1.72419727926898       -1.10900172037324        0.57629725918277
H            2.53844722157761        0.45301525926731        0.47755606142406
H            1.12784949292502        0.26286590536414        1.51313236280831
H            0.49709418381011        1.44195289436072       -0.57607048852149
H            1.19096044355909        0.13725557301248       -1.53787145532780
H           -1.19097351966147       -0.13740580033032       -1.53785427730160
H           -0.49710212412851       -1.44200920391602       -0.57592873566976
H           -1.12784957611455       -0.26272416785653        1.51316291653130
H           -2.53845043304686       -0.45296253775505        0.47760754876694
H           -1.72419256551724        1.10905942472692        0.57620124323303
14
 energy: -13.664177152758 gnorm: 0.000019616087 xtb: 6.7.1 (41059b4)
C            1.56892572170183       -0.03230071161967        0.56447784834867
C            0.67232480466521        0.36397809393070       -0.60278443314898
C           -0.67232964505576       -0.36403572723092       -0.60274298628596
C           -1.56892939202121        0.03235491195350        0.56448240833418
H            1.72458919632973       -1.10915271887336        0.57573591500032
H            2.53858712951015        0.45300087390329        0.47738869803296
H            1.12824162395347        0.26226472172596        1.51321703506335
H            0.49691020539834        1.44201334704984       -0.57548335539062
H            1.19078028074974        0.13773809564835       -1.53786755751797
H           -1.19078870625077       -0.13788582611035       -1.53784545904288
H           -0.49691600286674       -1.44206842719597       -0.57533919751424
H           -1.12824270687599       -0.26212243835375        1.51324751731134
H           -2.53859369672527       -0.45295042223714        0.47744312297346
H           -1.72458749542934        1.10920869624138        0.57563923814149
