      -----------------------------------------------------------      
     |                   =====================                   |     
     |                           x T B                           |     
     |                   =====================                   |     
     |                         S. Grimme                         |     
     |          Mulliken Center for Theoretical Chemistry        |     
     |                    University of Bonn                     |     
      -----------------------------------------------------------      

   * xtb version 6.7.1 (41059b4) compiled by 'michael@archlinux' on 2025-03-24

   xtb is free software: you can redistribute it and/or modify it under
   the terms of the GNU Lesser General Public License as published by
   the Free Software Foundation, either version 3 of the License, or
   (at your option) any later version.
   
   xtb is distributed in the hope that it will be useful,
   but WITHOUT ANY WARRANTY; without even the implied warranty of
   MERCHANTABILITY or FITNESS FOR A PARTICULAR PURPOSE.  See the
   GNU Lesser General Public License for more details.
   
   Cite this work as:
   * C. Bannwarth, E. Caldeweyher, S. Ehlert, A. Hansen, P. Pracht,
     J. Seibert, S. Spicher, S. Grimme, WIREs Comput. Mol. Sci., 2020, 11,
     e01493. DOI: 10.1002/wcms.1493
   
   for GFN2-xTB:
   * C. Bannwarth, S. Ehlert and S. Grimme., J. Chem. Theory Comput., 2019,
     15, 1652-1671. DOI: 10.1021/acs.jctc.8b01176
   for GFN1-xTB:
   * S. Grimme, C. Bannwarth, P. Shushkov, J. Chem. Theory Comput., 2017,
     13, 1989-2009. DOI: 10.1021/acs.jctc.7b00118
   for GFN0-xTB:
   * P. Pracht, E. Caldeweyher, S. Ehlert, S. Grimme, ChemRxiv, 2019, preprint.
     DOI: 10.26434/chemrxiv.8326202.v1
   for GFN-FF:
   * S. Spicher and S. Grimme, Angew. Chem. Int. Ed., 2020, 59, 15665-15673.
     DOI: 10.1002/anie.202004239
   
   for ALPB and GBSA implicit solvation:
   * S. Ehlert, M. Stahn, S. Spicher, S. Grimme, J. Chem. Theory Comput.,
     2021, 17, 4250-4261. DOI: 10.1021/acs.jctc.1c00471
   
   for ddCOSMO and CPCM-X implicit solvation:
   * M. Stahn, S. Ehlert, S. Grimme, J. Phys. Chem. A,
     2023, XX, XXXX-XXXX. DOI: 10.1021/acs.jpca.3c04382
   
   for DFT-D4:
   * E. Caldeweyher, C. Bannwarth and S. Grimme, J. Chem. Phys., 2017,
     147, 034112. DOI: 10.1063/1.4993215
   * E. Caldeweyher, S. Ehlert, A. Hansen, H. Neugebauer, S. Spicher,
     C. Bannwarth and S. Grimme, J. Chem. Phys., 2019, 150, 154122.
     DOI: 10.1063/1.5090222
   * E. Caldeweyher, J.-M. Mewes, S. Ehlert and S. Grimme, Phys. Chem. Chem. Phys.
     2020, 22, 8499-8512. DOI: 10.1039/D0CP00502A
   
   for sTDA-xTB:
   * S. Grimme and C. Bannwarth, J. Chem. Phys., 2016, 145, 054103.
     DOI: 10.1063/1.4959605
   
   in the mass-spec context:
   * V. Asgeirsson, C. Bauer and S. Grimme, Chem. Sci., 2017, 8, 4879.
     DOI: 10.1039/c7sc00601b
   * J. Koopman and S. Grimme, ACS Omega 2019, 4, 12, 15120-15133.
     DOI: 10.1021/acsomega.9b02011
   
   for metadynamics refer to:
   * S. Grimme, J. Chem. Theory Comput., 2019, 155, 2847-2862
     DOI: 10.1021/acs.jctc.9b00143
   
   for SPH calculations refer to:
   * S. Spicher and S. Grimme, J. Chem. Theory Comput., 2021, 17, 1701-1714
     DOI: 10.1021/acs.jctc.0c01306
   
   for ONIOM refer to:
   * C. Plett, A. Katbashev, S. Ehlert, S. Grimme, M. Bursch,
     Phys. Chem. Chem. Phys., 2023, 25, 17860-17868. DOI: 10.1039/D3CP02178E
   
   for DIPRO refer to:
   * J. Kohn, N. Gildemeister, S. Grimme, D. Fazzi, A. Hansen,
     J. Chem. Phys., 2023, just accepted.
   
   for PTB refer to:
   * S. Grimme, M. Mueller, A. Hansen, J. Chem. Phys., 2023, 158, 124111.
     DOI: 10.1063/5.0137838
   
   with help from (in alphabetical order)
   P. Atkinson, C. Bannwarth, F. Bohle, G. Brandenburg, E. Caldeweyher
   M. Checinski, S. Dohm, S. Ehlert, S. Ehrlich, I. Gerasimov, C. Hölzer
   A. Katbashev, J. Kohn, J. Koopman, C. Lavigne, S. Lehtola, F. März, M. Müller,
   F. Musil, H. Neugebauer, J. Pisarek, C. Plett, P. Pracht, F. Pultar,
   J. Seibert, P. Shushkov, S. Spicher, M. Stahn, M. Steiner, T. Strunk,
   J. Stückrath, T. Rose, and J. Unsleber
   
 * started run on 2025/04/09 at 02:50:05.015     
   ID    Z sym.   atoms
    1    6 C      1, 2, 4-6
    2    8 O      3
    3    1 H      7-14

           -------------------------------------------------
          |                Calculation Setup                |
           -------------------------------------------------

          program call               : /usr/bin/xtb xtb_rrho.coord --gfn2 --bhess vtight --chrg 0 --enso --norestart -I rrho-xcontrol-inp --parallel 1
          coordinate file            : xtb_rrho.coord
          omp threads                :                     1


           -------------------------------------------------
          |                 G F N 2 - x T B                 |
           -------------------------------------------------

        Reference                      10.1021/acs.jctc.8b01176
      * Hamiltonian:
        H0-scaling (s, p, d)           1.850000    2.230000    2.230000
        zeta-weighting                 0.500000
      * Dispersion:
        s8                             2.700000
        a1                             0.520000
        a2                             5.000000
        s9                             5.000000
      * Repulsion:
        kExp                           1.500000    1.000000
        rExp                           1.000000
      * Coulomb:
        alpha                          2.000000
        third order                    shell-resolved
        anisotropic                    true
        a3                             3.000000
        a5                             4.000000
        cn-shift                       1.200000
        cn-exp                         4.000000
        max-rad                        5.000000


          ...................................................
          :                      SETUP                      :
          :.................................................:
          :  # basis functions                  32          :
          :  # atomic orbitals                  32          :
          :  # shells                           20          :
          :  # electrons                        34          :
          :  max. iterations                   250          :
          :  Hamiltonian                  GFN2-xTB          :
          :  restarted?                      false          :
          :  GBSA solvation                  false          :
          :  PC potential                    false          :
          :  electronic temp.          300.0000000     K    :
          :  accuracy                    1.0000000          :
          :  -> integral cutoff          0.2500000E+02      :
          :  -> integral neglect         0.1000000E-07      :
          :  -> SCF convergence          0.1000000E-05 Eh   :
          :  -> wf. convergence          0.1000000E-03 e    :
          :  Broyden damping             0.4000000          :
          :  net charge                          0          :
          :  unpaired electrons                  0          :
          ...................................................

 iter      E             dE          RMSdq      gap      omega  full diag
   1    -19.0127600 -0.190128E+02  0.390E+00    4.58       0.0  T
   2    -19.0561762 -0.434162E-01  0.194E+00    3.59       1.0  T
   3    -19.0608978 -0.472162E-02  0.129E+00    4.08       1.0  T
   4    -19.0642336 -0.333580E-02  0.167E-01    3.86       1.0  T
   5    -19.0643823 -0.148710E-03  0.800E-02    3.89       1.0  T
   6    -19.0644035 -0.211492E-04  0.364E-02    3.88       1.0  T
   7    -19.0644053 -0.183646E-05  0.133E-02    3.88       2.0  T
   8    -19.0644057 -0.367360E-06  0.243E-03    3.88      11.0  T
   9    -19.0644057  0.133522E-09  0.142E-03    3.88      18.8  T
  10    -19.0644057 -0.960282E-08  0.178E-04    3.88     149.8  T
  11    -19.0644057 -0.789342E-10  0.753E-05    3.88     355.2  T

   *** convergence criteria satisfied after 11 iterations ***

         #    Occupation            Energy/Eh            Energy/eV
      -------------------------------------------------------------
         1        2.0000           -0.7015891             -19.0912
       ...           ...                  ...                  ...
        11        2.0000           -0.4881352             -13.2828
        12        2.0000           -0.4785565             -13.0222
        13        2.0000           -0.4709631             -12.8156
        14        2.0000           -0.4655297             -12.6677
        15        2.0000           -0.4458297             -12.1316
        16        2.0000           -0.4363728             -11.8743
        17        2.0000           -0.3935924             -10.7102 (HOMO)
        18                         -0.2509770              -6.8294 (LUMO)
        19                         -0.0604183              -1.6441
        20                          0.0666506               1.8137
        21                          0.0883909               2.4052
        22                          0.1003530               2.7307
       ...                                ...                  ...
        32                          0.5990601              16.3013
      -------------------------------------------------------------
                  HL-Gap            0.1426154 Eh            3.8808 eV
             Fermi-level           -0.3222847 Eh           -8.7698 eV

 SCC (total)                   0 d,  0 h,  0 min,  0.005 sec
 SCC setup                      ...        0 min,  0.000 sec (  1.116%)
 Dispersion                     ...        0 min,  0.000 sec (  1.112%)
 classical contributions        ...        0 min,  0.000 sec (  0.265%)
 integral evaluation            ...        0 min,  0.001 sec ( 12.814%)
 iterations                     ...        0 min,  0.003 sec ( 51.284%)
 molecular gradient             ...        0 min,  0.002 sec ( 32.168%)
 printout                       ...        0 min,  0.000 sec (  1.103%)

         :::::::::::::::::::::::::::::::::::::::::::::::::::::
         ::                     SUMMARY                     ::
         :::::::::::::::::::::::::::::::::::::::::::::::::::::
         :: total energy             -18.813932869544 Eh    ::
         :: gradient norm              0.021703074860 Eh/a0 ::
         :: HOMO-LUMO gap              3.880762101955 eV    ::
         ::.................................................::
         :: SCC energy               -19.064392678260 Eh    ::
         :: -> isotropic ES            0.029384005434 Eh    ::
         :: -> anisotropic ES          0.002267613991 Eh    ::
         :: -> anisotropic XC          0.008974464382 Eh    ::
         :: -> dispersion             -0.007664091458 Eh    ::
         :: repulsion energy           0.250459808715 Eh    ::
         :: add. restraining           0.000000000000 Eh    ::
         :: total charge              -0.000000000000 e     ::
         :::::::::::::::::::::::::::::::::::::::::::::::::::::

metadynamics with 1 initial structures loaded
           -------------------------------------------------
          |           Optimal kpush determination           |
           -------------------------------------------------
      ----------------------------------------------------------- 
     |                   =====================                   |
     |                        A N C O P T                        |
     |                   =====================                   |
     |               Approximate Normal Coordinate               |
     |                Rational Function Optimizer                |
      ----------------------------------------------------------- 
target rmsd / Å         0.100000
unbiased initial rmsd   0.066059

iter. min.        max.        rmsd       kpush
final kpush: -0.000000
           -------------------------------------------------
          |            Biased Numerical Hessian             |
           -------------------------------------------------
kpush                :  -0.00000
alpha                :   1.00000
step length          :   0.00500
SCC accuracy         :   0.30000
Hessian scale factor :   1.00000
frozen atoms in %    :   0.00000    0
RMS gradient         :   0.00002
estimated CPU  time      0.00 min
estimated wall time      0.00 min

writing file <hessian>, containing the non-mass-weighted Hessian matrix in atomic units (Eₕ/Bohr²).

writing file <hessian_sph>.

 projected vibrational frequencies (cm⁻¹)
eigval :       -0.00    -0.00    -0.00    -0.00     0.00     0.00
eigval :       80.95   127.95   252.82   260.14   458.47   484.52
eigval :      569.89   758.90   805.43   870.27   932.78   962.91
eigval :      998.98  1004.87  1052.97  1068.47  1075.01  1101.43
eigval :     1152.97  1224.97  1250.71  1365.43  1372.87  1434.24
eigval :     1453.97  1467.48  1489.35  1743.51  3016.33  3049.32
eigval :     3052.29  3058.37  3093.84  3095.38  3100.65  3117.53
           -------------------------------------------------
          |                Property Printout                |
           -------------------------------------------------

    * Orbital Energies and Occupations

         #    Occupation            Energy/Eh            Energy/eV
      -------------------------------------------------------------
         1        2.0000           -0.7044161             -19.1681
       ...           ...                  ...                  ...
         5        2.0000           -0.5863614             -15.9557
         6        2.0000           -0.5627598             -15.3135
         7        2.0000           -0.5503086             -14.9747
         8        2.0000           -0.5378237             -14.6349
         9        2.0000           -0.5342753             -14.5384
        10        2.0000           -0.5044588             -13.7270
        11        2.0000           -0.4881435             -13.2831
        12        2.0000           -0.4810647             -13.0904
        13        2.0000           -0.4702981             -12.7975
        14        2.0000           -0.4643688             -12.6361
        15        2.0000           -0.4448486             -12.1049
        16        2.0000           -0.4380657             -11.9204
        17        2.0000           -0.3936047             -10.7105 (HOMO)
        18                         -0.2492106              -6.7814 (LUMO)
        19                         -0.0554621              -1.5092
        20                          0.0734467               1.9986
        21                          0.0943309               2.5669
        22                          0.1074242               2.9232
        23                          0.1162528               3.1634
        24                          0.1609508               4.3797
        25                          0.1876910               5.1073
        26                          0.2091561               5.6914
        27                          0.2236396               6.0855
        28                          0.2923893               7.9563
       ...                                ...                  ...
        32                          0.6265982              17.0506
      -------------------------------------------------------------
                  HL-Gap            0.1443941 Eh            3.9292 eV
             Fermi-level           -0.3214077 Eh           -8.7459 eV

     #   Z          covCN         q      C6AA      α(0)
     1   6          3.753    -0.136    23.179     6.865
     2   6          2.811     0.238    23.031     7.863
     3   8          0.858    -0.373    21.147     6.165
     4   6          3.858    -0.045    21.333     6.569
     5   6          3.806    -0.060    21.655     6.625
     6   6          3.806    -0.055    21.562     6.610
     7   1          0.925     0.058     2.219     2.330
     8   1          0.925     0.067     2.121     2.278
     9   1          0.925     0.067     2.117     2.276
    10   1          0.925     0.056     2.249     2.345
    11   1          0.926     0.046     2.365     2.405
    12   1          0.926     0.047     2.358     2.401
    13   1          0.926     0.047     2.358     2.401
    14   1          0.926     0.043     2.408     2.427

 Mol. C6AA /au·bohr⁶  :       1607.866888
 Mol. C8AA /au·bohr⁸  :      35623.662185
 Mol. α(0) /au        :         59.559412


Wiberg/Mayer (AO) data.
largest (>0.10) Wiberg bond orders for each atom

 ---------------------------------------------------------------------------
     #   Z sym  total        # sym  WBO       # sym  WBO       # sym  WBO
 ---------------------------------------------------------------------------
     1   6      3.995 --     2      1.001     9      0.981     7      0.969
                             8      0.955
     2   6      3.927 --     3      1.829     4      1.032     1      1.001
     3   8      2.057 --     2      1.829
     4   6      3.945 --     2      1.032    10      0.968     5      0.936
                             6      0.924
     5   6      3.948 --     6      1.007    11      0.979    12      0.977
                             4      0.936
     6   6      3.948 --     5      1.007    13      0.979    14      0.976
                             4      0.924
     7   1      0.997 --     1      0.969
     8   1      0.996 --     1      0.955
     9   1      0.995 --     1      0.981
    10   1      0.997 --     4      0.968
    11   1      0.998 --     5      0.979
    12   1      0.998 --     5      0.977
    13   1      0.998 --     6      0.979
    14   1      0.998 --     6      0.976
 ---------------------------------------------------------------------------

Topologies differ in total number of bonds
Writing topology from bond orders to xtbtopo.mol

molecular dipole:
                 x           y           z       tot (Debye)
 q only:       -0.736       1.055      -0.185
   full:       -0.842       1.209      -0.207       3.782
molecular quadrupole (traceless):
                xx          xy          yy          xz          yz          zz
 q only:        0.322       4.388      -1.599      -0.934       0.524       1.277
  q+dip:        0.644       6.609      -2.160      -1.656       0.397       1.516
   full:        0.131       6.263      -2.430      -1.347       0.761       2.299

           -------------------------------------------------
          |                Geometry Summary                 |
           -------------------------------------------------

      molecular mass/u    :       84.1166104
   center of mass at/Å    :       -0.0000340      -0.0000534      -0.0002595
  moments of inertia/u·Å² :        0.7649990E+02   0.1841970E+03   0.2188961E+03
rotational constants/cm⁻¹ :        0.2203615E+00   0.9151957E-01   0.7701202E-01

 * 13 selected distances

     #   Z          #   Z                                           value/Å
     2   6          3   8                                         1.2094900
     2   6          4   6                                         1.4843149
     4   6          5   6                                         1.5081728
     4   6          6   6                                         1.5122260 (max)
     5   6          6   6                                         1.4861593
     1   6          7   1                                         1.0857745
     1   6          8   1                                         1.0890724
     1   6          9   1                                         1.0867499
     4   6         10   1                                         1.0841295
     5   6         11   1                                         1.0792675
     5   6         12   1                                         1.0784482 (min)
     6   6         13   1                                         1.0792057
     6   6         14   1                                         1.0790109

 * 3 distinct bonds (by element types)

   Z      Z             #   av. dist./Å        max./Å        min./Å
   1 H    6 C           8     1.0827073     1.0890724     1.0784482
   6 C    6 C           4     1.4977183     1.5122260     1.4843149
   6 C    8 O           1     1.2094900     1.2094900     1.2094900

           -------------------------------------------------
          |               Frequency Printout                |
           -------------------------------------------------
 projected vibrational frequencies (cm⁻¹)
Molecule has no symmetry elements
It seems to be the C1 point group
eigval :       -0.00    -0.00    -0.00    -0.00     0.00     0.00
eigval :       80.95   127.95   252.82   260.14   458.47   484.52
eigval :      569.89   758.90   805.43   870.27   932.78   962.91
eigval :      998.98  1004.87  1052.97  1068.47  1075.01  1101.43
eigval :     1152.97  1224.97  1250.71  1365.43  1372.87  1434.24
eigval :     1453.97  1467.48  1489.35  1743.51  3016.33  3049.32
eigval :     3052.29  3058.37  3093.84  3095.38  3100.65  3117.53
 reduced masses (amu)
    1:      4.29    2:      3.84    3:      7.18    4:      4.79    5:      5.13    6:      3.82
    7:      3.13    8:      1.05    9:      2.82   10:      2.73   11:      2.70   12:      5.78
   13:      2.44   14:      1.98   15:      1.18   16:      1.12   17:      3.68   18:      1.64
   19:      2.05   20:      2.55   21:      1.27   22:      1.34   23:      1.56   24:      1.12
   25:      1.42   26:      3.27   27:      1.37   28:      1.38   29:      1.80   30:      1.10
   31:      1.10   32:      1.08   33:      1.56   34:     11.51   35:      1.08   36:      1.06
   37:      1.08   38:      1.08   39:      1.06   40:      1.07   41:      1.07   42:      1.11
 IR intensities (km·mol⁻¹)
    1:      1.33    2:      1.59    3:      1.32    4:      1.40    5:      1.27    6:      0.75
    7:      3.56    8:      0.16    9:      2.20   10:      0.78   11:      2.50   12:     13.09
   13:      1.31   14:      4.02   15:      1.95   16:      0.95   17:      5.50   18:     20.61
   19:     19.16   20:     19.66   21:      2.19   22:      5.41   23:     27.13   24:      1.19
   25:      0.48   26:    107.13   27:     39.48   28:     43.15   29:     16.83   30:      0.96
   31:      6.94   32:      9.19   33:      3.03   34:    385.34   35:      7.56   36:      4.42
   37:     19.20   38:     12.59   39:      9.71   40:     16.75   41:     15.67   42:     43.17
 Raman intensities (Ä⁴*amu⁻¹)
    1:      0.00    2:      0.00    3:      0.00    4:      0.00    5:      0.00    6:      0.00
    7:      0.00    8:      0.00    9:      0.00   10:      0.00   11:      0.00   12:      0.00
   13:      0.00   14:      0.00   15:      0.00   16:      0.00   17:      0.00   18:      0.00
   19:      0.00   20:      0.00   21:      0.00   22:      0.00   23:      0.00   24:      0.00
   25:      0.00   26:      0.00   27:      0.00   28:      0.00   29:      0.00   30:      0.00
   31:      0.00   32:      0.00   33:      0.00   34:      0.00   35:      0.00   36:      0.00
   37:      0.00   38:      0.00   39:      0.00   40:      0.00   41:      0.00   42:      0.00
 output can be read by thermo (or use thermo option).
 writing <g98.out> molden fake output.
 recommended (thermochemical) frequency scaling factor: 1.0
           -------------------------------------------------
          |             Thermodynamic Functions             |
           -------------------------------------------------

c1  symmetry found (for desy threshold:  0.10E+00) used in thermo

          ...................................................
          :                      SETUP                      :
          :.................................................:
          :  # frequencies                          36      :
          :  # imaginary freq.                       0      :
          :  linear?                             false      :
          :  only rotor calc.                    false      :
          :  symmetry                               c1      :
          :  rotational number                       1      :
          :  scaling factor                  1.0000000      :
          :  rotor cutoff                    0.0000000 cm⁻¹ :
          :  imag. cutoff                 -100.0000000 cm⁻¹ :
          :.................................................:

    mode    ω/cm⁻¹     T·S(HO)/kcal·mol⁻¹    T·S(FR)/kcal·mol⁻¹   T·S(vib)
   ------------------------------------------------------------------------
       1     80.95    -1.15319 (100.00%)    -0.91345 (  0.00%)    -1.15319
       2    127.95    -0.88750 (100.00%)    -0.77796 (  0.00%)    -0.88750
       3    252.82    -0.51009 (100.00%)    -0.57632 (  0.00%)    -0.51009
       4    260.14    -0.49519 (100.00%)    -0.56787 (  0.00%)    -0.49519
   ------------------------------------------------------------------------

   temp. (K)  partition function   enthalpy   heat capacity  entropy
                                   cal/mol     cal/K/mol   cal/K/mol   J/K/mol
 298.15  VIB   20.3                 2304.275     17.069     13.709
         ROT  0.134E+06              888.727      2.981     26.443
         INT  0.272E+07             3193.003     20.050     40.152
         TR   0.236E+26             1481.212      4.968     39.202
         TOT                        4674.2152    25.0175    79.3545   332.0192

       T/K    H(0)-H(T)+PV         H(T)/Eh          T*S/Eh         G(T)/Eh
   ------------------------------------------------------------------------
    298.15    0.744884E-02    0.124560E+00    0.377039E-01    0.868563E-01
   ------------------------------------------------------------------------

         :::::::::::::::::::::::::::::::::::::::::::::::::::::
         ::                  THERMODYNAMIC                  ::
         :::::::::::::::::::::::::::::::::::::::::::::::::::::
         :: total free energy         -18.727738547573 Eh   ::
         ::.................................................::
         :: total energy              -18.814594829659 Eh   ::
         :: zero point energy           0.117111327819 Eh   ::
         :: G(RRHO) w/o ZPVE           -0.030255045733 Eh   ::
         :: G(RRHO) contrib.            0.086856282086 Eh   ::
         :::::::::::::::::::::::::::::::::::::::::::::::::::::

optimized geometry written to: xtbopt.coord


           -------------------------------------------------
          | TOTAL ENERGY              -18.814594829659 Eh   |
          | TOTAL ENTHALPY            -18.690034665767 Eh   |
          | TOTAL FREE ENERGY         -18.727738547573 Eh   |
          | GRADIENT NORM               0.000022011214 Eh/α |
          | HOMO-LUMO GAP               3.929163021927 eV   |
           -------------------------------------------------

------------------------------------------------------------------------
 * finished run on 2025/04/09 at 02:50:05.369     
------------------------------------------------------------------------
 total:
 * wall-time:     0 d,  0 h,  0 min,  0.354 sec
 *  cpu-time:     0 d,  0 h,  0 min,  0.347 sec
 * ratio c/w:     0.980 speedup
 SCF:
 * wall-time:     0 d,  0 h,  0 min,  0.005 sec
 *  cpu-time:     0 d,  0 h,  0 min,  0.005 sec
 * ratio c/w:     0.946 speedup
 analytical hessian:
 * wall-time:     0 d,  0 h,  0 min,  0.286 sec
 *  cpu-time:     0 d,  0 h,  0 min,  0.281 sec
 * ratio c/w:     0.980 speedup

