17
 energy: -22.492852065842 gnorm: 0.023957981221 xtb: 6.7.1 (41059b4)
C            1.86381357452375       -1.44001734583405       -0.00006360366546
C            0.55611298181294       -0.70536640831221       -0.00002401291873
C           -0.65799841017125       -1.38873619858348       -0.00000180649391
C           -1.85198200467137       -0.67692643909385       -0.00000919892175
N           -1.90965001261615        0.65645247047162       -0.00003545793943
C           -0.74352633821854        1.30702846747357       -0.00005609601129
C            0.51227025808986        0.69834098520866       -0.00005560421684
C            1.76392895776414        1.52607730556279       -0.00011506722064
H            2.46338165119371       -1.18004606445397       -0.87985960390175
H            2.46401356987790       -1.17908172612277        0.87900810133132
H            1.70946301233905       -2.52103752087003        0.00057311729327
H           -0.67360312756855       -2.47490459341202        0.00001974168445
H           -2.80486463208124       -1.20385953762481        0.00000106110491
H           -0.80412026836912        2.39610300872818       -0.00005678250543
H            2.38236247957645        1.31775356187123        0.88045487245366
H            2.38220259906362        1.31782243733751       -0.88081714856755
H            1.52539652005145        2.59228008339004       -0.00004958906825
17
 energy: -22.493787675748 gnorm: 0.006955206948 xtb: 6.7.1 (41059b4)
C            1.86232647216255       -1.43651377160046       -0.00006299641321
C            0.55995485756930       -0.70267732336617       -0.00002424253492
C           -0.65001168763144       -1.38556092236714       -0.00000005742181
C           -1.83752876876883       -0.67265019474018       -0.00000903700687
N           -1.89050584210743        0.65055074476278       -0.00002891625705
C           -0.73726821759674        1.30113974120516       -0.00004738256958
C            0.51474418070875        0.69673645488502       -0.00005557236203
C            1.76142465855682        1.52249629787997       -0.00012004493887
H            2.45130389009696       -1.17251913831061       -0.88022051476127
H            2.45191915510081       -1.17160091664836        0.87939939043779
H            1.70206773542663       -2.51305112040410        0.00054167550335
H           -0.66704324644996       -2.46709085406909        0.00002434797386
H           -2.79123825068106       -1.18703861324367        0.00000433582464
H           -0.81114598062837        2.38368366327955       -0.00006841557653
H            2.36930668527723        1.30594651684414        0.88029873944128
H            2.36916049435017        1.30600051535592       -0.88065452909413
H            1.51973467521125        2.58403140627364       -0.00006385780810
17
 energy: -22.493856318238 gnorm: 0.001717308731 xtb: 6.7.1 (41059b4)
C            1.86254607469826       -1.43357121802611       -0.00006421746732
C            0.55958401410824       -0.70124070498131       -0.00002248765014
C           -0.64871739200295       -1.38632550752640        0.00000562646653
C           -1.83512358768949       -0.67276911967691       -0.00000203932935
N           -1.88464055899564        0.64743128580767       -0.00002617446907
C           -0.73678485487596        1.30072190118795       -0.00005241862558
C            0.51470830759866        0.69716371705234       -0.00005945131079
C            1.76290490849783        1.52004539799063       -0.00012466910876
H            2.44840472375010       -1.16822921819668       -0.87975317989961
H            2.44899267228210       -1.16736817526429        0.87896588012528
H            1.70154599568351       -2.50862238677697        0.00050291876581
H           -0.66434479203704       -2.46634909273625        0.00002999923319
H           -2.79059957732970       -1.18083192491806        0.00000950554006
H           -0.81797372036461        2.38116476173411       -0.00006650462523
H            2.36733674082174        1.30025421251886        0.87976499185093
H            2.36720978186584        1.30028291383852       -0.88010890594693
H            1.52215207458574        2.58012564370932       -0.00008595111247
17
 energy: -22.493863904328 gnorm: 0.000713471023 xtb: 6.7.1 (41059b4)
C            1.86271002005283       -1.43161987195441       -0.00006645408140
C            0.55822124939760       -0.70034609379667       -0.00002349731200
C           -0.64900838316087       -1.38780084057137        0.00000883830188
C           -1.83580173470711       -0.67412450688802        0.00000250734414
N           -1.88344251731529        0.64594001777502       -0.00002120235569
C           -0.73735800107490        1.30200980073592       -0.00004833568052
C            0.51424477784500        0.69803178186260       -0.00006036301585
C            1.76477103621440        1.51858454831459       -0.00013014424810
H            2.44770885564573       -1.16530270294134       -0.87970658965422
H            2.44825127186378       -1.16452113953550        0.87896931913836
H            1.70256032795571       -2.50663878629961        0.00044912873311
H           -0.66243207243333       -2.46765790900574        0.00003839924156
H           -2.79274173863473       -1.17918335383426        0.00002223796331
H           -0.82242339443894        2.38196918128335       -0.00007441772274
H            2.36800921898860        1.29683338509977        0.87974215857212
H            2.36790250925152        1.29682861371048       -0.88007438089786
H            1.52602938514665        2.57888036178158       -0.00011428188954
17
 energy: -22.493864401655 gnorm: 0.000151304392 xtb: 6.7.1 (41059b4)
C            1.86257522130452       -1.43135824717975       -0.00006829442846
C            0.55777226029040       -0.70025370880716       -0.00002501993831
C           -0.64924421428069       -1.38799268158751        0.00001430443206
C           -1.83618715432750       -0.67444582867122        0.00001288317626
N           -1.88395715131557        0.64596154757835       -0.00001795577247
C           -0.73753253765363        1.30234181905695       -0.00005511203698
C            0.51404931532409        0.69817025810991       -0.00006616979065
C            1.76495828337690        1.51832112939246       -0.00013474290587
H            2.44781879888978       -1.16489327387757       -0.87977190627231
H            2.44832288837340       -1.16417198578121        0.87907507962172
H            1.70301780596288       -2.50663162125467        0.00040781458992
H           -0.66194926307838       -2.46804198874838        0.00004170625705
H           -2.79331662627184       -1.17940314779219        0.00003078788131
H           -0.82279265003033        2.38236141795803       -0.00007098007635
H            2.36838169558735        1.29647164085458        0.87983485042316
H            2.36829353373640        1.29643987013382       -0.88015652625760
H            1.52699060470886        2.57900728635196       -0.00013779646593
17
 energy: -22.493864441726 gnorm: 0.000039655619 xtb: 6.7.1 (41059b4)
C            1.86255497496054       -1.43130342008312       -0.00006927153377
C            0.55778986835959       -0.70025829717485       -0.00002710789229
C           -0.64921870016284       -1.38796157960026        0.00001384573997
C           -1.83609272204139       -0.67440189109093        0.00001311645196
N           -1.88386692256316        0.64593353358884       -0.00001431600639
C           -0.73747755193373        1.30227209700536       -0.00004973754409
C            0.51405869118587        0.69815207540776       -0.00006618122630
C            1.76491065127966        1.51824499767107       -0.00013839326926
H            2.44776966486417       -1.16479153873534       -0.87973847603891
H            2.44824322930746       -1.16411751918625        0.87907481142973
H            1.70302254255972       -2.50655033936022        0.00037584500109
H           -0.66185239744596       -2.46798186302660        0.00004612303507
H           -2.79326578910303       -1.17921645962692        0.00004173729849
H           -0.82287664461400        2.38224089150048       -0.00007826777310
H            2.36830002227905        1.29637940382222        0.87981835211859
H            2.36822175572276        1.29633104896104       -0.88013639458124
H            1.52698013794194        2.57891134566414       -0.00015276277299
