
                                 *****************
                                 * O   R   C   A *
                                 *****************

                                            #,                                       
                                            ###                                      
                                            ####                                     
                                            #####                                    
                                            ######                                   
                                           ########,                                 
                                     ,,################,,,,,                         
                               ,,#################################,,                 
                          ,,##########################################,,             
                       ,#########################################, ''#####,          
                    ,#############################################,,   '####,        
                  ,##################################################,,,,####,       
                ,###########''''           ''''###############################       
              ,#####''   ,,,,##########,,,,          '''####'''          '####       
            ,##' ,,,,###########################,,,                        '##       
           ' ,,###''''                  '''############,,,                           
         ,,##''                                '''############,,,,        ,,,,,,###''
      ,#''                                            '''#######################'''  
     '                                                          ''''####''''         
             ,#######,   #######,   ,#######,      ##                                
            ,#'     '#,  ##    ##  ,#'     '#,    #''#        ,####,   ,####,        
            ##       ##  ##   ,#'  ##            #'  '#       #'       #'  '#        
            ##       ##  #######   ##           ,######,      #####,   #    #        
            '#,     ,#'  ##    ##  '#,     ,#' ,#      #,     #,   #   #,  ,#        
             '#######'   ##     ##  '#######'  #'      '#     '####' # '####'        



                #########################################################
                #                        -***-                          #
                #          Department of theory and spectroscopy        #
                #                                                       #
                #                      Frank Neese                      #
                #                                                       #
                #     Directorship, Architecture, Infrastructure        #
                #                    SHARK, DRIVERS                     #
                #        Core code/Algorithms in most modules           #
                #                                                       #
                #        Max Planck Institute fuer Kohlenforschung      #
                #                Kaiser Wilhelm Platz 1                 #
                #                 D-45470 Muelheim/Ruhr                 #
                #                      Germany                          #
                #                                                       #
                #                  All rights reserved                  #
                #                        -***-                          #
                #########################################################


                         Program Version 6.0.1  -  RELEASE   -


 With contributions from (in alphabetic order):
[Max-Planck-Institut fuer Kohlenforschung]                               
  Daniel Aravena         : Magnetic Suceptibility                        
  Michael Atanasov       : Ab Initio Ligand Field Theory (pilot matlab implementation)
  Alexander A. Auer      : GIAO ZORA, VPT2 properties, NMR spectrum      
  Ute Becker             : All parallelization in ORCA, NUMFREQ, NUMCALC 
  Giovanni Bistoni       : ED, misc. LED, open-shell LED, HFLD           
  Martin Brehm           : Molecular dynamics                            
  Dmytro Bykov           : pre 5.0 version of the SCF Hessian            
  Marcos Casanova-Páez   : Triplet and SCS-CIS(D). UHF-(DLPNO)-IP/EA/STEOM-CCSD. UHF-CVS-IP/STEOM-CCSD   
  Vijay G. Chilkuri      : MRCI spin determinant printing, contributions to CSF-ICE 
  Pauline Colinet        : FMM embedding                                 
  Dipayan Datta          : RHF DLPNO-CCSD density                        
  Achintya Kumar Dutta   : EOM-CC, STEOM-CC                              
  Nicolas Foglia         : Exact transition moments, OPA infrastructure, MCD improvements    
  Dmitry Ganyushin       : Spin-Orbit,Spin-Spin,Magnetic field MRCI      
  Miquel Garcia-Rates    : C-PCM and meta-GGA Hessian, CCSD/C-PCM, Gaussian charge scheme 
  Tiago L. C. Gouveia    : GS-ROHF, GS-ROCIS                             
  Yang Guo               : DLPNO-NEVPT2, F12-NEVPT2, CIM, IAO-localization        
  Andreas Hansen         : Spin unrestricted coupled pair/coupled cluster methods 
  Ingolf Harden          : AUTO-CI MPn and infrastructure                
  Benjamin Helmich-Paris : MC-RPA, TRAH-(SCF,CASSCF), AVAS, COSX integrals, SCF dyn. polar. 
  Lee Huntington         : MR-EOM, pCC                                   
  Robert Izsak           : Overlap fitted RIJCOSX, COSX-SCS-MP3, EOM     
  Riya Kayal             : Wick's Theorem for AUTO-CI, AUTO-CI UHF-CCSDT 
  Emily Kempfer          : AUTO-CI, RHF CISDT and CCSDT                  
  Christian Kollmar      : KDIIS, OOCD, Brueckner-CCSD(T), CCSD density, CASPT2, CASPT2-K, improved NEVPT2 
  Axel Koslowski         : Symmetry handling                             
  Simone Kossmann        : meta-GGA functionals, TD-DFT gradient, OOMP2, (MP2 Hessian; deprecated post 5.0) 
  Lucas Lang             : DCDCAS                                        
  Marvin Lechner         : AUTO-CI (C++ implementation), FIC-MRCC        
  Spencer Leger          : CASSCF response                               
  Dagmar Lenk            : GEPOL surface, SMD, ORCA-2-JSON               
  Dimitrios Liakos       : Extrapolation schemes; Compound Job, initial MDCI parallelization 
  Dimitrios Manganas     : Further ROCIS development; embedding schemes. LFT, Crystal Embedding 
  Dimitrios Pantazis     : SARC Basis sets                               
  Anastasios Papadopoulos: AUTO-CI, single reference methods and gradients 
  Taras Petrenko         : pre 6.0 DFT Hessian and TD-DFT gradient, (ASA, deprecated), ECA, 1-Electron XAS/XES, NRVS 
  Peter Pinski           : DLPNO-MP2, DLPNO-MP2 Gradient                 
  Christoph Reimann      : Effective Core Potentials                     
  Marius Retegan         : Local ZFS, SOC                                
  Christoph Riplinger    : Optimizer, TS searches, QM/MM, DLPNO-CCSD(T), (RO)-DLPNO pert. Triples 
  Michael Roemelt        : Original ROCIS implementation                 
  Masaaki Saitow         : Open-shell DLPNO-CCSD energy and density      
  Barbara Sandhoefer     : DKH picture change effects                    
  Kantharuban Sivalingam : CASSCF convergence/infrastructure, NEVPT2 and variants, FIC-MRCI 
  Bernardo de Souza      : ESD, SOC TD-DFT                               
  Georgi L. Stoychev     : AutoAux, RI-MP2 NMR, DLPNO-MP2 response, X2C  
  Van Anh Tran           : RI-MP2 g-tensors                              
  Willem Van den Heuvel  : Paramagnetic NMR                              
  Zikuan Wang            : NOTCH, Electric field optimization            
  Frank Wennmohs         : Technical directorship and infrastructure     
  Hang Xu                : AUTO-CI-Response properties                   
                                                                         
[FACCTs GmbH]                                                            
  Markus Bursch, Miquel Garcia-Rates, Christoph Riplinger, Bernardo de Souza, Georgi L. Stoychev 
                                                                 
  APM, Basis sets (HGBS, AHGBS, def-TZVP (Ac-Lr), def2-XVPD (La-Lu)), CI-OPT, improved COSX, DLPNO-Multilevel,           
  DOCKER, DRACO, updates on ESD, GOAT, IRC, LR-CPCM, MBIS, meta-GGA TD-DFT gradient, ML-optimized integration grids, 
  MM, NACMEs, nearIR, NEB, NEB-TS, NL-DFT gradient (VV10), 2- and 3-layer-ONIOM, interface openCOSMO-RS, QMMM,   
  Crystal-QMMM, SF, symmetry and pop. for TD-DFT, r2SCAN hybrids, SOLVATOR                                   
                                                                         
[Other institutions]                                                     
  V. Asgeirsson          : NEB                                           
  Christoph Bannwarth    : sTDA-DFT, sTD-DFT, PBEh-3c, B97-3c, D3        
  Sebastian Ehlert       : rSCAN, r2SCAN, r2SCAN-3c, D4, dhf basis sets  
  Marvin Friede          : D4 for Fr, Ra, Ac-Lr                          
  Lars Goerigk           : TD-DFT with DH, B97 family of functionals     
  Stefan Grimme          : VdW corrections, initial TS optimization, DFT functionals, gCP, sTDA/sTD-DF 
  Waldemar Hujo          : DFT-NL                                        
  H. Jonsson             : NEB                                           
  Holger Kruse           : gCP                                           
  Marcel Mueller         : wB97X-3c, vDZP basis set                      
  Hagen Neugebauer       : wr2SCAN                                       
  Tobias Risthaus        : range-separated hybrid DFT                    
  Lukas Wittmann         : regularized MP2, r2SCAN double-hybrids, wr2SCAN        
                                                                         
We gratefully acknowledge several colleagues who have allowed us to      
interface, adapt or use parts of their codes:                            
  Ed Valeev, F. Pavosevic, A. Kumar             : LibInt (2-el integral package), F12 methods 
  Garnet Chan, S. Sharma, J. Yang, R. Olivares  : DMRG                   
  Ulf Ekstrom                                   : XCFun DFT Library      
  Mihaly Kallay                                 : mrcc  (arbitrary order and MRCC methods)
  Frank Weinhold                                : gennbo (NPA and NBO analysis)           
  Simon Mueller                                 : openCOSMO-RS                            
  Christopher J. Cramer and Donald G. Truhlar   : smd solvation model                     
  S Lehtola, MJT Oliveira, MAL Marques          : LibXC Library                           
  Liviu Ungur et al                             : ANISO software                          


 Your calculation uses the libint2 library for the computation of 2-el integrals
 For citations please refer to: http://libint.valeyev.net

 Your ORCA version has been built with support for libXC version: 6.2.2
 For citations please refer to: https://libxc.gitlab.io

 This ORCA versions uses:
   CBLAS   interface :  Fast vector & matrix operations
   LAPACKE interface :  Fast linear algebra routines
   SCALAPACK package :  Parallel linear algebra routines
   Shared memory     :  Shared parallel matrices
   BLAS/LAPACK       :  OpenBLAS 0.3.27  USE64BITINT DYNAMIC_ARCH NO_AFFINITY Zen SINGLE_THREADED
        Core in use  :  Zen
   Copyright (c) 2011-2014, The OpenBLAS Project


Your calculation utilizes the geometrical counterpoise correction gCP
Please cite in your paper:
H.Kruse, S. Grimme J.Chem.Phys., 136, (2012), 154101 
   

Your calculation utilizes the DFT-NL dispersion correction.
Cite in your paper:
Vydrov, O. A.; Van Voorhis, T. J. Chem. Phys. 2010, 133, 244103
Hujo, W.; Grimme, S. J. Chem. Theory Comput. 2011, 7, 3866 
   

================================================================================

----- Orbital basis set information -----
Your calculation utilizes the basis: def2-TZVP
   F. Weigend and R. Ahlrichs, Phys. Chem. Chem. Phys. 7, 3297 (2005).

----- AuxJ basis set information -----
Your calculation utilizes the auxiliary basis: def2/J
   F. Weigend, Phys. Chem. Chem. Phys. 8, 1057 (2006).

================================================================================
                                        WARNINGS
                       Please study these warnings very carefully!
================================================================================


================================================================================
                                       INPUT FILE
================================================================================
NAME = sp.inp
|  1> ! wb97x-v def2-tzvp def2/J RIJCOSX DEFGRID2 scfconv7 GCP(DFT/TZ) printgap
|  2> %output
|  3>     printlevel normal
|  4> end
|  5> * xyz 0 1
|  6> C 1.2662388719393136 -0.24127708691198127 -0.000928902932934116
|  7> C -0.01638450228874235 0.5683886226663801 -0.04919131301001029
|  8> O -1.1935365394845803 -0.24672494267319417 0.0384294920335855
|  9> H 1.3435024343475521 -0.7969580099232105 0.9405466024326944
| 10> H 1.3122146032226236 -0.9517359575686284 -0.8340520222836457
| 11> H 2.13918448049095 0.4151380935585563 -0.0732934536342848
| 12> H -0.06634755232452227 1.1379379065783939 -0.9872290955097203
| 13> H -0.03710090983818312 1.2900339007923733 0.7789973709213884
| 14> H -0.9166132986276774 -1.1633065503662416 0.12574534333220388
| 15> *
| 16> 
| 17>                          ****END OF INPUT****
================================================================================

                       ****************************
                       * Single Point Calculation *
                       ****************************

---------------------------------
CARTESIAN COORDINATES (ANGSTROEM)
---------------------------------
  C      1.266239   -0.241277   -0.000929
  C     -0.016385    0.568389   -0.049191
  O     -1.193537   -0.246725    0.038429
  H      1.343502   -0.796958    0.940547
  H      1.312215   -0.951736   -0.834052
  H      2.139184    0.415138   -0.073293
  H     -0.066348    1.137938   -0.987229
  H     -0.037101    1.290034    0.778997
  H     -0.916613   -1.163307    0.125745

----------------------------
CARTESIAN COORDINATES (A.U.)
----------------------------
  NO LB      ZA    FRAG     MASS         X           Y           Z
   0 C     6.0000    0    12.011    2.392845   -0.455948   -0.001755
   1 C     6.0000    0    12.011   -0.030962    1.074099   -0.092958
   2 O     8.0000    0    15.999   -2.255457   -0.466243    0.072621
   3 H     1.0000    0     1.008    2.538852   -1.506032    1.777375
   4 H     1.0000    0     1.008    2.479726   -1.798520   -1.576130
   5 H     1.0000    0     1.008    4.042473    0.784497   -0.138505
   6 H     1.0000    0     1.008   -0.125379    2.150391   -1.865593
   7 H     1.0000    0     1.008   -0.070111    2.437811    1.472092
   8 H     1.0000    0     1.008   -1.732148   -2.198331    0.237624

--------------------------------
INTERNAL COORDINATES (ANGSTROEM)
--------------------------------
 C      0   0   0     0.000000000000     0.00000000     0.00000000
 C      1   0   0     1.517567310405     0.00000000     0.00000000
 O      2   1   0     1.434494492339   112.85841163     0.00000000
 H      1   2   3     1.095959430580   110.94166986   299.33075625
 H      1   2   3     1.095883071663   110.92628468    60.31354799
 H      1   2   3     1.094601093020   110.60869934   179.83344142
 H      2   1   3     1.098543387660   110.01147934   239.27514858
 H      2   1   3     1.098679922987   110.02322788   120.90842278
 H      3   2   1     0.961474067656   108.11285004     0.88074126

---------------------------
INTERNAL COORDINATES (A.U.)
---------------------------
 C      0   0   0     0.000000000000     0.00000000     0.00000000
 C      1   0   0     2.867786606457     0.00000000     0.00000000
 O      2   1   0     2.710801731139   112.85841163     0.00000000
 H      1   2   3     2.071063177685   110.94166986   299.33075625
 H      1   2   3     2.070918880244   110.92628468    60.31354799
 H      1   2   3     2.068496291698   110.60869934   179.83344142
 H      2   1   3     2.075946148907   110.01147934   239.27514858
 H      2   1   3     2.076204163284   110.02322788   120.90842278
 H      3   2   1     1.816922672738   108.11285004     0.88074126

---------------------
BASIS SET INFORMATION
---------------------
There are 3 groups of distinct atoms

 Group   1 Type C   : 11s6p2d1f contracted to 5s3p2d1f pattern {62111/411/11/1}
 Group   2 Type O   : 11s6p2d1f contracted to 5s3p2d1f pattern {62111/411/11/1}
 Group   3 Type H   : 5s1p contracted to 3s1p pattern {311/1}

Atom   0C    basis set group =>   1
Atom   1C    basis set group =>   1
Atom   2O    basis set group =>   2
Atom   3H    basis set group =>   3
Atom   4H    basis set group =>   3
Atom   5H    basis set group =>   3
Atom   6H    basis set group =>   3
Atom   7H    basis set group =>   3
Atom   8H    basis set group =>   3
---------------------------------
AUXILIARY/J BASIS SET INFORMATION
---------------------------------
There are 3 groups of distinct atoms

 Group   1 Type C   : 12s5p4d2f1g contracted to 6s4p3d1f1g pattern {711111/2111/211/2/1}
 Group   2 Type O   : 12s5p4d2f1g contracted to 6s4p3d1f1g pattern {711111/2111/211/2/1}
 Group   3 Type H   : 5s2p1d contracted to 3s1p1d pattern {311/2/1}

Atom   0C    basis set group =>   1
Atom   1C    basis set group =>   1
Atom   2O    basis set group =>   2
Atom   3H    basis set group =>   3
Atom   4H    basis set group =>   3
Atom   5H    basis set group =>   3
Atom   6H    basis set group =>   3
Atom   7H    basis set group =>   3
Atom   8H    basis set group =>   3

Checking for AutoStart:
The File: sp.gbw exists
Trying to determine its content:
     ... Fine, the file contains calculation information
     ... Fine, the calculation information was read
     ... Fine, the file contains a basis set
     ... Fine, the basis set was read
     ... Fine, the file contains a geometry
     ... Fine, the geometry was read
     ... Fine, the file contains a set of orbitals
     ... Fine, the orbitals can be read
     => possible old guess file was deleted
     => GBW file was renamed to GES file
     => GES file is set as startup file
     => Guess is set to MORead
     ... now leaving AutoStart

------------------------------------------------------------------------------
                             ORCA STARTUP CALCULATIONS
                           -- RI-GTO INTEGRALS CHOSEN --
------------------------------------------------------------------------------
------------------------------------------------------------------------------
                   ___                                                        
                  /   \      - P O W E R E D   B Y -                         
                 /     \                                                     
                 |  |  |   _    _      __       _____    __    __             
                 |  |  |  | |  | |    /  \     |  _  \  |  |  /  |          
                  \  \/   | |  | |   /    \    | | | |  |  | /  /          
                 / \  \   | |__| |  /  /\  \   | |_| |  |  |/  /          
                |  |  |   |  __  | /  /__\  \  |    /   |      \           
                |  |  |   | |  | | |   __   |  |    \   |  |\   \          
                \     /   | |  | | |  |  |  |  | |\  \  |  | \   \       
                 \___/    |_|  |_| |__|  |__|  |_| \__\ |__|  \__/        
                                                                              
                      - O R C A' S   B I G   F R I E N D -                    
                                      &                                       
                       - I N T E G R A L  F E E D E R -                       
                                                                              
 v1 FN, 2020, v2 2021, v3 2022-2024                                           
------------------------------------------------------------------------------


----------------------
SHARK INTEGRAL PACKAGE
----------------------

Number of atoms                             ...      9
Number of basis functions                   ...    129
Number of shells                            ...     57
Maximum angular momentum                    ...      3
Integral batch strategy                     ... SHARK/LIBINT Hybrid
RI-J (if used) integral strategy            ... SPLIT-RIJ (Revised 2003 algorithm where possible)
Printlevel                                  ...      1
Contraction scheme used                     ... SEGMENTED contraction
Prescreening option                         ... SCHWARTZ
   Thresh                                   ... 3.000e-11
   Tcut                                     ... 1.000e-12
   Tpresel                                  ... 1.000e-12 
Coulomb Range Separation                    ... NOT USED
Exchange Range Separation                   ... Long Range
   Mu parameter                             ... 3.000e-01
   Scaling (regular/separated)              ... 1.670e-01 8.330e-01
Multipole approximations                    ... NOT USED
Finite Nucleus Model                        ... NOT USED
CABS basis                                  ... NOT available
Auxiliary Coulomb fitting basis             ... AVAILABLE
   # of basis functions in Aux-J            ...    213
   # of shells in Aux-J                     ...     75
   Maximum angular momentum in Aux-J        ...      4
Auxiliary J/K fitting basis                 ... NOT available
Auxiliary Correlation fitting basis         ... NOT available
Auxiliary 'external' fitting basis          ... NOT available

Checking pre-screening integrals            ... done (  0.0 sec) Dimension = 57
Check shell pair data                       ... done (  0.0 sec)
Shell pair information
Shell pair cut-off parameter TPreSel        ...   1.0e-12
Total number of shell pairs                 ...      1653
Shell pairs after pre-screening             ...      1638
Total number of primitive shell pairs       ...      4740
Primitive shell pairs kept                  ...      4006
          la=0 lb=0:    550 shell pairs
          la=1 lb=0:    493 shell pairs
          la=1 lb=1:    120 shell pairs
          la=2 lb=0:    196 shell pairs
          la=2 lb=1:     90 shell pairs
          la=2 lb=2:     21 shell pairs
          la=3 lb=0:     99 shell pairs
          la=3 lb=1:     45 shell pairs
          la=3 lb=2:     18 shell pairs
          la=3 lb=3:      6 shell pairs

Calculating one electron integrals          ... done (  0.0 sec)
Calculating RI/J V-Matrix + Cholesky decomp.... done (  0.0 sec)
Calculating Nuclear repulsion               ... done (  0.0 sec) ENN=     81.570542754569 Eh

Diagonalization of the overlap matrix:
Smallest eigenvalue                        ... 5.385e-04
Time for diagonalization                   ...    0.001 sec
Threshold for overlap eigenvalues          ... 1.000e-07
Number of eigenvalues below threshold      ... 0
Time for construction of square roots      ...    0.000 sec
Total time needed                          ...    0.002 sec

-------------------
DFT GRID GENERATION
-------------------

General Integration Accuracy     IntAcc      ... 4.388
Radial Grid Type                 RadialGrid  ... OptM3 with GC (2021)
Angular Grid (max. ang.)         AngularGrid ... 4 (Lebedev-302)
Angular grid pruning method      GridPruning ... 4 (adaptive)
Weight generation scheme         WeightScheme... mBecke (2022)
Basis function cutoff            BFCut       ... 1.0000e-11
Integration weight cutoff        WCut        ... 1.0000e-14
Partially contracted basis set               ... off
Rotationally invariant grid construction     ... off
Angular grids for H and He will be reduced by one unit

Total number of grid points                  ...    37729
Total number of batches                      ...      594
Average number of points per batch           ...       63
Average number of grid points per atom       ...     4192

--------------------
COSX GRID GENERATION
--------------------

GRIDX 1
-------
General Integration Accuracy     IntAcc      ... 3.816
Radial Grid Type                 RadialGrid  ... OptM3 with GC (2021)
Angular Grid (max. ang.)         AngularGrid ... 1 (Lebedev-50)
Angular grid pruning method      GridPruning ... 4 (adaptive)
Weight generation scheme         WeightScheme... mBecke (2022)
Basis function cutoff            BFCut       ... 1.0000e-11
Integration weight cutoff        WCut        ... 1.0000e-14
Partially contracted basis set               ... on
Rotationally invariant grid construction     ... off
Angular grids for H and He will be reduced by one unit

Total number of grid points                  ...     4863
Total number of batches                      ...       45
Average number of points per batch           ...      108
Average number of grid points per atom       ...      540
UseSFitting                                  ... on

GRIDX 2
-------
General Integration Accuracy     IntAcc      ... 4.020
Radial Grid Type                 RadialGrid  ... OptM3 with GC (2021)
Angular Grid (max. ang.)         AngularGrid ... 2 (Lebedev-110)
Angular grid pruning method      GridPruning ... 4 (adaptive)
Weight generation scheme         WeightScheme... mBecke (2022)
Basis function cutoff            BFCut       ... 1.0000e-11
Integration weight cutoff        WCut        ... 1.0000e-14
Partially contracted basis set               ... on
Rotationally invariant grid construction     ... off
Angular grids for H and He will be reduced by one unit

Total number of grid points                  ...    10214
Total number of batches                      ...       84
Average number of points per batch           ...      121
Average number of grid points per atom       ...     1135
UseSFitting                                  ... on

GRIDX 3
-------
General Integration Accuracy     IntAcc      ... 4.338
Radial Grid Type                 RadialGrid  ... OptM3 with GC (2021)
Angular Grid (max. ang.)         AngularGrid ... 3 (Lebedev-194)
Angular grid pruning method      GridPruning ... 4 (adaptive)
Weight generation scheme         WeightScheme... mBecke (2022)
Basis function cutoff            BFCut       ... 1.0000e-11
Integration weight cutoff        WCut        ... 1.0000e-14
Partially contracted basis set               ... on
Rotationally invariant grid construction     ... off
Angular grids for H and He will be reduced by one unit

Total number of grid points                  ...    22456
Total number of batches                      ...      179
Average number of points per batch           ...      125
Average number of grid points per atom       ...     2495
UseSFitting                                  ... on
Initializing property integral containers    ... done (  0.0 sec)

SHARK setup successfully completed in   0.4 seconds

Maximum memory used throughout the entire STARTUP-calculation: 18.8 MB
-------------------------------------------------------------------------------
                                 ORCA GUESS
                   Start orbitals & Density for SCF / CASSCF
-------------------------------------------------------------------------------

------------
SCF SETTINGS
------------
Hamiltonian:
 Density Functional     Method          .... DFT(GTOs)
 Exchange Functional    Exchange        .... WB97X-V
 Correlation Functional Correlation     .... WB97X-V
 Gradients option       PostSCFGGA      .... off
 Hybrid DFT is turned on
   Fraction HF Exchange ScalHFX         ....  0.167000
   Scaling of DF-GGA-X  ScalDFX         ....  0.000000
   Scaling of DF-GGA-C  ScalDFC         ....  1.000000
   Scaling of DF-LDA-C  ScalLDAC        ....  1.000000
   Perturbative correction              ....  0.000000
 Long-range corrected/Screened/Range-Separated Hybrid DFT is turned on
   Amount of maximum screened exact exchange              ....  0.833000
   Range separation parameter mu (erf(mu*r12)/r12)        ....  0.300000
   NL short-range parameter             ....  6.000000
   NL long-range parameter              ....  0.010000
 RI-approximation to the Coulomb term is turned on
   Number of AuxJ basis functions       .... 213
   RIJ-COSX (HFX calculated with COS-X)).... on


General Settings:
 Integral files         IntName         .... sp
 Hartree-Fock type      HFTyp           .... RHF
 Total Charge           Charge          ....    0
 Multiplicity           Mult            ....    1
 Number of Electrons    NEL             ....   26
 Basis Dimension        Dim             ....  129
 Nuclear Repulsion      ENuc            ....     81.5705427546 Eh

Convergence Acceleration:
 AO-DIIS                CNVDIIS         .... on
   Start iteration      DIISMaxIt       ....    12
   Startup error        DIISStart       ....  0.200000
   # of expansion vecs  DIISMaxEq       ....     5
   Bias factor          DIISBfac        ....   1.050
   Max. coefficient     DIISMaxC        ....  10.000
 MO-DIIS                CNVKDIIS        .... off
 Trust-Rad. Augm. Hess. CNVTRAH         .... auto
   Auto Start mean grad. ratio tolernc. ....  1.125000
   Auto Start start iteration           ....     1
   Auto Start num. interpolation iter.  ....    10
   Max. Number of Micro iterations      ....    24
   Max. Number of Macro iterations      .... Maxiter - #DIIS iter
   Number of Davidson start vectors     ....     2
   Converg. threshold    (grad. norm)   ....   1.000e-04
   Grad. Scal. Fac. for Micro threshold ....   0.100
   Minimum threshold for Micro iter.    ....   1.000e-02
   NR start threshold (gradient norm)   ....   1.000e-04
   Initial trust radius                 ....   0.400
   Minimum AH scaling param. (alpha)    ....   1.000
   Maximum AH scaling param. (alpha)    .... 1000.000
   Quad. conv. algorithm                .... NR
   White noise on init. David. guess    .... on
   Maximum white noise                  ....   0.010
   Pseudo random numbers                .... off
   Inactive MOs                         .... canonical
   Orbital update algorithm             .... Taylor
   Preconditioner                       .... Diag
   Full preconditioner red. dimension   ....   250
 SOSCF                  CNVSOSCF        .... on
   Start iteration      SOSCFMaxIt      ....   150
   Startup grad/error   SOSCFStart      ....  0.003300
   Hessian update       SOSCFHessUp     .... L-BFGS
 Level Shifting         CNVShift        .... on
   Level shift para.    LevelShift      ....    0.2500
   Turn off err/grad.   ShiftErr        ....    0.0010
 Zerner damping         CNVZerner       .... off
 Static damping         CNVDamp         .... on
   Fraction old density DampFac         ....    0.7000
   Max. Damping (<1)    DampMax         ....    0.9800
   Min. Damping (>=0)   DampMin         ....    0.0000
   Turn off err/grad.   DampErr         ....    0.1000

SCF Procedure:
 Maximum # iterations   MaxIter         ....   125
 SCF integral mode      SCFMode         .... Direct
   Integral package                     .... SHARK and LIBINT hybrid scheme
 Reset frequency        DirectResetFreq ....    20
 Integral Threshold     Thresh          ....  3.000e-11 Eh
 Primitive CutOff       TCut            ....  1.000e-12 Eh

Convergence Tolerance:
 Convergence Check Mode ConvCheckMode   .... Total+1el-Energy
 Convergence forced     ConvForced      .... 0
 Energy Change          TolE            ....  1.000e-07 Eh
 1-El. energy change                    ....  1.000e-04 Eh
 Orbital Gradient       TolG            ....  1.000e-04
 Orbital Rotation angle TolX            ....  1.000e-04
 DIIS Error             TolErr          ....  1.000e-07

---------------------
INITIAL GUESS: MOREAD
---------------------
Guess MOs are being read from file: sp.ges
Input Geometry matches current geometry (good)
Atom 0: N(Shells)= 11 and 9 - projection required
Input basis set needs projection
NBasis(read)= 92
NBasis(calc)= 129
Basis set overlap was calculated
Using GuessMode=FMatrix for the initial guess
C*T matrix was formed
Effective Fockian was calculated
Effective Fockian was diagonalized
Initial density was built
                      ------------------
                      INITIAL GUESS DONE (   0.0 sec)
                      ------------------
             **** ENERGY FILE WAS UPDATED (sp.en.tmp) ****
Finished Guess after   0.0 sec
Maximum memory used throughout the entire GUESS-calculation: 10.9 MB

-------------------------------------------------------------------------------------------
                                      ORCA LEAN-SCF
                              memory conserving SCF solver
-------------------------------------------------------------------------------------------

----------------------------------------D-I-I-S--------------------------------------------
Iteration    Energy (Eh)           Delta-E    RMSDP     MaxDP     DIISErr   Damp  Time(sec)
-------------------------------------------------------------------------------------------
               ***  Starting incremental Fock matrix formation  ***
    1    -155.1450016761938855     0.00e+00  8.91e-04  1.26e-02  7.88e-02  0.700   1.5
    2    -155.1474296578925305    -2.43e-03  7.86e-04  1.17e-02  5.71e-02  0.700   0.8
                               ***Turning on AO-DIIS***
    3    -155.1492447866798443    -1.82e-03  6.66e-04  1.02e-02  4.07e-02  0.700   0.8
    4    -155.1505729696893354    -1.33e-03  1.69e-03  2.62e-02  2.86e-02  0.000   0.8
                              *** Initializing SOSCF ***
---------------------------------------S-O-S-C-F--------------------------------------
Iteration    Energy (Eh)           Delta-E    RMSDP     MaxDP     MaxGrad    Time(sec)
--------------------------------------------------------------------------------------
    5    -155.1539217704810483    -3.35e-03  9.43e-05  1.83e-03  6.97e-04     0.8
               *** Restarting incremental Fock matrix formation ***
    6    -155.1539255614649164    -3.79e-06  4.62e-05  8.14e-04  1.44e-04     1.5
    7    -155.1539265591719072    -9.98e-07  2.57e-05  4.32e-04  7.79e-05     1.2
    8    -155.1539266612625738    -1.02e-07  9.34e-06  1.74e-04  5.67e-05     1.2
    9    -155.1539267268462936    -6.56e-08  1.14e-06  2.21e-05  6.58e-06     1.1
                 **** Energy Check signals convergence ****

               *****************************************************
               *                     SUCCESS                       *
               *           SCF CONVERGED AFTER   9 CYCLES          *
               *****************************************************


------------------
NL GRID GENERATION
------------------

General Integration Accuracy     IntAcc      ... 4.004
Radial Grid Type                 RadialGrid  ... OptM3 with GC (2021)
Angular Grid (max. ang.)         AngularGrid ... 2 (Lebedev-110)
Angular grid pruning method      GridPruning ... 4 (adaptive)
Weight generation scheme         WeightScheme... mBecke (2022)
Basis function cutoff            BFCut       ... 1.0000e-10
Integration weight cutoff        WCut        ... 1.0000e-14
Partially contracted basis set               ... off
Rotationally invariant grid construction     ... off
Angular grids for H and He will be reduced by one unit

Total number of grid points                  ...    11247
Total number of batches                      ...      180
Average number of points per batch           ...       62
Average number of grid points per atom       ...     1250
Final grid set up in    0.0 sec

-------------------------------------------------------------------------------
                    post-SCF DFT-NL dispersion correction                      
-------------------------------------------------------------------------------

SCF Energy:     -155.153926727 
NL    Energy:      0.103723661 
SC+NL Energy:   -155.050203066 
NL done in  :              0.4 sec
-------------------------------------------------------------------------------
Recomputing exchange energy using gridx3       ... done (    2.667 sec)
Old exchange energy                            :     -6.856301548 Eh
New exchange energy                            :     -6.856306009 Eh
Exchange energy change after final integration :     -0.000004460 Eh
Total energy after final integration           :   -155.050207526 Eh
             **** ENERGY FILE WAS UPDATED (sp.en.tmp) ****

----------------
TOTAL SCF ENERGY
----------------

Total Energy       :       -155.05020752614530 Eh           -4219.13064 eV

Components:
Nuclear Repulsion  :         81.57054275456866 Eh            2219.64731 eV
Electronic Energy  :       -236.72446948141496 Eh           -6441.60030 eV
One Electron Energy:       -371.25623898744755 Eh          -10102.39586 eV
Two Electron Energy:        134.53176950603259 Eh            3660.79556 eV

Virial components:
Potential Energy   :       -309.46523150235259 Eh           -8420.97706 eV
Kinetic Energy     :        154.41502397620727 Eh            4201.84642 eV
Virial Ratio       :          2.00411348283076

DFT components:
N(Alpha)           :       13.000013187058 electrons
N(Beta)            :       13.000013187058 electrons
N(Total)           :       26.000026374117 electrons
E(X)               :      -13.850467836673 Eh       
E(C)               :       -1.052935299627 Eh       
NL Energy, E(C,NL) :        0.103723660896 Eh       
E(XC)              :      -14.799679475404 Eh       

---------------
SCF CONVERGENCE
---------------

  Last Energy change         ...    6.5584e-08  Tolerance :   1.0000e-07
  Last MAX-Density change    ...    2.2108e-05  Tolerance :   1.0000e-05
  Last RMS-Density change    ...    1.1419e-06  Tolerance :   1.0000e-06
  Last DIIS Error            ...    6.9736e-04  Tolerance :   1.0000e-07
  Last Orbital Gradient      ...    6.5783e-06  Tolerance :   1.0000e-04
  Last Orbital Rotation      ...    9.3969e-06  Tolerance :   1.0000e-04


----------------
ORBITAL ENERGIES
----------------

  NO   OCC          E(Eh)            E(eV) 
   0   2.0000     -19.207096      -522.6516 
   1   2.0000     -10.317114      -280.7429 
   2   2.0000     -10.272452      -279.5276 
   3   2.0000      -1.146122       -31.1876 
   4   2.0000      -0.886017       -24.1098 
   5   2.0000      -0.755860       -20.5680 
   6   2.0000      -0.593533       -16.1509 
   7   2.0000      -0.585277       -15.9262 
   8   2.0000      -0.562437       -15.3047 
   9   2.0000      -0.486523       -13.2390 
  10   2.0000      -0.483671       -13.1614 
  11   2.0000      -0.438182       -11.9235 
  12   2.0000      -0.380279       -10.3479 
  13   0.0000       0.109249         2.9728 
  14   0.0000       0.145904         3.9703 
  15   0.0000       0.160097         4.3565 
  16   0.0000       0.177759         4.8371 
  17   0.0000       0.186757         5.0819 
  18   0.0000       0.207065         5.6345 
  19   0.0000       0.219196         5.9646 
  20   0.0000       0.271838         7.3971 
  21   0.0000       0.291840         7.9414 
  22   0.0000       0.315522         8.5858 
  23   0.0000       0.363984         9.9045 
*Only the first 10 virtual orbitals were printed.

                    ********************************
                    * MULLIKEN POPULATION ANALYSIS *
                    ********************************

-----------------------
MULLIKEN ATOMIC CHARGES
-----------------------
   0 C :   -0.386668
   1 C :    0.030210
   2 O :   -0.459467
   3 H :    0.117000
   4 H :    0.117464
   5 H :    0.114629
   6 H :    0.084152
   7 H :    0.083553
   8 H :    0.299127
Sum of atomic charges:   -0.0000000

--------------------------------
MULLIKEN REDUCED ORBITAL CHARGES
--------------------------------
  0 C s       :     3.246643  s :     3.246643
      pz      :     1.051201  p :     3.077256
      px      :     0.990802
      py      :     1.035253
      dz2     :     0.006884  d :     0.059491
      dxz     :     0.007773
      dyz     :     0.021768
      dx2y2   :     0.010530
      dxy     :     0.012536
      f0      :     0.000357  f :     0.003278
      f+1     :     0.000068
      f-1     :     0.000952
      f+2     :     0.000018
      f-2     :     0.000437
      f+3     :     0.000698
      f-3     :     0.000747

  1 C s       :     3.175123  s :     3.175123
      pz      :     1.019655  p :     2.655213
      px      :     0.740174
      py      :     0.895383
      dz2     :     0.010723  d :     0.129687
      dxz     :     0.023732
      dyz     :     0.035957
      dx2y2   :     0.036708
      dxy     :     0.022566
      f0      :     0.001445  f :     0.009768
      f+1     :     0.000518
      f-1     :     0.001181
      f+2     :     0.000376
      f-2     :     0.001960
      f+3     :     0.002623
      f-3     :     0.001665

  2 O s       :     3.770210  s :     3.770210
      pz      :     1.893377  p :     4.658662
      px      :     1.517250
      py      :     1.248035
      dz2     :     0.004200  d :     0.029021
      dxz     :     0.003634
      dyz     :     0.002377
      dx2y2   :     0.009469
      dxy     :     0.009341
      f0      :     0.000196  f :     0.001575
      f+1     :     0.000230
      f-1     :     0.000420
      f+2     :     0.000035
      f-2     :     0.000116
      f+3     :     0.000324
      f-3     :     0.000253

  3 H s       :     0.862435  s :     0.862435
      pz      :     0.010150  p :     0.020564
      px      :     0.004105
      py      :     0.006310

  4 H s       :     0.861965  s :     0.861965
      pz      :     0.008824  p :     0.020570
      px      :     0.004060
      py      :     0.007686

  5 H s       :     0.864152  s :     0.864152
      pz      :     0.004310  p :     0.021219
      px      :     0.010076
      py      :     0.006833

  6 H s       :     0.895605  s :     0.895605
      pz      :     0.010638  p :     0.020243
      px      :     0.003096
      py      :     0.006508

  7 H s       :     0.896214  s :     0.896214
      pz      :     0.009016  p :     0.020232
      px      :     0.003088
      py      :     0.008129

  8 H s       :     0.652488  s :     0.652488
      pz      :     0.017940  p :     0.048385
      px      :     0.011198
      py      :     0.019246


------------------------
MULLIKEN OVERLAP CHARGES
------------------------
B(  0-C ,  1-C ) :   0.7394 B(  0-C ,  2-O ) :  -0.1085 B(  0-C ,  3-H ) :   0.8138 
B(  0-C ,  4-H ) :   0.8152 B(  0-C ,  5-H ) :   0.7895 B(  0-C ,  6-H ) :  -0.0748 
B(  0-C ,  7-H ) :  -0.0735 B(  1-C ,  2-O ) :   0.6506 B(  1-C ,  3-H ) :  -0.0736 
B(  1-C ,  4-H ) :  -0.0746 B(  1-C ,  5-H ) :  -0.0622 B(  1-C ,  6-H ) :   0.8058 
B(  1-C ,  7-H ) :   0.8037 B(  1-C ,  8-H ) :  -0.1081 B(  2-O ,  6-H ) :  -0.1042 
B(  2-O ,  7-H ) :  -0.1043 B(  2-O ,  8-H ) :   0.6190 B(  3-H ,  4-H ) :  -0.0786 
B(  6-H ,  7-H ) :  -0.1276 


                     *******************************
                     * LOEWDIN POPULATION ANALYSIS *
                     *******************************

----------------------
LOEWDIN ATOMIC CHARGES
----------------------
   0 C :   -0.325092
   1 C :   -0.359695
   2 O :   -0.064948
   3 H :    0.116648
   4 H :    0.116784
   5 H :    0.124052
   6 H :    0.114646
   7 H :    0.114320
   8 H :    0.163285

-------------------------------
LOEWDIN REDUCED ORBITAL CHARGES
-------------------------------
  0 C s       :     2.837200  s :     2.837200
      pz      :     1.069202  p :     3.204041
      px      :     1.061374
      py      :     1.073466
      dz2     :     0.038140  d :     0.259168
      dxz     :     0.030914
      dyz     :     0.076990
      dx2y2   :     0.045395
      dxy     :     0.067728
      f0      :     0.002607  f :     0.024682
      f+1     :     0.002950
      f-1     :     0.003384
      f+2     :     0.003629
      f-2     :     0.002991
      f+3     :     0.004669
      f-3     :     0.004452

  1 C s       :     2.809281  s :     2.809281
      pz      :     1.057473  p :     2.946864
      px      :     0.913556
      py      :     0.975836
      dz2     :     0.059087  d :     0.534788
      dxz     :     0.085385
      dyz     :     0.137012
      dx2y2   :     0.133665
      dxy     :     0.119638
      f0      :     0.008241  f :     0.068761
      f+1     :     0.006882
      f-1     :     0.005030
      f+2     :     0.006087
      f-2     :     0.011577
      f+3     :     0.016989
      f-3     :     0.013955

  2 O s       :     3.371685  s :     3.371685
      pz      :     1.796415  p :     4.623399
      px      :     1.542827
      py      :     1.284157
      dz2     :     0.007717  d :     0.065571
      dxz     :     0.007902
      dyz     :     0.005754
      dx2y2   :     0.024887
      dxy     :     0.019310
      f0      :     0.000388  f :     0.004293
      f+1     :     0.000336
      f-1     :     0.000698
      f+2     :     0.000072
      f-2     :     0.000541
      f+3     :     0.001500
      f-3     :     0.000759

  3 H s       :     0.823048  s :     0.823048
      pz      :     0.029264  p :     0.060304
      px      :     0.012719
      py      :     0.018322

  4 H s       :     0.822890  s :     0.822890
      pz      :     0.025808  p :     0.060327
      px      :     0.012647
      py      :     0.021872

  5 H s       :     0.815524  s :     0.815524
      pz      :     0.013162  p :     0.060424
      px      :     0.026339
      py      :     0.020924

  6 H s       :     0.828820  s :     0.828820
      pz      :     0.030131  p :     0.056534
      px      :     0.009373
      py      :     0.017030

  7 H s       :     0.829140  s :     0.829140
      pz      :     0.026294  p :     0.056540
      px      :     0.009372
      py      :     0.020874

  8 H s       :     0.678494  s :     0.678494
      pz      :     0.048438  p :     0.158221
      px      :     0.038179
      py      :     0.071604


---------------------------------
LOEWDIN BOND ORDERS (THRESH 0.050000)
---------------------------------
B(  0-C ,  1-C ) :   1.3296 B(  0-C ,  2-O ) :   0.1154 B(  0-C ,  3-H ) :   0.9081 
B(  0-C ,  4-H ) :   0.9081 B(  0-C ,  5-H ) :   0.9023 B(  0-C ,  6-H ) :   0.0790 
B(  0-C ,  7-H ) :   0.0790 B(  1-C ,  2-O ) :   1.5525 B(  1-C ,  3-H ) :   0.0801 
B(  1-C ,  4-H ) :   0.0801 B(  1-C ,  5-H ) :   0.0849 B(  1-C ,  6-H ) :   0.8875 
B(  1-C ,  7-H ) :   0.8877 B(  1-C ,  8-H ) :   0.0942 B(  2-O ,  8-H ) :   1.0332 


------------------------------------------
LOEWDIN REDUCED ORBITAL POPULATIONS PER MO
-------------------------------------------
THRESHOLD FOR PRINTING IS 0.1%%
                      0         1         2         3         4         5   
                 -19.20710 -10.31711 -10.27245  -1.14612  -0.88602  -0.75586
                   2.00000   2.00000   2.00000   2.00000   2.00000   2.00000
                  --------  --------  --------  --------  --------  --------
 0 C  s               0.0       0.0      99.4       1.0      30.2       9.7
 0 C  px              0.0       0.1       0.0       1.8       0.7       4.2
 0 C  py              0.0       0.0       0.0       0.1       0.7       3.8
 0 C  dz2             0.0       0.0       0.0       0.1       0.1       0.2
 0 C  dx2y2           0.0       0.0       0.0       0.3       0.0       0.1
 0 C  dxy             0.0       0.1       0.0       0.1       0.3       0.9
 0 C  f-3             0.0       0.0       0.0       0.0       0.1       0.0
 1 C  s               0.0      99.4       0.0       9.3      15.3      14.2
 1 C  px              0.0       0.0       0.1       5.0       8.8       3.1
 1 C  py              0.0       0.0       0.0       3.6       0.1       6.7
 1 C  dz2             0.0       0.0       0.0       1.0       0.0       0.5
 1 C  dx2y2           0.0       0.0       0.0       0.2       0.1       0.0
 1 C  dxy             0.0       0.0       0.1       2.1       1.9       0.1
 1 C  f+1             0.0       0.0       0.0       0.1       0.1       0.0
 1 C  f-1             0.0       0.0       0.0       0.1       0.0       0.0
 1 C  f-3             0.0       0.0       0.0       0.4       0.0       0.0
 2 O  s              99.8       0.0       0.0      54.4       4.0       0.7
 2 O  pz              0.0       0.0       0.0       0.0       0.0       0.1
 2 O  px              0.0       0.1       0.0       2.0       2.2       2.1
 2 O  py              0.0       0.0       0.0       0.1       1.9      15.7
 2 O  dx2y2           0.0       0.0       0.0       0.0       0.1       0.1
 2 O  dxy             0.0       0.0       0.0       0.0       0.1       0.5
 3 H  s               0.0       0.0       0.1       0.2       6.8       5.2
 3 H  pz              0.0       0.0       0.0       0.0       0.5       0.4
 3 H  py              0.0       0.0       0.0       0.0       0.2       0.1
 4 H  s               0.0       0.0       0.1       0.2       6.8       5.2
 4 H  pz              0.0       0.0       0.0       0.0       0.3       0.3
 4 H  py              0.0       0.0       0.0       0.0       0.3       0.1
 5 H  s               0.0       0.0       0.1       0.1       7.5       4.0
 5 H  px              0.0       0.0       0.0       0.0       0.5       0.1
 5 H  py              0.0       0.0       0.0       0.0       0.2       0.3
 6 H  s               0.0       0.0       0.0       1.1       3.6       7.3
 6 H  pz              0.0       0.0       0.0       0.0       0.2       0.6
 7 H  s               0.0       0.0       0.0       1.1       3.6       7.2
 7 H  pz              0.0       0.0       0.0       0.0       0.2       0.5
 7 H  py              0.0       0.0       0.0       0.1       0.2       0.2
 8 H  s               0.0       0.0       0.0      12.3       1.6       5.0
 8 H  px              0.0       0.0       0.0       0.2       0.1       0.1
 8 H  py              0.0       0.0       0.0       2.8       0.3       0.3

                      6         7         8         9        10        11   
                  -0.59353  -0.58528  -0.56244  -0.48652  -0.48367  -0.43818
                   2.00000   2.00000   2.00000   2.00000   2.00000   2.00000
                  --------  --------  --------  --------  --------  --------
 0 C  s               0.6       0.0       0.1       0.1       0.0       0.7
 0 C  pz              0.0      22.7       0.1       0.1      30.1       0.0
 0 C  px              5.4       0.0      22.3       0.6       0.0      18.0
 0 C  py              8.3       0.1       8.3      31.0       0.1       1.2
 0 C  dz2             0.3       0.0       0.1       0.9       0.1       0.1
 0 C  dxz             0.0       0.5       0.0       0.0       0.8       0.0
 0 C  dyz             0.0       0.1       0.0       0.0       2.9       0.0
 0 C  dx2y2           0.0       0.0       0.1       1.7       0.0       0.1
 0 C  dxy             0.4       0.0       0.4       0.6       0.0       0.7
 0 C  f+2             0.0       0.0       0.0       0.0       0.2       0.0
 0 C  f+3             0.1       0.0       0.0       0.1       0.0       0.0
 1 C  s               1.3       0.0       0.5       0.4       0.0       0.0
 1 C  pz              0.0      34.6       0.1       0.1       9.8       0.0
 1 C  px             15.1       0.0       0.1       1.4       0.0      12.1
 1 C  py              2.6       0.2      17.0      15.0       0.0       3.5
 1 C  dz2             0.3       0.0       0.1       0.6       0.0       0.3
 1 C  dxz             0.0       0.0       0.0       0.0       2.7       0.0
 1 C  dyz             0.0       0.1       0.0       0.0       1.0       0.0
 1 C  dx2y2           1.3       0.0       1.2       2.1       0.0       1.7
 1 C  dxy             0.1       0.0       0.2       0.4       0.0       0.9
 1 C  f+1             0.1       0.0       0.0       0.0       0.0       0.0
 1 C  f-2             0.0       0.0       0.0       0.0       0.3       0.0
 1 C  f+3             0.1       0.0       0.0       0.2       0.0       0.4
 1 C  f-3             0.1       0.0       0.0       0.1       0.0       0.1
 2 O  s               1.6       0.0       3.6       0.1       0.0       4.4
 2 O  pz              0.6      10.2       0.0       0.1      15.2       0.0
 2 O  px              0.3       0.0      23.1       8.1       0.0      39.4
 2 O  py             39.3       0.4       0.3       1.3       0.2       4.4
 2 O  dz2             0.0       0.0       0.1       0.0       0.0       0.1
 2 O  dxz             0.0       0.2       0.0       0.0       0.1       0.0
 2 O  dx2y2           0.2       0.0       0.2       0.3       0.0       0.4
 2 O  dxy             0.3       0.0       0.0       0.0       0.0       0.0
 3 H  s               2.1       6.2       0.5       5.7      13.6       0.2
 3 H  pz              0.2       0.1       0.0       0.3       0.0       0.0
 3 H  px              0.0       0.0       0.3       0.0       0.0       0.3
 3 H  py              0.0       0.2       0.0       0.1       0.3       0.0
 4 H  s               2.9       5.3       0.5       6.9      12.5       0.1
 4 H  pz              0.2       0.0       0.0       0.3       0.0       0.0
 4 H  px              0.0       0.0       0.3       0.0       0.0       0.3
 4 H  py              0.0       0.2       0.0       0.0       0.3       0.0
 5 H  s               0.3       0.0      15.0       9.8       0.0       4.0
 5 H  pz              0.0       0.2       0.0       0.0       0.4       0.0
 5 H  px              0.0       0.0       0.2       0.4       0.0       0.0
 5 H  py              0.2       0.0       0.2       0.0       0.0       0.2
 6 H  s               1.4       9.0       2.0       4.4       4.5       1.1
 6 H  pz              0.1       0.1       0.1       0.2       0.0       0.0
 6 H  px              0.2       0.0       0.0       0.0       0.0       0.2
 6 H  py              0.0       0.4       0.0       0.0       0.1       0.0
 7 H  s               2.3       8.2       2.0       4.9       4.0       0.9
 7 H  pz              0.1       0.0       0.1       0.2       0.0       0.0
 7 H  px              0.2       0.0       0.0       0.0       0.0       0.2
 7 H  py              0.0       0.4       0.0       0.0       0.1       0.0
 8 H  s              10.9       0.0       0.0       0.9       0.0       3.1
 8 H  pz              0.0       0.2       0.0       0.0       0.3       0.0
 8 H  px              0.1       0.0       0.6       0.2       0.0       0.5
 8 H  py              0.1       0.0       0.0       0.0       0.0       0.0

                     12        13        14        15        16        17   
                  -0.38028   0.10925   0.14590   0.16010   0.17776   0.18676
                   2.00000   0.00000   0.00000   0.00000   0.00000   0.00000
                  --------  --------  --------  --------  --------  --------
 0 C  s               0.0       7.4       1.6       3.8       0.0       0.1
 0 C  pz              0.4       0.0       0.0       0.0      12.3       0.1
 0 C  px              0.0       1.3       2.6       7.2       0.0       5.7
 0 C  py              0.0       1.0       3.7       5.2       0.1       7.1
 0 C  dz2             0.0       0.2       0.8       0.1       0.1       6.7
 0 C  dxz             0.2       0.0       0.0       0.0       0.7       0.0
 0 C  dyz             0.8       0.0       0.0       0.0       3.6       0.2
 0 C  dx2y2           0.0       0.0       0.0       0.1       0.0       0.0
 0 C  dxy             0.0       1.7       0.1       4.3       0.0       1.7
 0 C  f-1             0.0       0.0       0.0       0.1       0.0       0.0
 1 C  s               0.0       1.9       2.6       4.4       0.0       0.5
 1 C  pz              8.1       0.0       0.0       0.0      10.0       0.0
 1 C  px              0.0       0.3       4.6       5.5       0.0       1.1
 1 C  py              0.1       1.3       3.0       4.7       0.1       4.2
 1 C  dz2             0.1       0.9       0.5       0.0       0.0       1.9
 1 C  dxz             1.5       0.0       0.0       0.0       1.2       0.0
 1 C  dyz             5.7       0.0       0.0       0.0       3.0       0.1
 1 C  dx2y2           0.0       0.0       0.5       0.0       0.0       1.6
 1 C  dxy             0.0       0.0       2.3       3.2       0.0       0.0
 1 C  f0              0.3       0.0       0.0       0.0       0.0       0.0
 1 C  f+2             0.2       0.0       0.0       0.0       0.0       0.0
 1 C  f-2             0.3       0.0       0.0       0.0       0.0       0.0
 1 C  f+3             0.0       0.0       0.0       0.0       0.0       0.2
 2 O  s               0.0       1.6       3.5       1.0       0.0       0.3
 2 O  pz             63.5       0.0       0.0       0.0       0.2       0.0
 2 O  px              0.0       0.4       0.7       0.2       0.0       0.7
 2 O  py              0.6       2.7       2.1       0.0       0.0       0.2
 2 O  dz2             0.0       0.0       0.5       0.0       0.0       0.1
 2 O  dxz             0.1       0.0       0.0       0.0       0.2       0.0
 2 O  dyz             0.2       0.0       0.0       0.0       0.0       0.0
 2 O  dx2y2           0.0       0.0       0.4       0.0       0.0       0.0
 2 O  dxy             0.0       0.1       0.0       0.1       0.0       0.0
 3 H  s               0.7      13.4       1.1       9.6      17.9       5.9
 3 H  pz              0.0       1.4       0.2       0.9       0.8       0.9
 3 H  px              0.0       0.1       0.0       0.2       0.1       0.3
 3 H  py              0.0       0.2       0.0       0.3       1.0       0.2
 4 H  s               0.7      13.2       1.2       9.6      17.6       6.3
 4 H  pz              0.0       1.1       0.2       0.7       0.5       1.1
 4 H  px              0.0       0.1       0.0       0.2       0.1       0.3
 4 H  py              0.0       0.4       0.0       0.5       1.4       0.1
 5 H  s               0.0      11.2       7.2       1.5       0.0      42.9
 5 H  pz              0.0       0.0       0.0       0.0       0.3       0.0
 5 H  px              0.0       0.7       0.3       0.1       0.0       2.8
 5 H  py              0.0       1.0       0.2       0.0       0.0       1.0
 6 H  s               6.9       5.0       8.4      14.9      12.7       1.9
 6 H  pz              0.0       0.5       1.0       1.4       0.6       0.4
 6 H  px              0.0       0.0       0.1       0.3       0.1       0.0
 6 H  py              0.0       0.0       0.2       0.3       0.8       0.0
 7 H  s               7.1       5.0       8.2      14.9      13.0       1.7
 7 H  pz              0.0       0.5       0.8       1.2       0.4       0.4
 7 H  px              0.0       0.0       0.2       0.2       0.0       0.0
 7 H  py              0.0       0.0       0.3       0.5       1.1       0.0
 8 H  s               0.0      22.7      35.4       1.8       0.0       0.7
 8 H  pz              1.9       0.0       0.0       0.0       0.0       0.0
 8 H  px              0.0       0.2       0.1       0.1       0.0       0.2
 8 H  py              0.0       2.2       4.7       0.3       0.0       0.1

                     18        19        20        21        22        23   
                   0.20707   0.21920   0.27184   0.29184   0.31552   0.36398
                   0.00000   0.00000   0.00000   0.00000   0.00000   0.00000
                  --------  --------  --------  --------  --------  --------
 0 C  s               0.0       0.1       0.5       0.4       0.0       0.6
 0 C  pz              7.4       0.0       0.1       0.1      61.2       0.3
 0 C  px              0.0      11.8      18.3       2.6       0.0      16.3
 0 C  py              0.1       0.6      23.4      11.3       0.5      25.4
 0 C  dz2             0.1       0.3       6.1       0.0       0.2       5.9
 0 C  dxz             4.5       0.0       0.0       0.0       1.4       0.0
 0 C  dyz             4.2       0.0       0.1       0.0       8.8       0.2
 0 C  dx2y2           0.0       8.0       0.8       0.2       0.1       0.2
 0 C  dxy             0.1       1.0       7.2       1.4       0.0       3.1
 0 C  f+1             0.0       0.0       0.1       0.0       0.0       0.3
 0 C  f-1             0.0       0.0       0.1       0.0       0.0       0.0
 0 C  f+2             0.0       0.0       0.0       0.0       0.3       0.0
 1 C  s               0.0       4.0       0.2       0.2       0.0       1.1
 1 C  pz              6.8       0.2       0.1       0.1       2.0       0.1
 1 C  px              0.0      18.7       4.0      27.0       0.0       1.7
 1 C  py              0.0      19.9      12.5      15.7       0.0       8.2
 1 C  dz2             0.1       7.9       0.2       5.9       0.0       3.6
 1 C  dxz             0.9       0.1       0.0       0.0       1.4       0.0
 1 C  dyz             1.3       0.2       0.0       0.1       1.1       0.0
 1 C  dx2y2           0.0       0.5       0.0       0.1       0.0       0.5
 1 C  dxy             0.0       3.5       0.8       6.2       0.0       0.5
 1 C  f0              0.1       0.0       0.0       0.0       0.0       0.0
 1 C  f+1             0.0       0.1       0.0       0.1       0.0       0.0
 1 C  f+3             0.0       0.0       0.0       0.1       0.0       0.0
 1 C  f-3             0.0       0.4       0.1       0.0       0.0       0.0
 2 O  s               0.0       2.6       0.1       0.1       0.0       0.1
 2 O  pz              2.5       0.0       0.0       0.1       0.6       0.0
 2 O  px              0.0       3.2       0.2       0.1       0.0       7.6
 2 O  py              0.0       4.2       1.2       5.3       0.0       0.7
 2 O  dz2             0.0       0.0       0.0       0.1       0.0       0.1
 2 O  dxz             0.5       0.0       0.0       0.0       0.1       0.0
 2 O  dx2y2           0.0       0.3       0.1       0.2       0.0       0.2
 2 O  dxy             0.0       0.9       0.0       0.1       0.0       0.6
 3 H  s              14.4       0.5       1.3       4.0       6.2       1.2
 3 H  pz              0.5       0.0       0.6       0.4       0.2       0.1
 3 H  px              0.0       0.1       0.7       0.0       0.0       0.6
 3 H  py              0.8       0.1       0.1       0.1       0.1       0.7
 4 H  s              14.5       0.4       1.3       3.9       6.2       1.3
 4 H  pz              0.3       0.0       0.7       0.3       0.3       0.2
 4 H  px              0.1       0.1       0.8       0.0       0.0       0.6
 4 H  py              1.1       0.1       0.1       0.2       0.1       0.6
 5 H  s               0.0       2.4       3.2       0.8       0.0       7.0
 5 H  pz              1.2       0.0       0.0       0.0       1.3       0.0
 5 H  px              0.0       1.4       0.0       0.0       0.0       0.1
 5 H  py              0.0       0.2       1.4       0.1       0.0       0.0
 6 H  s              17.7       0.5       4.4       0.9       2.7       1.3
 6 H  pz              0.5       0.1       0.2       0.4       0.3       0.6
 6 H  px              0.1       0.6       0.1       0.9       0.4       0.0
 6 H  py              0.9       0.7       0.2       0.3       0.4       0.0
 7 H  s              17.7       0.5       4.4       0.9       2.7       1.3
 7 H  pz              0.3       0.3       0.1       0.4       0.2       0.6
 7 H  px              0.1       0.6       0.1       1.0       0.4       0.0
 7 H  py              1.1       0.6       0.3       0.2       0.5       0.0
 8 H  s               0.0       1.9       3.1       7.6       0.0       4.7
 8 H  px              0.0       0.4       0.0       0.0       0.0       1.6
 8 H  py              0.0       0.0       0.2       0.3       0.0       0.1

                     24        25        26        27        28        29   
                   0.37028   0.40499   0.44577   0.46576   0.49891   0.51666
                   0.00000   0.00000   0.00000   0.00000   0.00000   0.00000
                  --------  --------  --------  --------  --------  --------
 0 C  s               0.0       2.6       6.5      46.9      12.5       0.0
 0 C  pz              0.2       0.0       0.0       0.0       0.0      14.1
 0 C  px              0.0       1.6       9.6       1.4      15.2       0.0
 0 C  py              0.0       0.1       1.8       0.4       2.4       0.1
 0 C  dz2             0.0       0.1       1.3       0.4       0.7       0.1
 0 C  dxz             5.9       0.0       0.0       0.0       0.0       1.5
 0 C  dyz             1.5       0.0       0.0       0.0       0.0       3.9
 0 C  dx2y2           0.0       1.5       0.0       0.0       0.1       0.0
 0 C  dxy             0.0       0.5       0.7       0.7       2.2       0.0
 0 C  f0              0.0       0.0       0.0       0.0       0.0       0.2
 0 C  f+1             0.0       0.0       0.1       0.0       0.5       0.0
 0 C  f-1             0.0       0.0       0.1       0.0       0.3       0.0
 0 C  f+2             0.0       0.0       0.0       0.0       0.0       0.5
 0 C  f+3             0.0       0.4       0.1       0.2       0.1       0.0
 0 C  f-3             0.0       0.4       0.0       0.0       0.9       0.0
 1 C  s               0.0      13.9      22.2      13.9      26.1       0.0
 1 C  pz             57.4       0.2       0.0       0.1       0.0      15.1
 1 C  px              0.0      25.2       3.0       4.0      14.5       0.0
 1 C  py              0.4      15.5       7.1       8.0       1.5       0.1
 1 C  dz2             0.1       0.3       0.5       0.7       0.3       0.1
 1 C  dxz             0.4       0.0       0.0       0.0       0.0       0.5
 1 C  dyz             6.6       0.0       0.0       0.0       0.0       7.6
 1 C  dx2y2           0.1       1.0       3.9       1.0       0.1       0.1
 1 C  dxy             0.0       2.7       4.0       0.2       2.8       0.0
 1 C  f0              0.1       0.0       0.0       0.0       0.0       0.2
 1 C  f+1             0.0       0.1       0.0       0.1       0.4       0.0
 1 C  f-1             0.0       0.1       0.1       0.1       0.1       0.0
 1 C  f+2             0.1       0.0       0.0       0.0       0.0       0.7
 1 C  f-3             0.0       0.2       0.0       0.8       0.6       0.0
 2 O  s               0.0       0.6       2.6       3.3       2.4       0.0
 2 O  pz             12.0       0.1       0.0       0.0       0.0       2.1
 2 O  px              0.0       7.5       7.9       1.7       2.4       0.0
 2 O  py              0.1       7.0       1.7       0.6       0.6       0.0
 2 O  dz2             0.0       1.2       1.4       0.7       0.5       0.0
 2 O  dxz             0.2       0.1       0.0       0.0       0.0       0.2
 2 O  dyz             0.0       0.0       0.1       0.0       0.0       0.3
 2 O  dx2y2           0.0       1.2       2.2       0.1       1.4       0.0
 2 O  dxy             0.0       6.4       0.4       0.0       0.0       0.0
 3 H  s               1.5       1.2       0.3       0.5       1.0       9.1
 3 H  pz              0.1       0.0       0.1       1.0       0.4       1.0
 3 H  px              0.8       0.0       0.0       0.0       0.3       0.0
 3 H  py              0.4       0.0       0.0       0.1       0.6       0.3
 4 H  s               1.5       1.2       0.3       0.5       1.0       9.1
 4 H  pz              0.0       0.0       0.1       0.9       0.2       0.8
 4 H  px              0.8       0.0       0.0       0.0       0.3       0.0
 4 H  py              0.4       0.0       0.0       0.3       0.8       0.5
 5 H  s               0.0       3.2       0.9       3.4       1.1       0.0
 5 H  px              0.0       0.0       0.0       0.3       0.9       0.0
 5 H  py              0.0       0.0       0.0       0.9       0.0       0.0
 6 H  s               3.8       0.0       1.2       0.9       0.8      13.7
 6 H  pz              0.3       0.1       0.1       0.3       0.6       1.3
 6 H  px              0.0       0.2       0.1       0.1       0.3       0.0
 6 H  py              0.4       0.0       0.2       0.0       0.5       0.6
 7 H  s               3.8       0.0       1.2       0.9       0.8      13.7
 7 H  pz              0.4       0.1       0.1       0.3       0.4       1.0
 7 H  px              0.0       0.2       0.1       0.1       0.3       0.0
 7 H  py              0.3       0.0       0.2       0.0       0.8       0.9
 8 H  s               0.0       0.7      14.9       3.0       0.3       0.0
 8 H  px              0.0       2.1       0.5       0.3       0.1       0.0
 8 H  py              0.0       0.2       2.1       0.5       0.0       0.0

                     30        31        32        33        34        35   
                   0.54458   0.54955   0.57460   0.59720   0.62492   0.64810
                   0.00000   0.00000   0.00000   0.00000   0.00000   0.00000
                  --------  --------  --------  --------  --------  --------
 0 C  s               0.2       5.1       0.0       0.1       1.4       0.0
 0 C  pz              0.3       0.0      15.4       0.0       0.0       1.0
 0 C  px              1.6      14.7       0.0       0.2       0.4       0.0
 0 C  py             26.5       0.8       0.2       2.0       0.1       0.0
 0 C  dz2             4.6       0.1       0.2       5.8       0.0       0.0
 0 C  dxz             0.0       0.0       3.3       0.0       0.0       3.4
 0 C  dyz             0.0       0.0       8.2       0.2       0.0       1.0
 0 C  dx2y2           4.6       1.1       0.1       0.9       1.7       0.0
 0 C  dxy             1.6       6.1       0.0       0.1       0.4       0.0
 0 C  f0              0.0       0.0       0.0       0.0       0.0       0.1
 0 C  f+1             0.0       0.1       0.0       0.1       0.0       0.0
 0 C  f-1             0.3       0.1       0.0       0.2       0.6       0.0
 0 C  f+2             0.0       0.0       0.2       0.0       0.0       0.0
 0 C  f-3             0.1       0.2       0.0       0.0       0.0       0.0
 1 C  s               1.0       2.5       0.0       3.3       3.9       0.0
 1 C  pz              0.0       0.0       6.2       0.1       0.0      10.4
 1 C  px              4.9       0.2       0.0       2.9       0.8       0.0
 1 C  py              0.5       5.6       0.1       6.6       2.0       0.1
 1 C  dz2             0.4       0.9       0.2       4.3       0.6       0.0
 1 C  dxz             0.0       0.0       1.1       0.0       0.0       1.2
 1 C  dyz             0.0       0.0       7.8       0.1       0.0       0.0
 1 C  dx2y2           1.9       0.2       0.1       0.1       0.5       0.0
 1 C  dxy             0.0       0.0       0.0       0.9       0.1       0.0
 1 C  f0              0.0       0.0       0.1       0.0       0.1       0.0
 1 C  f-1             0.4       0.2       0.0       1.0       2.8       0.0
 1 C  f-2             0.0       0.0       0.1       0.0       0.0       0.1
 1 C  f+3             0.5       0.0       0.0       0.1       0.0       0.0
 1 C  f-3             0.0       0.3       0.0       0.4       0.2       0.0
 2 O  s               0.8       3.1       0.0       6.6       0.7       0.0
 2 O  pz              0.0       0.0       8.7       0.0       0.1      68.7
 2 O  px              4.8       7.8       0.0      17.7      36.5       0.0
 2 O  py              1.9       3.2       0.1       0.1       4.1       0.7
 2 O  dz2             0.1       0.8       0.0       1.3       3.7       0.0
 2 O  dxz             0.0       0.0       1.3       0.0       0.0       1.0
 2 O  dyz             0.0       0.1       0.7       0.1       0.1       0.0
 2 O  dx2y2           0.2       1.4       0.0       0.0       0.3       0.0
 2 O  dxy             2.0       1.2       0.0       0.0       0.2       0.0
 2 O  f-3             0.0       0.1       0.0       0.0       0.0       0.0
 3 H  s               9.2       0.5      10.1       2.6       1.6       1.2
 3 H  pz              2.1       0.2       1.6       1.1       0.7       0.0
 3 H  px              0.0       0.6       0.1       0.1       0.0       0.4
 3 H  py              0.4       0.3       1.4       0.0       0.0       0.1
 4 H  s               9.0       0.4      10.8       2.3       1.5       1.3
 4 H  pz              1.7       0.1       1.1       1.1       0.6       0.0
 4 H  px              0.0       0.6       0.1       0.0       0.0       0.4
 4 H  py              0.7       0.4       2.1       0.0       0.0       0.1
 5 H  s              11.3      12.5       0.0       1.4       1.4       0.0
 5 H  pz              0.0       0.0       1.4       0.0       0.0       0.2
 5 H  px              2.2       2.6       0.0       0.0       0.5       0.0
 5 H  py              0.2       2.6       0.0       0.2       0.0       0.0
 6 H  s               1.2       0.5       6.6      10.8      10.5       2.5
 6 H  pz              0.1       0.1       0.5       3.0       3.6       1.3
 6 H  px              0.1       0.0       0.0       0.2       0.0       0.1
 6 H  py              0.2       0.1       1.2       0.4       0.2       0.2
 7 H  s               1.3       0.4       6.8      10.2      11.0       2.3
 7 H  pz              0.0       0.1       0.3       2.4       3.4       1.0
 7 H  px              0.1       0.0       0.0       0.1       0.1       0.2
 7 H  py              0.2       0.1       1.4       0.8       0.6       0.4
 8 H  s               0.6      16.3       0.0       6.9       2.5       0.0
 8 H  pz              0.0       0.0       0.6       0.0       0.0       0.6
 8 H  px              0.1       0.6       0.0       0.1       0.1       0.0
 8 H  py              0.1       4.8       0.0       0.7       0.1       0.0

                     36        37        38        39        40        41   
                   0.66667   0.73848   0.78888   0.79102   0.90183   0.91763
                   0.00000   0.00000   0.00000   0.00000   0.00000   0.00000
                  --------  --------  --------  --------  --------  --------
 0 C  s              11.2       6.2       1.1       1.2       0.0       0.0
 0 C  pz              0.0       0.0       0.5       0.4       0.1       7.4
 0 C  px              1.4       2.5       0.0       0.0       1.4       0.0
 0 C  py              0.2       0.7       0.8       0.7       4.5       0.1
 0 C  dz2             0.0       1.4       2.1       1.1       9.2       0.2
 0 C  dxz             0.0       0.0      13.3      14.4       0.0       7.0
 0 C  dyz             0.0       0.1       0.2       0.2       0.3      11.8
 0 C  dx2y2           0.5       4.4      12.9      11.1       2.3       0.0
 0 C  dxy             0.2       1.4       0.3       1.1       3.1       0.0
 0 C  f0              0.1       0.1       0.0       0.0       0.0       0.0
 0 C  f+1             0.0       0.2       0.0       0.0       1.4       0.0
 0 C  f-1             2.8       1.0       0.3       0.2       0.2       0.0
 0 C  f+2             0.0       0.0       0.0       0.2       0.0       2.3
 0 C  f-2             0.0       0.0       0.0       0.0       0.0       0.8
 0 C  f+3             0.0       0.2       0.0       0.0       0.0       0.0
 0 C  f-3             0.7       0.8       0.0       0.0       0.3       0.0
 1 C  s               0.3       0.7       0.1       0.1       5.6       0.0
 1 C  pz              0.0       0.0       2.7       3.2       0.0       5.2
 1 C  px              2.2       1.3       1.8       1.8       0.8       0.0
 1 C  py              0.5       1.1       0.9       0.4       1.5       0.1
 1 C  dz2             0.0       1.3       2.8       1.7       2.6       0.2
 1 C  dxz             0.0       0.0      14.8      17.6       0.0      12.3
 1 C  dyz             0.0       0.2       0.3       0.1       0.0       8.1
 1 C  dx2y2           0.4       8.0       6.4       5.4       0.2       0.0
 1 C  dxy             1.1       0.2       0.2       0.2       0.4       0.1
 1 C  f+1             0.0       0.2       0.0       0.0       1.7       0.0
 1 C  f-1             0.2       0.0       0.0       0.0       0.6       0.0
 1 C  f+2             0.0       0.0       0.2       0.2       0.0       2.5
 1 C  f-2             0.0       0.0       0.0       0.0       0.0       0.9
 1 C  f+3             0.2       0.0       0.1       0.1       0.1       0.0
 1 C  f-3             0.2       0.2       0.0       0.0       0.7       0.0
 2 O  s               1.3       0.6       0.0       0.1      30.3       0.0
 2 O  pz              0.2       0.3       0.9       2.3       0.0       1.1
 2 O  px              1.4       0.7       1.2       1.1       1.4       0.0
 2 O  py             20.3      38.4       8.8       7.6       0.4       0.0
 2 O  dz2             0.5       0.1       0.1       0.7       4.5       0.0
 2 O  dxz             0.0       0.0       0.5       1.1       0.0       2.7
 2 O  dyz             0.0       0.1       2.3       2.7       0.2       0.1
 2 O  dx2y2           0.7       1.8       1.0       0.4       0.6       0.0
 2 O  dxy             0.0       0.8       2.9       2.2       1.2       0.0
 2 O  f-3             0.0       0.1       0.0       0.0       0.1       0.0
 3 H  s               7.6       2.6       1.1       0.2       1.6       4.8
 3 H  pz              2.3       0.1       1.9       0.4       0.1       2.1
 3 H  px              0.0       0.1       1.1       1.0       0.6       1.6
 3 H  py              0.4       0.9       0.1       1.1       1.9       1.0
 4 H  s               7.6       2.5       0.2       1.1       1.3       5.1
 4 H  pz              2.0       0.0       0.9       1.7       0.0       1.7
 4 H  px              0.0       0.1       0.8       1.3       0.6       1.6
 4 H  py              0.8       0.9       0.9       0.0       1.9       1.8
 5 H  s               9.0       6.0       0.3       0.3       4.6       0.0
 5 H  pz              0.0       0.1       1.0       1.6       0.0       0.5
 5 H  px              1.9       0.7       0.1       0.2       4.4       0.0
 5 H  py              0.9       3.7       1.6       0.8       0.0       0.0
 6 H  s               1.2       0.6       0.5       0.8       1.4       3.2
 6 H  pz              0.3       0.2       0.8       0.1       0.2       1.1
 6 H  px              0.0       0.1       1.1       2.6       0.2       2.1
 6 H  py              0.2       1.0       0.0       1.6       0.3       1.1
 7 H  s               1.2       0.5       0.8       0.5       1.2       3.4
 7 H  pz              0.2       0.3       0.6       0.5       0.1       0.8
 7 H  px              0.0       0.0       2.2       1.4       0.1       2.1
 7 H  py              0.3       0.7       1.4       0.1       0.4       1.7
 8 H  s              12.1       3.1       0.7       0.6       1.0       0.0
 8 H  pz              0.1       0.0       0.9       1.2       0.0       0.8
 8 H  px              0.2       0.6       1.2       0.9       1.1       0.0
 8 H  py              4.8       0.1       0.2       0.0       0.9       0.0

                     42        43        44        45        46        47   
                   0.94552   1.03008   1.08491   1.14910   1.17315   1.21201
                   0.00000   0.00000   0.00000   0.00000   0.00000   0.00000
                  --------  --------  --------  --------  --------  --------
 0 C  s               0.3       3.6       0.0       0.0       1.1       3.3
 0 C  pz              0.0       0.0       3.2       3.5       0.0       0.0
 0 C  px              1.1      10.9       0.0       0.0       3.1       6.5
 0 C  py              2.2       3.6       0.0       0.0       1.3       3.1
 0 C  dz2             7.2       4.2       0.0       0.5      12.6       0.4
 0 C  dxz             0.0       0.0      16.1       0.3       0.1       0.1
 0 C  dyz             0.2       0.0       4.5      21.3       0.1       0.0
 0 C  dx2y2           1.5       3.6       0.1       0.2      14.1       0.6
 0 C  dxy             0.0      19.6       0.1       0.0       1.5      14.4
[...]

                    114       115       116       117       118       119   
                   5.36129   5.42483   5.58020   5.82465   5.83384   6.00630
                   0.00000   0.00000   0.00000   0.00000   0.00000   0.00000
                  --------  --------  --------  --------  --------  --------
 0 C  s               0.0       0.1       0.0       0.0       0.0       0.1
 0 C  dx2y2           0.0       0.0       0.0       0.0       0.2       0.4
 0 C  dxy             0.0       0.1       0.0       0.0       0.0       0.1
 0 C  f-1             0.0       0.1       0.0       0.0       0.1       0.0
 0 C  f+2             0.2       0.0       0.0       0.2       0.0       0.0
 0 C  f+3             0.0       0.2       0.0       0.0       0.0       0.4
 0 C  f-3             0.0       0.2       0.0       0.0       0.1       0.4
 1 C  s               0.0       0.1       0.0       0.0       0.7       0.5
 1 C  pz              0.0       0.0       0.1       0.1       0.0       0.0
 1 C  px              0.0       0.0       0.0       0.0       1.3       0.2
 1 C  py              0.0       0.0       0.0       0.0       0.6       0.2
 1 C  dz2             0.0       0.1       0.0       0.1       1.5       0.3
 1 C  dxz             0.1       0.0       0.3       1.3       0.1       0.0
 1 C  dyz             0.0       0.0       0.1       2.0       0.0       0.0
 1 C  dx2y2           0.0       0.7       0.0       0.0       1.9       0.1
 1 C  dxy             0.0       0.0       0.0       0.0       2.3       3.1
 1 C  f0              0.1       0.1       0.1       2.4       0.0       0.0
 1 C  f+1             0.0       0.3       0.0       0.2       1.7       0.0
 1 C  f-1             0.1       1.6       0.0       0.1       0.0       0.6
 1 C  f+2             2.3       0.1       1.3       1.4       0.0       0.0
 1 C  f-2             0.1       0.0       0.2       3.7       0.0       0.1
 1 C  f+3             0.0       0.1       0.0       0.0       1.9       5.7
 1 C  f-3             0.0       1.2       0.0       0.0       0.8       0.2
 2 O  s               0.0       0.0       0.0       0.0       1.1       0.9
 2 O  pz              0.0       0.0       0.4       0.9       0.0       0.0
 2 O  px              0.0       0.3       0.0       0.0       1.4       1.5
 2 O  py              0.0       0.4       0.0       0.0       5.6       0.6
 2 O  dz2             0.1       0.7       0.0       0.1       2.0       0.2
 2 O  dxz             0.4       0.0       0.8      10.7       0.0       0.0
 2 O  dyz             1.9       0.0       0.4       3.5       0.0       0.0
 2 O  dx2y2           0.0       1.6       0.0       0.0       0.1       9.2
 2 O  dxy             0.0       2.0       0.0       0.0       6.0       3.6
 2 O  f0             31.5       0.2      28.3      22.1       2.0       0.0
 2 O  f+1             0.7      63.3       0.0       0.9       9.7       3.0
 2 O  f-1             0.3       4.6       6.3       0.2      41.8       0.4
 2 O  f+2            22.2       0.0      57.4       9.4       1.2       0.4
 2 O  f-2            38.1       1.0       0.6      38.3       0.5       0.1
 2 O  f+3             0.6       1.9       0.0       0.3      13.2      34.9
 2 O  f-3             0.3      17.5       0.8       0.2       0.1      30.0
 5 H  s               0.0       0.0       0.0       0.0       0.0       0.2
 6 H  s               0.1       0.2       0.1       0.7       0.0       0.1
 6 H  px              0.1       0.0       0.1       0.0       0.0       0.0
 7 H  s               0.1       0.2       0.1       0.6       0.1       0.1
 8 H  s               0.0       0.1       0.0       0.0       1.0       0.3
 8 H  pz              0.4       0.0       2.2       0.1       0.0       0.0
 8 H  px              0.0       0.5       0.0       0.0       0.3       0.9
 8 H  py              0.0       0.1       0.0       0.0       0.1       0.8

                    120       121       122       123       124       125   
                   6.34928   6.55665   6.83483   6.85737   7.07359   7.23059
                   0.00000   0.00000   0.00000   0.00000   0.00000   0.00000
                  --------  --------  --------  --------  --------  --------
 0 C  s               0.0       0.0       0.0       0.1       0.2       0.1
 0 C  px              0.0       0.0       0.0       0.1       0.1       0.0
 1 C  s               0.1       0.0       0.0       0.4       1.0       0.1
 1 C  pz              0.0       0.0       0.5       0.0       0.0       0.0
 1 C  px              0.1       0.0       0.0       0.1       1.7       0.0
 1 C  py              0.0       0.0       0.0       1.1       0.3       0.1
 1 C  dz2             0.4       0.0       0.0       0.1       0.2       0.0
 1 C  dxz             0.0       0.1       1.0       0.0       0.0       0.0
 1 C  dyz             0.0       0.6       0.4       0.0       0.0       0.0
 1 C  dx2y2           0.1       0.0       0.0       0.7       0.3       0.5
 1 C  dxy             0.5       0.0       0.0       0.3       0.8       0.1
 1 C  f0              0.0       0.1       0.3       0.0       0.0       0.0
 1 C  f-1             0.0       0.0       0.0       0.1       0.2       0.0
 1 C  f+2             0.0       0.0       0.2       0.0       0.0       0.0
 1 C  f-2             0.0       0.1       0.3       0.0       0.0       0.0
 1 C  f+3             0.0       0.0       0.0       0.0       0.1       0.4
 1 C  f-3             0.2       0.0       0.0       0.1       0.1       0.4
 2 O  s               4.5       0.0       0.0       2.1       2.3       2.9
 2 O  pz              0.0       0.1       0.7       0.0       0.0       0.0
 2 O  px              1.0       0.0       0.0       1.8       1.2       0.0
 2 O  py              2.2       0.0       0.0       1.2       0.9       3.1
 2 O  dz2            36.6       1.2       1.6      34.5      18.3       3.1
 2 O  dxz             0.0      41.2      46.4       0.0       0.7       0.1
 2 O  dyz             1.8      51.9      37.8       0.3       0.8       0.9
 2 O  dx2y2          13.8       0.6       0.2      32.1       0.6      43.1
 2 O  dxy             2.6       0.3       0.4      15.0      60.3       8.2
 2 O  f0              0.3       2.5       2.5       0.1       0.0       0.4
 2 O  f+1             1.3       0.0       0.2       3.9       0.8       0.1
 2 O  f-1             5.9       0.1       0.1       1.5       0.5       6.6
 2 O  f+2             0.7       0.0       0.8       0.2       0.0       0.3
 2 O  f-2             0.2       0.3       6.3       0.2       0.1       0.3
 2 O  f+3             5.5       0.0       0.1       0.1       1.4      17.8
 2 O  f-3            14.9       0.0       0.0       1.8       6.3       2.7
 6 H  s               0.0       0.2       0.0       0.0       0.0       0.0
 7 H  s               0.0       0.1       0.0       0.0       0.0       0.0
 8 H  s               5.1       0.0       0.0       1.6       0.2       7.9
 8 H  pz              0.0       0.3       0.0       0.0       0.0       0.0
 8 H  px              0.2       0.0       0.0       0.0       0.2       0.0
 8 H  py              1.5       0.0       0.0       0.2       0.0       0.3

                    126       127       128   
                  22.36632  22.46266  43.80377
                   0.00000   0.00000   0.00000
                  --------  --------  --------
 0 C  s              75.6      23.2       0.0
 1 C  s              22.9      75.5       0.1
 1 C  px              0.1       0.0       0.0
 2 O  s               0.1       0.1      99.8
 2 O  px              0.1       0.1       0.0
 2 O  py              0.0       0.1       0.0
 3 H  s               0.2       0.0       0.0
 4 H  s               0.2       0.0       0.0
 5 H  s               0.2       0.0       0.0
 6 H  s               0.1       0.1       0.0
 7 H  s               0.1       0.1       0.0


                      *****************************
                      * MAYER POPULATION ANALYSIS *
                      *****************************

  NA   - Mulliken gross atomic population
  ZA   - Total nuclear charge
  QA   - Mulliken gross atomic charge
  VA   - Mayer's total valence
  BVA  - Mayer's bonded valence
  FA   - Mayer's free valence

  ATOM       NA         ZA         QA         VA         BVA        FA
  0 C      6.3867     6.0000    -0.3867     3.9355     3.9355    -0.0000
  1 C      5.9698     6.0000     0.0302     3.9716     3.9716    -0.0000
  2 O      8.4595     8.0000    -0.4595     1.9367     1.9367     0.0000
  3 H      0.8830     1.0000     0.1170     0.9670     0.9670    -0.0000
  4 H      0.8825     1.0000     0.1175     0.9671     0.9671    -0.0000
  5 H      0.8854     1.0000     0.1146     0.9796     0.9796    -0.0000
  6 H      0.9158     1.0000     0.0842     0.9507     0.9507    -0.0000
  7 H      0.9164     1.0000     0.0836     0.9506     0.9506    -0.0000
  8 H      0.7009     1.0000     0.2991     0.9317     0.9317    -0.0000

  Mayer bond orders larger than 0.100000
B(  0-C ,  1-C ) :   1.0069 B(  0-C ,  3-H ) :   0.9732 B(  0-C ,  4-H ) :   0.9734 
B(  0-C ,  5-H ) :   0.9708 B(  1-C ,  2-O ) :   1.0298 B(  1-C ,  6-H ) :   0.9690 
B(  1-C ,  7-H ) :   0.9686 B(  2-O ,  8-H ) :   0.9076 

-------
TIMINGS
-------

Total SCF time: 0 days 0 hours 0 min 13 sec 

Total time                  ....      13.022 sec
Sum of individual times     ....      12.619 sec  ( 96.9%)

SCF preparation             ....       0.038 sec  (  0.3%)
Fock matrix formation       ....      12.331 sec  ( 94.7%)
  Startup                   ....       0.001 sec  (  0.0% of F)
  Split-RI-J                ....       0.377 sec  (  3.1% of F)
  Chain of spheres X        ....      10.383 sec  ( 84.2% of F)
  XC integration            ....       1.944 sec  ( 15.8% of F)
    XC Preparation          ....       0.000 sec  (  0.0% of XC)
    Basis function eval.    ....       0.566 sec  ( 29.1% of XC)
    Density eval.           ....       0.332 sec  ( 17.1% of XC)
    XC-Functional eval.     ....       0.576 sec  ( 29.6% of XC)
    XC-Potential eval.      ....       0.422 sec  ( 21.7% of XC)
Diagonalization             ....       0.000 sec  (  0.0%)
Density matrix formation    ....       0.004 sec  (  0.0%)
Total Energy calculation    ....       0.001 sec  (  0.0%)
Population analysis         ....       0.188 sec  (  1.4%)
Orbital Transformation      ....       0.004 sec  (  0.0%)
Orbital Orthonormalization  ....       0.000 sec  (  0.0%)
DIIS solution               ....       0.013 sec  (  0.1%)
  MO trafo                  ....       0.000 sec  (  0.0 % of DIIS)
  Orb grad                  ....       0.000 sec  (  0.0 % of DIIS)
  Energy W gradient         ....       0.000 sec  (  0.0 % of DIIS)
  DIIS error                ....       0.001 sec  (  9.1 % of DIIS)
  DIIS work                 ....       0.009 sec  ( 74.7 % of DIIS)
  Form Q                    ....       0.000 sec  (  0.0 % of DIIS)
  Form QpQm                 ....       0.000 sec  (  0.0 % of DIIS)
  Exp/Cayley                ....       0.000 sec  (  0.0 % of DIIS)
  Orb update                ....       0.000 sec  (  0.0 % of DIIS)
  Wake-sleep                ....       0.000 sec  (  1.5 % of DIIS)
SOSCF solution              ....       0.006 sec  (  0.0%)
  MO trafo                  ....       0.003 sec  ( 54.0 % of SOSCF)
  Orb grad                  ....       0.000 sec  (  1.3 % of SOSCF)
  Rot update                ....       0.000 sec  (  5.8 % of SOSCF)
  Step                      ....       0.002 sec  ( 38.4 % of SOSCF)
Grid generation             ....       0.034 sec  (  0.3%)
Finished LeanSCF after  13.0 sec

Maximum memory used throughout the entire LEANSCF-calculation: 13.4 MB
------------------   -----------------
gCP correction             0.006132196
------------------   -----------------

-------------------------   --------------------
FINAL SINGLE POINT ENERGY      -155.044075329845
-------------------------   --------------------


------------------------------------------------------------------------------
                              ORCA PROPERTY CALCULATIONS
------------------------------------------------------------------------------

GBWName                                 ... sp.gbw
Number of atoms                         ...      9
Number of basis functions               ...    129
Max core memory                         ...   1024 MB

Electric properties:
Dipole moment                           ... YES
Quadrupole moment                       ...  NO
Static polarizability (Dipole/Dipole)   ...  NO
Static polarizability (Dipole/Quad.)    ...  NO
Static polarizability (Quad./Quad.)     ...  NO
Static polarizability (Velocity)        ...  NO

Atomic electric properties:
Dipole moment                           ...  NO
Quadrupole moment                       ...  NO
Static polarizability                   ...  NO

Choice of electric origin               ... Center of mass
Position of electric origin             ...    -0.011418    -0.003604    -0.001511

General magnetic properties:
Magnetizability                         ...  NO

EPR properties:
g-Tensor (aka g-matrix)                 ...  NO
Zero-Field splitting spin-orbit         ...  NO
Zero-field splitting spin-spin          ...  NO
Hyperfine couplings                     ...  NO (   0 nuclei)
Quadrupole couplings                    ...  NO (   0 nuclei)
Contact density                         ...  NO (   0 nuclei)

NMR properties:
Chemical shifts                         ...  NO (   0 nuclei)
Spin-rotation constants                 ...  NO (   0 nuclei)
Spin-spin couplings                     ...  NO (   0 nuclei,    0 pairs)

Choice of magnetic origin               ... GIAO
Position of magnetic origin             ...     0.000000     0.000000     0.000000

Properties with geometric perturbations:
SCF Hessian                             ...  NO
IR spectrum                             ...  NO
VCD spectrum                            ...  NO
X-ray spectroscopy properties:
SCF XES/XAS/RIXS spectra                ...  NO


-------------
DIPOLE MOMENT
-------------

Method             : SCF
Type of density    : Electron Density
Multiplicity       :   1
Irrep              :   0
Energy             :  -155.0502075261453001 Eh
Relativity type    : 
Basis              : AO
                                X                 Y                 Z
Electronic contribution:     -2.829525134      -0.179348696       0.057352795
Nuclear contribution   :      3.557914551      -0.057517150      -0.041156701
                        -----------------------------------------
Total Dipole Moment    :      0.728389416      -0.236865846       0.016196094
                        -----------------------------------------
Magnitude (a.u.)       :      0.766106314
Magnitude (Debye)      :      1.947287497



--------------------
Rotational spectrum 
--------------------
 
Rotational constants in cm-1:             1.133704             0.310602             0.268540 
Rotational constants in MHz :         33987.582527          9311.619643          8050.640594 

Dipole components along the rotational axes: 
x,y,z [a.u.] :    -0.725264     0.246692    -0.007337 
x,y,z [Debye]:    -1.843475     0.627041    -0.018650 

 

Dipole moment calculation done in   0.0 sec 

Maximum memory used throughout the entire PROP-calculation: 7.8 MB

--------------------------------
SUGGESTED CITATIONS FOR THIS RUN
--------------------------------

Below you find a list of papers that are relevant to this ORCA run
We neither can nor want to force you to cite these papers, but we appreciate if you do
You receive ORCA, which is the product of decades of hard work by many enthusiastic individuals, for free
The only thing we kindly ask in return is that you cite our papers,
We deeply appreciate it, if you show your appreciation for ORCA by not just citing the generic ORCA reference.

Please note that relegating all ORCA citations to the supporting information does *not* help us.
SI sections are not indexed - citations you put there will not count into any citation statistics
But we need these citations in order to attract the funding resources that allow us to do what we are doing

Therefore, if you are a happy ORCA user, please consider citing a few of the papers listed below in the main body of your paper

In addition to the list printed below, the program has created the file sp.bibtex that contains the list in bibtex format
You can import this file easily into all common literature databanks and citation aid programs


List of essential papers. We consider these as the minimum necessary citations

  1. Neese,F.
     Software update: the ORCA program system, version 5.0
     WIRES Comput. Molec. Sci., 2022 12(1)e1606
     doi.org/10.1002/wcms.1606

List of papers to cite with high priority. The work reported in these papers was absolutely
necessary for this run to complete.
Our perspective: the developers of density functionals and basis sets usually get cited in chemistry papers
Good! But without the algorithms to do something with them, the functionals or basis sets would not do anything.
Hence, in our opinion, the algorithm design and method developments papers are equally worthy of getting cited

  1. Neese,F.
     An improvement of the resolution of the identity approximation for the formation of the Coulomb matrix
     J. Comp. Chem., 2003 24(14)1740-1747
     doi.org/10.1002/jcc.10318
  2. Neese,F.; Wennmohs,F.; Hansen,A.; Becker,U.
     Efficient, approximate and parallel Hartree-Fock and hybrid DFT calculations. A 'chain-of-spheres' algorithm for the Hartree-Fock exchange
     Chem. Phys., 2009 356(1-3)98-109
     doi.org/10.1016/j.chemphys.2008.10.036
  3. Helmich-Paris,B.; de Souza,B.; Neese,F.; Izsák,R.
     An improved chain of spheres for exchange algorithm
     J. Chem. Phys., 2021 155 104109
     doi.org/doi: 10.1063/5.0058766.
  4. Neese,F.
     The SHARK Integral Generation and Digestion System
     J. Comp. Chem., 2022  1-16
     doi.org/10.1002/jcc.26942

List of suggested additional citations. These are papers that are important in the 'surrounding' of 
of this run, or papers that preceded the highly important papers. If you like your results we are grateful for a citation.

  1. Izsak,R.; Neese,F.
     An overlap fitted chain of spheres exchange method
     J. Chem. Phys., 2011 135 144105
     doi.org/10.1063/1.3646921
  2. Izsak,R.; Hansen,A.; Neese,F.
     The resolution of identity and chain of spheres approximations for the LPNO-CCSD singles Fock term
     Molec. Phys., 2012 110 2413-2417
     doi.org/10.1080/00268976.2012.687466
  3. Neese,F.
     The ORCA program system
     WIRES Comput. Molec. Sci., 2012 2(1)73-78
     doi.org/10.1002/wcms.81
  4. Izsak,R.; Neese,F.; Klopper,W.
     Robust fitting techniques in the chain of spheres approximation to the Fock exchange: The role of the complementary space
     J. Chem. Phys., 2013 139 
     doi.org/10.1063/1.4819264
  5. Neese,F.
     Software update: the ORCA program system, version 4.0
     WIRES Comput. Molec. Sci., 2018 8(1)1-6
     doi.org/10.1002/wcms.1327
  6. Neese,F.; Wennmohs,F.; Becker,U.; Riplinger,C.
     The ORCA quantum chemistry program package
     J. Chem. Phys., 2020 152 Art. No. L224108
     doi.org/10.1063/5.0004608

List of optional additional citations

  1. Neese,F.
     Approximate second-order SCF convergence for spin unrestricted wavefunctions
     Chem. Phys. Lett., 2000 325(1-3)93-98
     doi.org/10.1016/s0009-2614(00)00662-x

Timings for individual modules:

Sum of individual times          ...       13.482 sec (=   0.225 min)
Startup calculation              ...        0.365 sec (=   0.006 min)   2.7 %
SCF iterations                   ...       13.086 sec (=   0.218 min)  97.1 %
Property calculations            ...        0.031 sec (=   0.001 min)   0.2 %
                             ****ORCA TERMINATED NORMALLY****
TOTAL RUN TIME: 0 days 0 hours 0 minutes 13 seconds 527 msec
