 Entering Gaussian System
 *********************************************
 Gaussian 98:
 frequency output generated by the xtb code
 *********************************************
                         Standard orientation:
 --------------------------------------------------------------------
  Center     Atomic     Atomic              Coordinates (Angstroms)
  Number     Number      Type              X           Y           Z
 --------------------------------------------------------------------
    1          6             0       -2.439383   -0.000003    0.006619
    2          6             0       -0.940438   -0.000058   -0.009066
    3          6             0       -0.231250   -1.194610   -0.005117
    4          6             0        1.152223   -1.196303    0.001678
    5          6             0        1.848519    0.000040    0.004909
    6          6             0        1.152139    1.196348    0.001530
    7          6             0       -0.231319    1.194556   -0.005266
    8          1             0       -2.833172   -0.886556   -0.485303
    9          1             0       -2.800463    0.002494    1.035898
   10          1             0       -2.833104    0.884257   -0.489493
   11          1             0       -0.769268   -2.132339   -0.008791
   12          1             0        1.688574   -2.134320    0.002886
   13          1             0        2.928636    0.000079    0.008532
   14          1             0        1.688434    2.134396    0.002622
   15          1             0       -0.769427    2.132234   -0.009057
 --------------------------------------------------------------------
     1 basis functions        1 primitive gaussians
     1 alpha electrons        1 beta electrons

 Harmonic frequencies (cm**-1), IR intensities (km*mol⁻¹),
 Raman scattering activities (A**4/amu), Raman depolarization ratios,
 reduced masses (AMU), force constants (mDyne/A) and normal coordinates:
                      1                      2                      3
                        a                      a                      a 
 Frequencies --    13.5734               198.2453               338.5817
 Red. masses --     1.0377                 2.9842                 2.5921
 Frc consts  --     0.0000                 0.0000                 0.0000
 IR Inten    --     0.2596                 0.7069                 0.2130
 Raman Activ --     0.0000                 0.0000                 0.0000
 Depolar     --     0.0000                 0.0000                 0.0000
 Atom AN      X      Y      Z        X      Y      Z        X      Y      Z
   1   6    -0.00   0.04  -0.00     0.01   0.00   0.42     0.00   0.51  -0.00
   2   6     0.00  -0.03   0.00     0.00  -0.00  -0.28     0.00  -0.35  -0.00
   3   6     0.01  -0.02  -0.08    -0.00  -0.00  -0.38     0.13  -0.29   0.02
   4   6     0.02   0.00  -0.08    -0.00  -0.00   0.01     0.17   0.04  -0.01
   5   6    -0.00   0.01  -0.00    -0.01   0.00   0.42    -0.00   0.14  -0.00
   6   6    -0.02   0.00   0.08    -0.00   0.00   0.01    -0.17   0.04   0.01
   7   6    -0.01  -0.02   0.08    -0.00   0.00  -0.38    -0.13  -0.29  -0.02
   8   1    -0.01  -0.25   0.49    -0.08  -0.00   0.19    -0.20   0.26  -0.04
   9   1    -0.00   0.59  -0.00     0.18   0.00   0.18     0.00   0.19   0.00
  10   1     0.01  -0.26  -0.49    -0.08   0.00   0.19     0.20   0.26   0.04
  11   1     0.01  -0.01  -0.04    -0.00  -0.00  -0.16     0.09  -0.11   0.01
  12   1     0.01   0.00  -0.04    -0.00   0.00   0.03     0.10   0.04  -0.00
  13   1    -0.00   0.01  -0.00    -0.00   0.00   0.27    -0.00   0.08  -0.00
  14   1    -0.01   0.00   0.04    -0.00  -0.00   0.03    -0.10   0.04   0.00
  15   1    -0.01  -0.01   0.04    -0.00   0.00  -0.16    -0.09  -0.11  -0.01
                      4                      5                      6
                        a                      a                      a 
 Frequencies --   371.0276               443.2240               504.7702
 Red. masses --     2.9185                 2.8617                 5.4539
 Frc consts  --     0.0000                 0.0000                 0.0000
 IR Inten    --     0.0046                 2.4175                 0.0282
 Raman Activ --     0.0000                 0.0000                 0.0000
 Depolar     --     0.0000                 0.0000                 0.0000
 Atom AN      X      Y      Z        X      Y      Z        X      Y      Z
   1   6    -0.00  -0.01  -0.00    -0.05   0.00  -0.05     0.52  -0.00  -0.01
   2   6    -0.00   0.01  -0.00    -0.03   0.00   0.62     0.36   0.00   0.05
   3   6    -0.00   0.01   0.42     0.01   0.02  -0.08    -0.08  -0.24   0.00
   4   6    -0.00  -0.00  -0.42     0.01   0.01  -0.27    -0.14  -0.21  -0.03
   5   6     0.00  -0.00  -0.00     0.03   0.00   0.39    -0.48  -0.00   0.03
   6   6     0.00  -0.00   0.42     0.01  -0.01  -0.27    -0.14   0.21  -0.03
   7   6     0.00   0.01  -0.42     0.01  -0.02  -0.08    -0.08   0.24   0.00
   8   1     0.00  -0.01   0.00     0.08   0.00  -0.10     0.15   0.00  -0.01
   9   1    -0.00  -0.01  -0.00    -0.22  -0.00  -0.09     0.13  -0.00  -0.01
  10   1    -0.00  -0.01  -0.00     0.08  -0.00  -0.10     0.15  -0.00  -0.01
  11   1    -0.00   0.00   0.27     0.01   0.00  -0.16    -0.11  -0.02  -0.01
  12   1    -0.00  -0.00  -0.27     0.00   0.00  -0.24     0.03  -0.02  -0.02
  13   1     0.00  -0.00  -0.00     0.01   0.00   0.19    -0.14  -0.00   0.01
  14   1     0.00  -0.00   0.27     0.00  -0.00  -0.24     0.03   0.02  -0.02
  15   1     0.00   0.00  -0.27     0.01  -0.00  -0.16    -0.11   0.02  -0.01
                      7                      8                      9
                        a                      a                      a 
 Frequencies --   593.1456               654.5728               739.7810
 Red. masses --     6.4996                 4.3352                 1.1809
 Frc consts  --     0.0000                 0.0000                 0.0000
 IR Inten    --     0.0250                 0.6821                21.1729
 Raman Activ --     0.0000                 0.0000                 0.0000
 Depolar     --     0.0000                 0.0000                 0.0000
 Atom AN      X      Y      Z        X      Y      Z        X      Y      Z
   1   6    -0.00   0.08  -0.00     0.00   0.00   0.05     0.02  -0.00  -0.04
   2   6    -0.00   0.16  -0.00     0.01   0.00   0.41    -0.01  -0.00  -0.19
   3   6     0.33   0.28   0.00     0.00  -0.01  -0.35    -0.01   0.01   0.16
   4   6     0.36  -0.34   0.00    -0.00  -0.01   0.38    -0.01   0.02   0.14
   5   6     0.00  -0.18   0.00    -0.01  -0.00  -0.36     0.02   0.00   0.15
   6   6    -0.36  -0.34  -0.00    -0.00   0.01   0.38    -0.01  -0.02   0.14
   7   6    -0.33   0.28  -0.00     0.00   0.01  -0.35    -0.01  -0.01   0.16
   8   1    -0.02   0.03  -0.00     0.06   0.00  -0.03    -0.06  -0.01   0.05
   9   1     0.00   0.03   0.00    -0.13  -0.00  -0.03     0.16   0.00   0.04
  10   1     0.02   0.03   0.00     0.06  -0.00  -0.03    -0.06   0.01   0.05
  11   1     0.04   0.11   0.00     0.00  -0.00  -0.21     0.00   0.00  -0.35
  12   1     0.05  -0.12   0.00     0.00  -0.00   0.08    -0.01   0.00  -0.41
  13   1     0.00   0.11  -0.00    -0.00  -0.00  -0.20     0.01  -0.00  -0.47
  14   1    -0.05  -0.12  -0.00     0.00   0.00   0.08    -0.01  -0.00  -0.41
  15   1    -0.04   0.11  -0.00     0.00   0.00  -0.21     0.00  -0.00  -0.35
                     10                     11                     12
                        a                      a                      a 
 Frequencies --   809.9808               877.9858               897.4068
 Red. masses --     4.7107                 1.2493                 1.2843
 Frc consts  --     0.0000                 0.0000                 0.0000
 IR Inten    --     1.7038                 0.0003                 0.0168
 Raman Activ --     0.0000                 0.0000                 0.0000
 Depolar     --     0.0000                 0.0000                 0.0000
 Atom AN      X      Y      Z        X      Y      Z        X      Y      Z
   1   6     0.49  -0.00  -0.01     0.00   0.00  -0.00     0.01   0.00   0.04
   2   6    -0.02   0.00   0.03     0.00   0.00   0.00     0.00   0.00   0.02
   3   6    -0.17   0.18  -0.01    -0.00   0.00   0.24    -0.00   0.00  -0.24
   4   6    -0.24   0.38  -0.01    -0.00  -0.00   0.22    -0.00   0.01   0.04
   5   6     0.30  -0.00  -0.01     0.00  -0.00  -0.00     0.00   0.00   0.34
   6   6    -0.24  -0.38  -0.01     0.00  -0.00  -0.22    -0.00  -0.01   0.04
   7   6    -0.17  -0.18  -0.01     0.00   0.00  -0.24    -0.00  -0.00  -0.24
   8   1     0.15  -0.01   0.00     0.00  -0.00   0.00     0.04   0.00  -0.03
   9   1     0.15   0.00   0.00    -0.00  -0.00   0.00    -0.07   0.00  -0.02
  10   1     0.15   0.01   0.00    -0.00  -0.00  -0.00     0.04  -0.00  -0.03
  11   1    -0.01   0.04   0.01     0.01  -0.00  -0.46    -0.01   0.00   0.46
  12   1    -0.18   0.04   0.02     0.00   0.00  -0.43    -0.00   0.00  -0.13
  13   1     0.08  -0.00   0.03    -0.00  -0.00   0.00     0.00  -0.00  -0.55
  14   1    -0.18  -0.04   0.02    -0.00   0.00   0.43    -0.00  -0.00  -0.13
  15   1    -0.01  -0.04   0.01    -0.01  -0.00   0.46    -0.01  -0.00   0.46
                     13                     14                     15
                        a                      a                      a 
 Frequencies --   929.1836               931.3332               988.4177
 Red. masses --     1.3645                 1.1914                 5.4888
 Frc consts  --     0.0000                 0.0000                 0.0000
 IR Inten    --     0.0579                 0.0734                 0.7203
 Raman Activ --     0.0000                 0.0000                 0.0000
 Depolar     --     0.0000                 0.0000                 0.0000
 Atom AN      X      Y      Z        X      Y      Z        X      Y      Z
   1   6    -0.00   0.01  -0.00     0.00   0.00   0.02    -0.14  -0.00  -0.01
   2   6     0.00   0.00  -0.00    -0.00   0.00   0.05     0.15  -0.00   0.01
   3   6     0.00  -0.00  -0.26     0.00   0.00   0.06    -0.19  -0.54  -0.00
   4   6     0.00  -0.00   0.27    -0.00   0.00  -0.21    -0.03   0.15  -0.00
   5   6     0.00   0.00  -0.00    -0.00   0.00   0.25     0.39  -0.00   0.00
   6   6    -0.00  -0.00  -0.27    -0.00  -0.00  -0.22    -0.03  -0.15  -0.00
   7   6    -0.00  -0.00   0.26     0.00  -0.00   0.06    -0.19   0.54  -0.00
   8   1     0.01  -0.00  -0.00     0.02   0.00  -0.01    -0.06   0.01   0.00
   9   1     0.00  -0.00   0.00    -0.03  -0.00  -0.01    -0.04   0.00  -0.00
  10   1    -0.01  -0.00   0.00     0.02  -0.00  -0.01    -0.06  -0.01   0.00
  11   1    -0.00   0.00   0.41     0.00  -0.00  -0.23    -0.00  -0.18   0.00
  12   1     0.00   0.00  -0.44    -0.00  -0.00   0.47     0.08   0.08   0.00
  13   1    -0.00   0.00   0.00     0.00  -0.00  -0.52     0.11  -0.00  -0.00
  14   1    -0.00   0.00   0.43    -0.00   0.00   0.48     0.08  -0.08   0.00
  15   1     0.00   0.00  -0.41     0.00   0.00  -0.23    -0.00   0.18   0.00
                     16                     17                     18
                        a                      a                      a 
 Frequencies --  1006.9757              1032.0847              1086.7829
 Red. masses --     1.3443                 1.4520                 1.9558
 Frc consts  --     0.0000                 0.0000                 0.0000
 IR Inten    --     2.5956                11.9557                 0.0147
 Raman Activ --     0.0000                 0.0000                 0.0000
 Depolar     --     0.0000                 0.0000                 0.0000
 Atom AN      X      Y      Z        X      Y      Z        X      Y      Z
   1   6    -0.00  -0.43  -0.00    -0.02   0.00  -0.43    -0.04  -0.00  -0.02
   2   6    -0.00  -0.12   0.00    -0.01   0.00   0.37     0.02  -0.00   0.01
   3   6     0.01   0.16  -0.00     0.00   0.01  -0.06     0.16   0.00  -0.00
   4   6    -0.06   0.07   0.01     0.01  -0.02  -0.03    -0.06   0.37  -0.00
   5   6    -0.00  -0.07   0.00     0.00   0.00   0.02    -0.45   0.00  -0.00
   6   6     0.06   0.07  -0.01     0.01   0.02  -0.03    -0.06  -0.37  -0.00
   7   6    -0.01   0.16   0.00     0.00  -0.01  -0.06     0.16  -0.00  -0.00
   8   1    -0.55   0.16  -0.03    -0.29  -0.04   0.20    -0.02  -0.01   0.01
   9   1     0.00   0.20  -0.00     0.62  -0.00   0.12     0.01   0.00   0.00
  10   1     0.55   0.16   0.03    -0.29   0.04   0.20    -0.02   0.01   0.01
  11   1    -0.02   0.06   0.00    -0.01   0.01   0.07     0.29  -0.13   0.01
  12   1    -0.09  -0.02  -0.01    -0.00  -0.01   0.05     0.24   0.26   0.00
  13   1    -0.00  -0.10   0.00     0.00   0.00  -0.01    -0.13   0.00  -0.00
  14   1     0.09  -0.02   0.01    -0.00   0.01   0.05     0.24  -0.26   0.00
  15   1     0.02   0.06  -0.00    -0.01  -0.01   0.07     0.29   0.13   0.01
                     19                     20                     21
                        a                      a                      a 
 Frequencies --  1126.7823              1182.7345              1201.4285
 Red. masses --     1.3162                 1.0325                 1.0736
 Frc consts  --     0.0000                 0.0000                 0.0000
 IR Inten    --     0.6274                 0.0040                 0.6998
 Raman Activ --     0.0000                 0.0000                 0.0000
 Depolar     --     0.0000                 0.0000                 0.0000
 Atom AN      X      Y      Z        X      Y      Z        X      Y      Z
   1   6    -0.00   0.10  -0.00     0.00   0.00  -0.00    -0.03   0.00   0.01
   2   6     0.00  -0.13   0.00    -0.00   0.07  -0.00     0.08   0.00  -0.00
   3   6     0.23   0.11  -0.00     0.08  -0.00   0.00    -0.08   0.09   0.00
   4   6    -0.11   0.15  -0.00     0.03   0.02  -0.00     0.07   0.10   0.00
   5   6    -0.00  -0.19   0.00     0.00  -0.08   0.00     0.03   0.00  -0.00
   6   6     0.11   0.15   0.00    -0.03   0.02   0.00     0.07  -0.10   0.00
   7   6    -0.23   0.11   0.00    -0.08  -0.00  -0.00    -0.08  -0.09   0.00
   8   1     0.09  -0.02   0.01    -0.00   0.00  -0.00    -0.03   0.01  -0.01
   9   1    -0.00  -0.04   0.00    -0.00   0.00  -0.00    -0.02  -0.00  -0.00
  10   1    -0.09  -0.02  -0.01     0.00   0.00   0.00    -0.03  -0.01  -0.01
  11   1     0.40  -0.16   0.01    -0.13   0.09  -0.00    -0.45   0.27  -0.01
  12   1    -0.24  -0.08  -0.00     0.40   0.23   0.00     0.37   0.23   0.00
  13   1    -0.00  -0.47   0.00     0.00  -0.70   0.00     0.01  -0.00   0.00
  14   1     0.24  -0.08   0.00    -0.41   0.23  -0.00     0.37  -0.23   0.00
  15   1    -0.40  -0.16  -0.01     0.13   0.09   0.00    -0.45  -0.27  -0.01
                     22                     23                     24
                        a                      a                      a 
 Frequencies --  1243.9977              1291.9041              1322.9781
 Red. masses --     2.8468                 1.2658                 9.8881
 Frc consts  --     0.0000                 0.0000                 0.0000
 IR Inten    --    12.5657                 0.0715                 0.2134
 Raman Activ --     0.0000                 0.0000                 0.0000
 Depolar     --     0.0000                 0.0000                 0.0000
 Atom AN      X      Y      Z        X      Y      Z        X      Y      Z
   1   6     0.30   0.00  -0.01     0.00   0.09  -0.00    -0.00   0.07   0.00
   2   6    -0.65  -0.00   0.00     0.00  -0.23   0.00     0.00  -0.43   0.00
   3   6    -0.20  -0.01  -0.00     0.20  -0.08   0.00    -0.34   0.19  -0.00
   4   6     0.14  -0.18  -0.00     0.06   0.08  -0.00     0.36   0.21   0.00
   5   6     0.09  -0.00   0.00     0.00   0.22  -0.00    -0.00  -0.39   0.00
   6   6     0.14   0.18  -0.00    -0.06   0.08   0.00    -0.36   0.21  -0.00
   7   6    -0.20   0.01  -0.00    -0.20  -0.08  -0.00     0.34   0.19   0.00
   8   1     0.14  -0.03   0.01     0.07  -0.03   0.02     0.06  -0.03   0.02
   9   1     0.11   0.00   0.01    -0.00  -0.05   0.00    -0.00  -0.07   0.00
  10   1     0.14   0.03   0.01    -0.07  -0.03  -0.02    -0.06  -0.03  -0.02
  11   1     0.14  -0.13   0.01    -0.40   0.24  -0.00    -0.04   0.02   0.00
  12   1     0.28   0.08   0.00    -0.32  -0.17  -0.00    -0.01  -0.00  -0.00
  13   1     0.03  -0.00   0.00     0.00  -0.27   0.00    -0.00  -0.02   0.00
  14   1     0.28  -0.08   0.00     0.32  -0.17   0.00     0.01  -0.00   0.00
  15   1     0.14   0.13   0.01     0.40   0.24   0.00     0.04   0.02  -0.00
                     25                     26                     27
                        a                      a                      a 
 Frequencies --  1404.4300              1439.6202              1482.2676
 Red. masses --     1.2314                 2.6819                 1.4379
 Frc consts  --     0.0000                 0.0000                 0.0000
 IR Inten    --     4.2486                 0.8122                 6.5525
 Raman Activ --     0.0000                 0.0000                 0.0000
 Depolar     --     0.0000                 0.0000                 0.0000
 Atom AN      X      Y      Z        X      Y      Z        X      Y      Z
   1   6     0.44  -0.00  -0.05     0.00   0.13  -0.00    -0.01  -0.00   0.16
   2   6    -0.04  -0.00  -0.01    -0.00  -0.39   0.00     0.26  -0.00   0.03
   3   6    -0.01   0.02   0.00     0.26   0.13   0.00    -0.11   0.17  -0.00
   4   6     0.00  -0.02   0.00    -0.33   0.07  -0.00    -0.17  -0.17  -0.00
   5   6     0.00  -0.00   0.00     0.00  -0.34   0.00     0.17  -0.00   0.00
   6   6     0.00   0.02   0.00     0.33   0.07   0.00    -0.17   0.17  -0.00
   7   6    -0.01  -0.02   0.00    -0.26   0.13  -0.00    -0.11  -0.17  -0.00
   8   1    -0.45   0.11   0.19     0.01  -0.04   0.09    -0.20   0.29  -0.36
   9   1    -0.51   0.00  -0.20    -0.00  -0.18   0.00     0.18   0.00   0.07
  10   1    -0.45  -0.11   0.19    -0.02  -0.04  -0.09    -0.20  -0.29  -0.36
  11   1     0.03  -0.01   0.00    -0.09   0.14  -0.00     0.17  -0.06   0.00
  12   1     0.01   0.00  -0.00     0.14   0.16   0.00     0.15   0.06   0.00
  13   1     0.00   0.00  -0.00    -0.00   0.36  -0.00     0.05   0.00  -0.00
  14   1     0.01  -0.00  -0.00    -0.14   0.16  -0.00     0.15  -0.06   0.00
  15   1     0.03   0.01   0.00     0.09   0.14   0.00     0.17   0.06   0.00
                     28                     29                     30
                        a                      a                      a 
 Frequencies --  1486.0252              1487.9553              1593.7788
 Red. masses --     1.0940                 1.7781                 7.4447
 Frc consts  --     0.0000                 0.0000                 0.0000
 IR Inten    --     3.1060                 3.7225                 0.1083
 Raman Activ --     0.0000                 0.0000                 0.0000
 Depolar     --     0.0000                 0.0000                 0.0000
 Atom AN      X      Y      Z        X      Y      Z        X      Y      Z
   1   6    -0.00   0.20  -0.00    -0.15  -0.00  -0.14    -0.00   0.03  -0.00
   2   6     0.00   0.09  -0.00     0.34  -0.00  -0.02    -0.00  -0.50   0.00
   3   6    -0.07  -0.00  -0.00    -0.09   0.19   0.00    -0.15   0.28  -0.00
   4   6     0.04  -0.06  -0.00    -0.23  -0.20  -0.00    -0.13  -0.30  -0.00
   5   6     0.00   0.14   0.00     0.21  -0.00   0.00     0.00   0.54  -0.00
   6   6    -0.05  -0.06   0.00    -0.23   0.20  -0.00     0.12  -0.30   0.00
   7   6     0.07  -0.01   0.00    -0.09  -0.19   0.00     0.15   0.28   0.00
   8   1    -0.27  -0.07   0.37     0.14  -0.25   0.31     0.07  -0.01  -0.04
   9   1    -0.00  -0.69   0.00    -0.18   0.01  -0.06    -0.00   0.05  -0.00
  10   1     0.27  -0.07  -0.36     0.13   0.25   0.31    -0.07  -0.01   0.04
  11   1     0.04  -0.04   0.00     0.16  -0.05  -0.00     0.08   0.00   0.00
  12   1    -0.01  -0.03   0.00     0.18   0.08  -0.00     0.07  -0.02   0.00
  13   1     0.00  -0.08   0.00     0.06   0.00   0.00     0.00  -0.13   0.00
  14   1     0.01  -0.03  -0.00     0.18  -0.08  -0.00    -0.07  -0.02  -0.00
  15   1    -0.04  -0.03  -0.00     0.16   0.05  -0.00    -0.08   0.00  -0.00
                     31                     32                     33
                        a                      a                      a 
 Frequencies --  1608.8417              2994.4664              3035.2356
 Red. masses --     7.8524                 1.0792                 1.0942
 Frc consts  --     0.0000                 0.0000                 0.0000
 IR Inten    --    10.9339                26.8790                21.9347
 Raman Activ --     0.0000                 0.0000                 0.0000
 Depolar     --     0.0000                 0.0000                 0.0000
 Atom AN      X      Y      Z        X      Y      Z        X      Y      Z
   1   6    -0.05  -0.00  -0.01    -0.06   0.00   0.26    -0.01   0.29  -0.01
   2   6     0.32  -0.00  -0.00    -0.01   0.00   0.01    -0.00   0.01  -0.00
   3   6    -0.45   0.14  -0.00     0.00   0.00   0.00    -0.01  -0.02  -0.00
   4   6     0.41   0.12   0.00    -0.00  -0.00  -0.00    -0.00   0.00   0.00
   5   6    -0.19   0.00  -0.00     0.00  -0.00  -0.00    -0.00  -0.00   0.00
   6   6     0.42  -0.12   0.00    -0.00   0.00  -0.00     0.00   0.00  -0.00
   7   6    -0.44  -0.14  -0.00     0.00  -0.00  -0.00     0.01  -0.02   0.00
   8   1    -0.00  -0.01   0.02    -0.05  -0.09  -0.01    -0.23  -0.51  -0.31
   9   1    -0.02   0.00  -0.01     0.31  -0.00  -0.90     0.00   0.04  -0.01
  10   1    -0.00   0.01   0.02    -0.05   0.10  -0.01     0.25  -0.57   0.34
  11   1     0.09  -0.08   0.00    -0.00  -0.01   0.00     0.03   0.05   0.00
  12   1    -0.07  -0.07  -0.00    -0.00   0.00  -0.00     0.00  -0.01   0.00
  13   1    -0.05  -0.00  -0.00     0.00  -0.00   0.00     0.00  -0.00  -0.00
  14   1    -0.07   0.07  -0.00    -0.00  -0.00  -0.00    -0.00  -0.01  -0.00
  15   1     0.09   0.08   0.00    -0.00   0.01   0.00    -0.03   0.06  -0.00
                     34                     35                     36
                        a                      a                      a 
 Frequencies --  3036.6129              3066.7837              3067.0786
 Red. masses --     1.0403                 1.0774                 1.0743
 Frc consts  --     0.0000                 0.0000                 0.0000
 IR Inten    --    20.4950                 7.9111                16.9206
 Raman Activ --     0.0000                 0.0000                 0.0000
 Depolar     --     0.0000                 0.0000                 0.0000
 Atom AN      X      Y      Z        X      Y      Z        X      Y      Z
   1   6    -0.14  -0.02  -0.12     0.00   0.02   0.00     0.00  -0.00   0.00
   2   6    -0.01  -0.00  -0.00     0.00   0.01   0.00     0.01  -0.00   0.00
   3   6     0.01   0.01   0.00     0.08   0.14   0.00     0.06   0.11   0.00
   4   6     0.00  -0.00   0.00     0.05  -0.09   0.00     0.06  -0.10   0.00
   5   6    -0.00   0.00   0.00    -0.00  -0.00  -0.00    -0.08   0.00  -0.00
   6   6    -0.00   0.00   0.00    -0.05  -0.08  -0.00     0.06   0.10   0.00
   7   6     0.00  -0.01   0.00    -0.08   0.14  -0.00     0.07  -0.11   0.00
   8   1     0.24   0.60   0.32    -0.02  -0.05  -0.03    -0.01  -0.02  -0.01
   9   1     0.03  -0.00  -0.17    -0.00   0.00   0.00    -0.00  -0.00   0.01
  10   1     0.21  -0.54   0.29     0.02  -0.05   0.03    -0.01   0.02  -0.01
  11   1    -0.02  -0.03  -0.00    -0.29  -0.50  -0.00    -0.23  -0.41  -0.00
  12   1    -0.00   0.00  -0.00    -0.19   0.32  -0.00    -0.22   0.38  -0.00
  13   1     0.01   0.00  -0.00     0.00   0.00   0.00     0.31  -0.00   0.00
  14   1    -0.00  -0.00  -0.00     0.18   0.31   0.00    -0.22  -0.39  -0.00
  15   1    -0.01   0.02  -0.00     0.28  -0.49   0.00    -0.24   0.42  -0.00
                     37                     38                     39
                        a                      a                      a 
 Frequencies --  3074.9600              3080.1185              3090.1080
 Red. masses --     1.0811                 1.0864                 1.0909
 Frc consts  --     0.0000                 0.0000                 0.0000
 IR Inten    --    24.0957               124.2847                43.2500
 Raman Activ --     0.0000                 0.0000                 0.0000
 Depolar     --     0.0000                 0.0000                 0.0000
 Atom AN      X      Y      Z        X      Y      Z        X      Y      Z
   1   6    -0.00  -0.00  -0.00     0.00   0.01  -0.00    -0.00  -0.00  -0.00
   2   6    -0.01   0.00  -0.00    -0.00  -0.00   0.00    -0.00  -0.00  -0.00
   3   6    -0.06  -0.11  -0.00     0.05   0.09   0.00    -0.03  -0.05  -0.00
   4   6     0.04  -0.07   0.00    -0.08   0.14  -0.00     0.07  -0.12   0.00
   5   6    -0.17  -0.00  -0.00    -0.00  -0.00  -0.00     0.20   0.00   0.00
   6   6     0.04   0.07   0.00     0.08   0.14   0.00     0.07   0.12   0.00
   7   6    -0.06   0.11  -0.00    -0.05   0.09  -0.00    -0.03   0.05  -0.00
   8   1     0.01   0.01   0.01    -0.01  -0.02  -0.01     0.00   0.01   0.00
   9   1     0.00  -0.00  -0.01     0.00   0.00  -0.00     0.00  -0.00  -0.00
  10   1     0.01  -0.01   0.01     0.01  -0.02   0.01     0.00  -0.01   0.00
  11   1     0.22   0.39   0.00    -0.18  -0.32  -0.00     0.09   0.16   0.00
  12   1    -0.14   0.24  -0.00     0.28  -0.50   0.00    -0.22   0.38  -0.00
  13   1     0.61   0.00   0.00     0.00   0.00   0.00    -0.68  -0.00  -0.00
  14   1    -0.14  -0.24  -0.00    -0.28  -0.50  -0.00    -0.22  -0.38  -0.00
  15   1     0.22  -0.39   0.00     0.18  -0.32   0.00     0.09  -0.16   0.00
