      -----------------------------------------------------------      
     |                   =====================                   |     
     |                           x T B                           |     
     |                   =====================                   |     
     |                         S. Grimme                         |     
     |          Mulliken Center for Theoretical Chemistry        |     
     |                    University of Bonn                     |     
      -----------------------------------------------------------      

   * xtb version 6.7.1 (41059b4) compiled by 'michael@archlinux' on 2025-03-24

   xtb is free software: you can redistribute it and/or modify it under
   the terms of the GNU Lesser General Public License as published by
   the Free Software Foundation, either version 3 of the License, or
   (at your option) any later version.
   
   xtb is distributed in the hope that it will be useful,
   but WITHOUT ANY WARRANTY; without even the implied warranty of
   MERCHANTABILITY or FITNESS FOR A PARTICULAR PURPOSE.  See the
   GNU Lesser General Public License for more details.
   
   Cite this work as:
   * C. Bannwarth, E. Caldeweyher, S. Ehlert, A. Hansen, P. Pracht,
     J. Seibert, S. Spicher, S. Grimme, WIREs Comput. Mol. Sci., 2020, 11,
     e01493. DOI: 10.1002/wcms.1493
   
   for GFN2-xTB:
   * C. Bannwarth, S. Ehlert and S. Grimme., J. Chem. Theory Comput., 2019,
     15, 1652-1671. DOI: 10.1021/acs.jctc.8b01176
   for GFN1-xTB:
   * S. Grimme, C. Bannwarth, P. Shushkov, J. Chem. Theory Comput., 2017,
     13, 1989-2009. DOI: 10.1021/acs.jctc.7b00118
   for GFN0-xTB:
   * P. Pracht, E. Caldeweyher, S. Ehlert, S. Grimme, ChemRxiv, 2019, preprint.
     DOI: 10.26434/chemrxiv.8326202.v1
   for GFN-FF:
   * S. Spicher and S. Grimme, Angew. Chem. Int. Ed., 2020, 59, 15665-15673.
     DOI: 10.1002/anie.202004239
   
   for ALPB and GBSA implicit solvation:
   * S. Ehlert, M. Stahn, S. Spicher, S. Grimme, J. Chem. Theory Comput.,
     2021, 17, 4250-4261. DOI: 10.1021/acs.jctc.1c00471
   
   for ddCOSMO and CPCM-X implicit solvation:
   * M. Stahn, S. Ehlert, S. Grimme, J. Phys. Chem. A,
     2023, XX, XXXX-XXXX. DOI: 10.1021/acs.jpca.3c04382
   
   for DFT-D4:
   * E. Caldeweyher, C. Bannwarth and S. Grimme, J. Chem. Phys., 2017,
     147, 034112. DOI: 10.1063/1.4993215
   * E. Caldeweyher, S. Ehlert, A. Hansen, H. Neugebauer, S. Spicher,
     C. Bannwarth and S. Grimme, J. Chem. Phys., 2019, 150, 154122.
     DOI: 10.1063/1.5090222
   * E. Caldeweyher, J.-M. Mewes, S. Ehlert and S. Grimme, Phys. Chem. Chem. Phys.
     2020, 22, 8499-8512. DOI: 10.1039/D0CP00502A
   
   for sTDA-xTB:
   * S. Grimme and C. Bannwarth, J. Chem. Phys., 2016, 145, 054103.
     DOI: 10.1063/1.4959605
   
   in the mass-spec context:
   * V. Asgeirsson, C. Bauer and S. Grimme, Chem. Sci., 2017, 8, 4879.
     DOI: 10.1039/c7sc00601b
   * J. Koopman and S. Grimme, ACS Omega 2019, 4, 12, 15120-15133.
     DOI: 10.1021/acsomega.9b02011
   
   for metadynamics refer to:
   * S. Grimme, J. Chem. Theory Comput., 2019, 155, 2847-2862
     DOI: 10.1021/acs.jctc.9b00143
   
   for SPH calculations refer to:
   * S. Spicher and S. Grimme, J. Chem. Theory Comput., 2021, 17, 1701-1714
     DOI: 10.1021/acs.jctc.0c01306
   
   for ONIOM refer to:
   * C. Plett, A. Katbashev, S. Ehlert, S. Grimme, M. Bursch,
     Phys. Chem. Chem. Phys., 2023, 25, 17860-17868. DOI: 10.1039/D3CP02178E
   
   for DIPRO refer to:
   * J. Kohn, N. Gildemeister, S. Grimme, D. Fazzi, A. Hansen,
     J. Chem. Phys., 2023, just accepted.
   
   for PTB refer to:
   * S. Grimme, M. Mueller, A. Hansen, J. Chem. Phys., 2023, 158, 124111.
     DOI: 10.1063/5.0137838
   
   with help from (in alphabetical order)
   P. Atkinson, C. Bannwarth, F. Bohle, G. Brandenburg, E. Caldeweyher
   M. Checinski, S. Dohm, S. Ehlert, S. Ehrlich, I. Gerasimov, C. Hölzer
   A. Katbashev, J. Kohn, J. Koopman, C. Lavigne, S. Lehtola, F. März, M. Müller,
   F. Musil, H. Neugebauer, J. Pisarek, C. Plett, P. Pracht, F. Pultar,
   J. Seibert, P. Shushkov, S. Spicher, M. Stahn, M. Steiner, T. Strunk,
   J. Stückrath, T. Rose, and J. Unsleber
   
 * started run on 2025/04/09 at 01:50:48.812     
   ID    Z sym.   atoms
    1    6 C      1-7
    2    1 H      8-15

           -------------------------------------------------
          |                Calculation Setup                |
           -------------------------------------------------

          program call               : /usr/bin/xtb xtb_rrho.coord --gfn2 --ohess vtight --chrg 0 --enso --norestart -I rrho-xcontrol-inp --parallel 1
          coordinate file            : xtb_rrho.coord
          omp threads                :                     1


           -------------------------------------------------
          |                 G F N 2 - x T B                 |
           -------------------------------------------------

        Reference                      10.1021/acs.jctc.8b01176
      * Hamiltonian:
        H0-scaling (s, p, d)           1.850000    2.230000    2.230000
        zeta-weighting                 0.500000
      * Dispersion:
        s8                             2.700000
        a1                             0.520000
        a2                             5.000000
        s9                             5.000000
      * Repulsion:
        kExp                           1.500000    1.000000
        rExp                           1.000000
      * Coulomb:
        alpha                          2.000000
        third order                    shell-resolved
        anisotropic                    true
        a3                             3.000000
        a5                             4.000000
        cn-shift                       1.200000
        cn-exp                         4.000000
        max-rad                        5.000000


          ...................................................
          :                      SETUP                      :
          :.................................................:
          :  # basis functions                  36          :
          :  # atomic orbitals                  36          :
          :  # shells                           22          :
          :  # electrons                        36          :
          :  max. iterations                   250          :
          :  Hamiltonian                  GFN2-xTB          :
          :  restarted?                      false          :
          :  GBSA solvation                  false          :
          :  PC potential                    false          :
          :  electronic temp.          300.0000000     K    :
          :  accuracy                    1.0000000          :
          :  -> integral cutoff          0.2500000E+02      :
          :  -> integral neglect         0.1000000E-07      :
          :  -> SCF convergence          0.1000000E-05 Eh   :
          :  -> wf. convergence          0.1000000E-03 e    :
          :  Broyden damping             0.4000000          :
          :  net charge                          0          :
          :  unpaired electrons                  0          :
          ...................................................

 iter      E             dE          RMSdq      gap      omega  full diag
   1    -19.3789378 -0.193789E+02  0.437E+00    4.64       0.0  T
   2    -19.3972996 -0.183618E-01  0.260E+00    4.69       1.0  T
   3    -19.3959360  0.136355E-02  0.714E-01    4.57       1.0  T
   4    -19.3977152 -0.177923E-02  0.314E-01    4.67       1.0  T
   5    -19.3985923 -0.877057E-03  0.501E-02    4.65       1.0  T
   6    -19.3985965 -0.422049E-05  0.292E-02    4.64       1.0  T
   7    -19.3985986 -0.206535E-05  0.707E-03    4.64       3.7  T
   8    -19.3985988 -0.205216E-06  0.103E-03    4.64      25.1  T
   9    -19.3985988 -0.690108E-09  0.551E-04    4.64      46.8  T
  10    -19.3985988 -0.284394E-08  0.128E-04    4.64     201.9  T

   *** convergence criteria satisfied after 10 iterations ***

         #    Occupation            Energy/Eh            Energy/eV
      -------------------------------------------------------------
         1        2.0000           -0.6375565             -17.3488
       ...           ...                  ...                  ...
        12        2.0000           -0.4693233             -12.7709
        13        2.0000           -0.4578995             -12.4601
        14        2.0000           -0.4564888             -12.4217
        15        2.0000           -0.4211132             -11.4591
        16        2.0000           -0.4161851             -11.3250
        17        2.0000           -0.3971603             -10.8073
        18        2.0000           -0.3892490             -10.5920 (HOMO)
        19                         -0.2186298              -5.9492 (LUMO)
        20                         -0.2173898              -5.9155
        21                         -0.0917606              -2.4969
        22                          0.0988927               2.6910
        23                          0.1168429               3.1795
       ...                                ...                  ...
        36                          0.6459208              17.5764
      -------------------------------------------------------------
                  HL-Gap            0.1706192 Eh            4.6428 eV
             Fermi-level           -0.3039394 Eh           -8.2706 eV

 SCC (total)                   0 d,  0 h,  0 min,  0.005 sec
 SCC setup                      ...        0 min,  0.000 sec (  1.146%)
 Dispersion                     ...        0 min,  0.000 sec (  1.188%)
 classical contributions        ...        0 min,  0.000 sec (  0.285%)
 integral evaluation            ...        0 min,  0.001 sec ( 14.640%)
 iterations                     ...        0 min,  0.002 sec ( 46.282%)
 molecular gradient             ...        0 min,  0.002 sec ( 35.314%)
 printout                       ...        0 min,  0.000 sec (  1.019%)

         :::::::::::::::::::::::::::::::::::::::::::::::::::::
         ::                     SUMMARY                     ::
         :::::::::::::::::::::::::::::::::::::::::::::::::::::
         :: total energy             -19.049806194590 Eh    ::
         :: gradient norm              0.014840214666 Eh/a0 ::
         :: HOMO-LUMO gap              4.642784464756 eV    ::
         ::.................................................::
         :: SCC energy               -19.398581016966 Eh    ::
         :: -> isotropic ES            0.001843980318 Eh    ::
         :: -> anisotropic ES          0.003822653282 Eh    ::
         :: -> anisotropic XC          0.013986990849 Eh    ::
         :: -> dispersion             -0.010527666910 Eh    ::
         :: repulsion energy           0.348774822376 Eh    ::
         :: add. restraining           0.000000000000 Eh    ::
         :: total charge               0.000000000000 e     ::
         :::::::::::::::::::::::::::::::::::::::::::::::::::::

      ----------------------------------------------------------- 
     |                   =====================                   |
     |                        A N C O P T                        |
     |                   =====================                   |
     |               Approximate Normal Coordinate               |
     |                Rational Function Optimizer                |
      ----------------------------------------------------------- 

          ...................................................
          :                      SETUP                      :
          :.................................................:
          :   optimization level         verytight          :
          :   max. optcycles                   300          :
          :   ANC micro-cycles                  20          :
          :   degrees of freedom                39          :
          :.................................................:
          :   RF solver                   davidson          :
          :   write xtbopt.log                true          :
          :   linear?                        false          :
          :   energy convergence         0.1000000E-06 Eh   :
          :   grad. convergence          0.2000000E-03 Eh/α :
          :   maximum RF displ.          1.0000000          :
          :   Hlow (freq-cutoff)         0.1000000E-01      :
          :   Hmax (freq-cutoff)         5.0000000          :
          :   S6 in model hess.         20.0000000          :
          ...................................................

generating ANC from exact Hessian ...
Using Lindh-Hessian (1995)
 Shifting diagonal of input Hessian by    4.5508910002375292E-003
 Lowest  eigenvalues of input Hessian
    0.000000    0.000000    0.000000    0.000000    0.000000    0.000000
    0.010000    0.012759    0.019217    0.020678    0.023124    0.028463
    0.046930    0.048364    0.071075    0.072226    0.086846    0.097911
 Highest eigenvalues
    1.363718    1.536593    1.573096    1.849130    1.942143    1.970077


........................................................................
.............................. CYCLE    1 ..............................
........................................................................

 iter      E             dE          RMSdq      gap      omega  full diag
   1    -19.3985988 -0.193986E+02  0.474E-05    4.64       0.0  T
   2    -19.3985988 -0.287059E-11  0.276E-05    4.64     934.7  T
   3    -19.3985988 -0.326850E-12  0.185E-05    4.64    1397.6  T
     SCC iter.                  ...        0 min,  0.001 sec
     gradient                   ...        0 min,  0.002 sec
 * total energy  :   -19.0498062 Eh     change       -0.5661960E-10 Eh
   gradient norm :     0.0148406 Eh/α   predicted     0.0000000E+00 (-100.00%)
   displ. norm   :     0.0940497 α      lambda       -0.1018272E-02
   maximum displ.:     0.0588048 α      in ANC's #8, #22, #7, ...

........................................................................
.............................. CYCLE    2 ..............................
........................................................................

 iter      E             dE          RMSdq      gap      omega  full diag
   1    -19.4130429 -0.194130E+02  0.104E-01    4.70       0.0  T
   2    -19.4130446 -0.169747E-05  0.623E-02    4.70       1.0  T
   3    -19.4130414  0.319505E-05  0.178E-02    4.70       1.5  T
   4    -19.4130452 -0.378832E-05  0.232E-03    4.70      11.1  T
   5    -19.4130452 -0.297585E-07  0.105E-03    4.70      24.6  T
   6    -19.4130452  0.658510E-09  0.357E-04    4.70      72.3  T
   7    -19.4130452 -0.116784E-08  0.554E-05    4.70     466.3  T
     SCC iter.                  ...        0 min,  0.001 sec
     gradient                   ...        0 min,  0.002 sec
 * total energy  :   -19.0503904 Eh     change       -0.5842226E-03 Eh
   gradient norm :     0.0030649 Eh/α   predicted    -0.5136402E-03 ( -12.08%)
   displ. norm   :     0.0179804 α      lambda       -0.3128816E-04
   maximum displ.:     0.0103441 α      in ANC's #7, #22, #8, ...

........................................................................
.............................. CYCLE    3 ..............................
........................................................................

 iter      E             dE          RMSdq      gap      omega  full diag
   1    -19.4156660 -0.194157E+02  0.198E-02    4.71       0.0  T
   2    -19.4156662 -0.133801E-06  0.115E-02    4.71       2.2  T
   3    -19.4156661  0.243224E-07  0.227E-03    4.71      11.4  T
   4    -19.4156662 -0.302206E-07  0.738E-04    4.71      35.0  T
   5    -19.4156662 -0.568620E-08  0.220E-04    4.71     117.6  T
     SCC iter.                  ...        0 min,  0.001 sec
     gradient                   ...        0 min,  0.002 sec
 * total energy  :   -19.0504063 Eh     change       -0.1589230E-04 Eh
   gradient norm :     0.0008339 Eh/α   predicted    -0.1564978E-04 (  -1.53%)
   displ. norm   :     0.0058874 α      lambda       -0.1023805E-05
   maximum displ.:     0.0041241 α      in ANC's #1, #5, #8, ...

........................................................................
.............................. CYCLE    4 ..............................
........................................................................

 iter      E             dE          RMSdq      gap      omega  full diag
   1    -19.4156800 -0.194157E+02  0.614E-03    4.71       0.0  T
   2    -19.4156800 -0.905090E-08  0.361E-03    4.71       7.2  T
   3    -19.4156800  0.536511E-08  0.815E-04    4.71      31.7  T
   4    -19.4156800 -0.648268E-08  0.180E-04    4.71     143.8  T
     SCC iter.                  ...        0 min,  0.001 sec
     gradient                   ...        0 min,  0.002 sec
 * total energy  :   -19.0504069 Eh     change       -0.6311097E-06 Eh
   gradient norm :     0.0001924 Eh/α   predicted    -0.5120608E-06 ( -18.86%)
   displ. norm   :     0.0025381 α      lambda       -0.2164927E-06
   maximum displ.:     0.0013895 α      in ANC's #1, #11, #7, ...

........................................................................
.............................. CYCLE    5 ..............................
........................................................................

 iter      E             dE          RMSdq      gap      omega  full diag
   1    -19.4155733 -0.194156E+02  0.307E-03    4.71       0.0  T
   2    -19.4155733 -0.862844E-09  0.184E-03    4.71      14.0  T
   3    -19.4155733  0.309612E-08  0.538E-04    4.71      48.0  T
   4    -19.4155733 -0.368829E-08  0.476E-05    4.71     542.6  T
     SCC iter.                  ...        0 min,  0.001 sec
     gradient                   ...        0 min,  0.002 sec
 * total energy  :   -19.0504070 Eh     change       -0.1082226E-06 Eh
   gradient norm :     0.0001211 Eh/α   predicted    -0.1089575E-06 (   0.68%)
   displ. norm   :     0.0006034 α      lambda       -0.2599106E-07
   maximum displ.:     0.0004025 α      in ANC's #7, #11, #8, ...

........................................................................
.............................. CYCLE    6 ..............................
........................................................................

 iter      E             dE          RMSdq      gap      omega  full diag
   1    -19.4155961 -0.194156E+02  0.835E-04    4.71       0.0  T
   2    -19.4155961 -0.129234E-09  0.496E-04    4.71      52.1  T
   3    -19.4155961  0.145832E-09  0.122E-04    4.71     211.4  T
     SCC iter.                  ...        0 min,  0.001 sec
     gradient                   ...        0 min,  0.002 sec
 * total energy  :   -19.0504071 Eh     change       -0.2016482E-07 Eh
   gradient norm :     0.0000166 Eh/α   predicted    -0.1404477E-07 ( -30.35%)
   displ. norm   :     0.0001773 α      lambda       -0.1592922E-08
   maximum displ.:     0.0001329 α      in ANC's #1, #5, #6, ...

   *** GEOMETRY OPTIMIZATION CONVERGED AFTER 6 ITERATIONS ***

------------------------------------------------------------------------
 total energy gain   :        -0.0006009 Eh       -0.3771 kcal/mol
 total RMSD          :         0.0289708 a0        0.0153 Å
 total power (kW/mol):        -0.2629326 (step)  -64.2760 (real)
------------------------------------------------------------------------

 ANCopt (total)                0 d,  0 h,  0 min,  0.025 sec
 optimizer setup                ...        0 min,  0.000 sec (  0.186%)
 model hessian                  ...        0 min,  0.001 sec (  3.893%)
 ANC generation                 ...        0 min,  0.000 sec (  0.973%)
 coordinate transformation      ...        0 min,  0.000 sec (  0.062%)
 single point calculation       ...        0 min,  0.022 sec ( 90.709%)
 optimization log               ...        0 min,  0.000 sec (  0.962%)
 hessian update                 ...        0 min,  0.000 sec (  0.082%)
 rational function              ...        0 min,  0.000 sec (  1.282%)

================
 final structure:
================
$coord
       -4.60976510442023       -0.00002905738427        0.01249148965126      C
       -1.77717054669996       -0.00011963151613       -0.01713886727478      C
       -0.43698802381654       -2.25748768100400       -0.00967485878898      C
        2.17739677048890       -2.26067414675290        0.00317427555917      C
        3.49319402203116        0.00009400121808        0.00928841325371      C
        2.17721564267527        2.26078089113903        0.00290219564069      C
       -0.43714105695638        2.25738200308797       -0.00994820623863      C
       -5.35390622297859       -1.67537423233473       -0.91711109976071      H
       -5.29211496194881        0.00468263477359        1.95754491558180      H
       -5.35379502457092        1.67097638839874       -0.92502308794971      H
       -1.45368530970777       -4.02954423691395       -0.01662517828595      H
        3.19096300376521       -4.03326234879154        0.00545711263940      H
        5.53432008674171        0.00017745063576        0.01614210096278      H
        3.19065730200374        4.03344084078974        0.00497254531761      H
       -1.45402641745768        4.02932993654648       -0.01711253894623      H
$end

 Bond Distances (Angstroems)
 ---------------------------
C1-C2=1.4990         C1-H8=1.0877         C1-H9=1.0908         C1-H10=1.0877        C2-C1=1.4990         C2-C3=1.3892         
C2-C7=1.3892         C3-C2=1.3892         C3-C4=1.3835         C3-H11=1.0811        C4-C3=1.3835         C4-C5=1.3842         
C4-H12=1.0805        C5-C4=1.3842         C5-C6=1.3842         C5-H13=1.0801        C6-C5=1.3842         C6-C7=1.3835         
C6-H14=1.0805        C7-C2=1.3892         C7-C6=1.3835         C7-H15=1.0811        H8-C1=1.0877         H9-C1=1.0908         
H10-C1=1.0877        H11-C3=1.0811        H12-C4=1.0805        H13-C5=1.0801        H14-C6=1.0805        H15-C7=1.0811        
 C  H  Rav=1.0837 sigma=0.0040  Rmin=1.0801  Rmax=1.0908     8
 C  C  Rav=1.4018 sigma=0.0397  Rmin=1.3835  Rmax=1.4990     7

 selected bond angles (degree)
 --------------------
H8-C1-C2=110.93                H9-C1-C2=109.93                H9-C1-H8=107.99                H10-C1-C2=110.93               
H10-C1-H8=108.98               H10-C1-H9=107.98               C3-C2-C1=120.70                C7-C2-C1=120.69                
C7-C2-C3=118.61                C4-C3-C2=120.77                H11-C3-C2=119.46               H11-C3-C4=119.78               
C5-C4-C3=120.13                H12-C4-C3=119.83               H12-C4-C5=120.04               C6-C5-C4=119.60                
H13-C5-C4=120.20               H13-C5-C6=120.20               C7-C6-C5=120.13                H14-C6-C5=120.04               
H14-C6-C7=119.83               C6-C7-C2=120.77                H15-C7-C2=119.46               H15-C7-C6=119.78               

 selected dihedral angles (degree)
 ---------------------------------
C3-C2-C1-H8=330.23            C3-C2-C1-H9= 89.59            C3-C2-C1-H10=208.95           C7-C2-C1-H8=151.31            
C7-C2-C1-H9=270.68            C7-C2-C1-H10= 30.03           C4-C3-C2-C1=181.02            C4-C3-C2-C7=359.96            
H11-C3-C2-C1=  1.11           H11-C3-C2-C7=180.05           C5-C4-C3-C2=  0.00            C5-C4-C3-H11=179.93           
H12-C4-C3-C2=180.11           H12-C4-C3-H11=  0.02          C6-C5-C4-C3=  0.00            C6-C5-C4-H12=179.91           
H13-C5-C4-C3=180.10           H13-C5-C4-H12=  0.00          C7-C6-C5-C4=  0.00            C7-C6-C5-H13=179.90           
H14-C6-C5-C4=180.09           H14-C6-C5-H13=  0.00          C6-C7-C2-C1=178.98            C6-C7-C2-C3=  0.04            
H15-C7-C2-C1=358.89           H15-C7-C2-C3=179.95           C2-C7-C6-C5=  0.00            C2-C7-C6-H14=179.89           
H15-C7-C6-C5=180.07           H15-C7-C6-H14=359.98          
           -------------------------------------------------
          |                Final Singlepoint                |
           -------------------------------------------------

          ...................................................
          :                      SETUP                      :
          :.................................................:
          :  # basis functions                  36          :
          :  # atomic orbitals                  36          :
          :  # shells                           22          :
          :  # electrons                        36          :
          :  max. iterations                   250          :
          :  Hamiltonian                  GFN2-xTB          :
          :  restarted?                      false          :
          :  GBSA solvation                  false          :
          :  PC potential                    false          :
          :  electronic temp.          300.0000000     K    :
          :  accuracy                    1.0000000          :
          :  -> integral cutoff          0.2500000E+02      :
          :  -> integral neglect         0.1000000E-07      :
          :  -> SCF convergence          0.1000000E-05 Eh   :
          :  -> wf. convergence          0.1000000E-03 e    :
          :  Broyden damping             0.4000000          :
          :  net charge                          0          :
          :  unpaired electrons                  0          :
          ...................................................

 iter      E             dE          RMSdq      gap      omega  full diag
   1    -19.4155961 -0.194156E+02  0.188E-05    4.71       0.0  T
   2    -19.4155961 -0.169464E-11  0.111E-05    4.71    2320.5  T
   3    -19.4155961 -0.125411E-11  0.477E-06    4.71    5408.2  T

   *** convergence criteria satisfied after 3 iterations ***

         #    Occupation            Energy/Eh            Energy/eV
      -------------------------------------------------------------
         1        2.0000           -0.6396719             -17.4064
       ...           ...                  ...                  ...
        12        2.0000           -0.4692278             -12.7683
        13        2.0000           -0.4594041             -12.5010
        14        2.0000           -0.4567921             -12.4299
        15        2.0000           -0.4203589             -11.4385
        16        2.0000           -0.4160228             -11.3206
        17        2.0000           -0.3983575             -10.8399
        18        2.0000           -0.3898786             -10.6091 (HOMO)
        19                         -0.2167711              -5.8986 (LUMO)
        20                         -0.2152674              -5.8577
        21                         -0.0869283              -2.3654
        22                          0.1090834               2.9683
        23                          0.1251966               3.4068
       ...                                ...                  ...
        36                          0.6696534              18.2222
      -------------------------------------------------------------
                  HL-Gap            0.1731076 Eh            4.7105 eV
             Fermi-level           -0.3033249 Eh           -8.2539 eV

 SCC (total)                   0 d,  0 h,  0 min,  0.004 sec
 SCC setup                      ...        0 min,  0.000 sec (  1.125%)
 Dispersion                     ...        0 min,  0.000 sec (  0.671%)
 classical contributions        ...        0 min,  0.000 sec (  0.292%)
 integral evaluation            ...        0 min,  0.001 sec ( 21.785%)
 iterations                     ...        0 min,  0.001 sec ( 23.604%)
 molecular gradient             ...        0 min,  0.002 sec ( 51.521%)
 printout                       ...        0 min,  0.000 sec (  0.810%)

         :::::::::::::::::::::::::::::::::::::::::::::::::::::
         ::                     SUMMARY                     ::
         :::::::::::::::::::::::::::::::::::::::::::::::::::::
         :: total energy             -19.050407069238 Eh    ::
         :: gradient norm              0.000016249437 Eh/a0 ::
         :: HOMO-LUMO gap              4.710496282789 eV    ::
         ::.................................................::
         :: SCC energy               -19.415578519170 Eh    ::
         :: -> isotropic ES            0.001938163608 Eh    ::
         :: -> anisotropic ES          0.003605656784 Eh    ::
         :: -> anisotropic XC          0.013495500608 Eh    ::
         :: -> dispersion             -0.010571790128 Eh    ::
         :: repulsion energy           0.365171449932 Eh    ::
         :: add. restraining           0.000000000000 Eh    ::
         :: total charge               0.000000000000 e     ::
         :::::::::::::::::::::::::::::::::::::::::::::::::::::

           ------------------------------------------------- 
          |                Numerical Hessian                |
           ------------------------------------------------- 
step length          :   0.00500
SCC accuracy         :   0.30000
Hessian scale factor :   1.00000
frozen atoms in %    :   0.00000    0
RMS gradient         :   0.00002
estimated CPU  time      0.01 min
estimated wall time      0.01 min

writing file <hessian>, containing the non-mass-weighted Hessian matrix in atomic units (Eₕ/Bohr²).

 projected vibrational frequencies (cm⁻¹)
eigval :       -0.00    -0.00    -0.00    -0.00     0.00     0.00
eigval :       13.57   198.25   338.58   371.03   443.22   504.77
eigval :      593.15   654.57   739.78   809.98   877.99   897.41
eigval :      929.18   931.33   988.42  1006.98  1032.08  1086.78
eigval :     1126.78  1182.73  1201.43  1244.00  1291.90  1322.98
eigval :     1404.43  1439.62  1482.27  1486.03  1487.96  1593.78
eigval :     1608.84  2994.47  3035.24  3036.61  3066.78  3067.08
eigval :     3074.96  3080.12  3090.11
           -------------------------------------------------
          |                Property Printout                |
           -------------------------------------------------

    * Orbital Energies and Occupations

         #    Occupation            Energy/Eh            Energy/eV
      -------------------------------------------------------------
         1        2.0000           -0.6396719             -17.4064
       ...           ...                  ...                  ...
         6        2.0000           -0.5586563             -15.2018
         7        2.0000           -0.5223236             -14.2131
         8        2.0000           -0.4977536             -13.5446
         9        2.0000           -0.4929161             -13.4129
        10        2.0000           -0.4908920             -13.3579
        11        2.0000           -0.4726966             -12.8627
        12        2.0000           -0.4692278             -12.7683
        13        2.0000           -0.4594041             -12.5010
        14        2.0000           -0.4567921             -12.4299
        15        2.0000           -0.4203589             -11.4385
        16        2.0000           -0.4160228             -11.3206
        17        2.0000           -0.3983575             -10.8399
        18        2.0000           -0.3898786             -10.6091 (HOMO)
        19                         -0.2167711              -5.8986 (LUMO)
        20                         -0.2152674              -5.8577
        21                         -0.0869283              -2.3654
        22                          0.1090834               2.9683
        23                          0.1251966               3.4068
        24                          0.1570791               4.2743
        25                          0.1674925               4.5577
        26                          0.1819977               4.9524
        27                          0.1988648               5.4114
        28                          0.2069277               5.6308
        29                          0.2244151               6.1066
       ...                                ...                  ...
        36                          0.6696534              18.2222
      -------------------------------------------------------------
                  HL-Gap            0.1731075 Eh            4.7105 eV
             Fermi-level           -0.3033248 Eh           -8.2539 eV

     #   Z          covCN         q      C6AA      α(0)
     1   6          3.758    -0.109    22.629     6.782
     2   6          2.966     0.018    27.613     8.619
     3   6          2.926    -0.039    28.980     8.828
     4   6          2.919    -0.031    28.770     8.796
     5   6          2.920    -0.034    28.854     8.809
     6   6          2.919    -0.031    28.770     8.796
     7   6          2.926    -0.039    28.980     8.828
     8   1          0.925     0.042     2.426     2.436
     9   1          0.924     0.046     2.367     2.406
    10   1          0.925     0.042     2.426     2.436
    11   1          0.926     0.028     2.622     2.532
    12   1          0.926     0.027     2.626     2.534
    13   1          0.926     0.027     2.634     2.538
    14   1          0.926     0.027     2.626     2.534
    15   1          0.926     0.028     2.622     2.532

 Mol. C6AA /au·bohr⁶  :       2460.028948
 Mol. C8AA /au·bohr⁸  :      58809.436773
 Mol. α(0) /au        :         79.406151


Wiberg/Mayer (AO) data.
largest (>0.10) Wiberg bond orders for each atom

 ---------------------------------------------------------------------------
     #   Z sym  total        # sym  WBO       # sym  WBO       # sym  WBO
 ---------------------------------------------------------------------------
     1   6      3.997 --     2      1.025     8      0.982    10      0.982
                             9      0.968
     2   6      3.989 --     3      1.412     7      1.412     1      1.025
                             5      0.110
     3   6      3.992 --     4      1.446     2      1.412    11      0.970
                             6      0.111
     4   6      3.993 --     3      1.446     5      1.438    12      0.971
                             7      0.111
     5   6      3.993 --     4      1.438     6      1.438    13      0.972
                             2      0.110
     6   6      3.993 --     7      1.446     5      1.438    14      0.971
                             3      0.111
     7   6      3.992 --     6      1.446     2      1.412    15      0.970
                             4      0.111
     8   1      0.998 --     1      0.982
     9   1      0.998 --     1      0.968
    10   1      0.998 --     1      0.982
    11   1      0.999 --     3      0.970
    12   1      0.999 --     4      0.971
    13   1      0.999 --     5      0.972
    14   1      0.999 --     6      0.971
    15   1      0.999 --     7      0.970
 ---------------------------------------------------------------------------

Topologies differ in total number of bonds
Writing topology from bond orders to xtbtopo.mol

molecular dipole:
                 x           y           z       tot (Debye)
 q only:       -0.200       0.000       0.012
   full:       -0.210       0.000       0.022       0.536
molecular quadrupole (traceless):
                xx          xy          yy          xz          yz          zz
 q only:        1.423      -0.001       0.075      -0.087      -0.000      -1.498
  q+dip:        2.836      -0.001       2.381      -0.138      -0.000      -5.217
   full:        1.816      -0.001       0.919      -0.149      -0.000      -2.736

           -------------------------------------------------
          |                Geometry Summary                 |
           -------------------------------------------------

      molecular mass/u    :       92.1386773
   center of mass at/Å    :        0.0000005      -0.0000012       0.0000123
  moments of inertia/u·Å² :        0.9015117E+02   0.1975430E+03   0.2845676E+03
rotational constants/cm⁻¹ :        0.1869929E+00   0.8533653E-01   0.5923946E-01

 * 14 selected distances

     #   Z          #   Z                                           value/Å
     2   6          3   6                                         1.3892143
     3   6          4   6                                         1.3834907
     4   6          5   6                                         1.3842242
     5   6          6   6                                         1.3842356
     2   6          7   6                                         1.3892334 (max)
     6   6          7   6                                         1.3834760
     1   6          8   1                                         1.0876734
     1   6          9   1                                         1.0907801
     1   6         10   1                                         1.0876843
     3   6         11   1                                         1.0811165
     4   6         12   1                                         1.0805316
     5   6         13   1                                         1.0801236 (min)
     6   6         14   1                                         1.0805317
     7   6         15   1                                         1.0811166

 * 2 distinct bonds (by element types)

   Z      Z             #   av. dist./Å        max./Å        min./Å
   1 H    6 C           8     1.0836947     1.0907801     1.0801236
   6 C    6 C           6     1.3856457     1.3892334     1.3834760

           -------------------------------------------------
          |               Frequency Printout                |
           -------------------------------------------------
 projected vibrational frequencies (cm⁻¹)
eigval :       -0.00    -0.00    -0.00    -0.00     0.00     0.00
eigval :       13.57   198.25   338.58   371.03   443.22   504.77
Molecule has the following symmetry elements: (sigma) 
It seems to be the Cs point group
eigval :      593.15   654.57   739.78   809.98   877.99   897.41
eigval :      929.18   931.33   988.42  1006.98  1032.08  1086.78
eigval :     1126.78  1182.73  1201.43  1244.00  1291.90  1322.98
eigval :     1404.43  1439.62  1482.27  1486.03  1487.96  1593.78
eigval :     1608.84  2994.47  3035.24  3036.61  3066.78  3067.08
eigval :     3074.96  3080.12  3090.11
 reduced masses (amu)
    1:      4.04    2:      4.07    3:      4.51    4:      4.83    5:      5.65    6:      4.24
    7:      1.04    8:      2.98    9:      2.59   10:      2.92   11:      2.86   12:      5.45
   13:      6.50   14:      4.34   15:      1.18   16:      4.71   17:      1.25   18:      1.28
   19:      1.36   20:      1.19   21:      5.49   22:      1.34   23:      1.45   24:      1.96
   25:      1.32   26:      1.03   27:      1.07   28:      2.85   29:      1.27   30:      9.89
   31:      1.23   32:      2.68   33:      1.44   34:      1.09   35:      1.78   36:      7.44
   37:      7.85   38:      1.08   39:      1.09   40:      1.04   41:      1.08   42:      1.07
   43:      1.08   44:      1.09   45:      1.09
 IR intensities (km·mol⁻¹)
    1:      0.01    2:      0.00    3:      0.01    4:      0.02    5:      0.00    6:      0.03
    7:      0.26    8:      0.71    9:      0.21   10:      0.00   11:      2.42   12:      0.03
   13:      0.03   14:      0.68   15:     21.17   16:      1.70   17:      0.00   18:      0.02
   19:      0.06   20:      0.07   21:      0.72   22:      2.60   23:     11.96   24:      0.01
   25:      0.63   26:      0.00   27:      0.70   28:     12.57   29:      0.07   30:      0.21
   31:      4.25   32:      0.81   33:      6.55   34:      3.11   35:      3.72   36:      0.11
   37:     10.93   38:     26.88   39:     21.93   40:     20.50   41:      7.91   42:     16.92
   43:     24.10   44:    124.28   45:     43.25
 Raman intensities (Ä⁴*amu⁻¹)
    1:      0.00    2:      0.00    3:      0.00    4:      0.00    5:      0.00    6:      0.00
    7:      0.00    8:      0.00    9:      0.00   10:      0.00   11:      0.00   12:      0.00
   13:      0.00   14:      0.00   15:      0.00   16:      0.00   17:      0.00   18:      0.00
   19:      0.00   20:      0.00   21:      0.00   22:      0.00   23:      0.00   24:      0.00
   25:      0.00   26:      0.00   27:      0.00   28:      0.00   29:      0.00   30:      0.00
   31:      0.00   32:      0.00   33:      0.00   34:      0.00   35:      0.00   36:      0.00
   37:      0.00   38:      0.00   39:      0.00   40:      0.00   41:      0.00   42:      0.00
   43:      0.00   44:      0.00   45:      0.00
 output can be read by thermo (or use thermo option).
 writing <g98.out> molden fake output.
 recommended (thermochemical) frequency scaling factor: 1.0
           -------------------------------------------------
          |             Thermodynamic Functions             |
           -------------------------------------------------

cs  symmetry found (for desy threshold:  0.10E+00) used in thermo

          ...................................................
          :                      SETUP                      :
          :.................................................:
          :  # frequencies                          39      :
          :  # imaginary freq.                       0      :
          :  linear?                             false      :
          :  only rotor calc.                    false      :
          :  symmetry                               cs      :
          :  rotational number                       1      :
          :  scaling factor                  1.0000000      :
          :  rotor cutoff                    0.0000000 cm⁻¹ :
          :  imag. cutoff                 -100.0000000 cm⁻¹ :
          :.................................................:

    mode    ω/cm⁻¹     T·S(HO)/kcal·mol⁻¹    T·S(FR)/kcal·mol⁻¹   T·S(vib)
   ------------------------------------------------------------------------
       1     13.57    -2.20752 (100.00%)    -1.44090 (  0.00%)    -2.20752
       2    198.25    -0.64082 (100.00%)    -0.64835 (  0.00%)    -0.64082
   ------------------------------------------------------------------------

   temp. (K)  partition function   enthalpy   heat capacity  entropy
                                   cal/mol     cal/K/mol   cal/K/mol   J/K/mol
 298.15  VIB   61.1                 2271.972     17.962     15.791
         ROT  0.172E+06              888.727      2.981     26.937
         INT  0.105E+08             3160.700     20.943     42.728
         TR   0.271E+26             1481.212      4.968     39.474
         TOT                        4641.9121    25.9109    82.2018   343.9323

       T/K    H(0)-H(T)+PV         H(T)/Eh          T*S/Eh         G(T)/Eh
   ------------------------------------------------------------------------
    298.15    0.739736E-02    0.132093E+00    0.390567E-01    0.930365E-01
   ------------------------------------------------------------------------

         :::::::::::::::::::::::::::::::::::::::::::::::::::::
         ::                  THERMODYNAMIC                  ::
         :::::::::::::::::::::::::::::::::::::::::::::::::::::
         :: total free energy         -18.957370521326 Eh   ::
         ::.................................................::
         :: total energy              -19.050407069238 Eh   ::
         :: zero point energy           0.124695916150 Eh   ::
         :: G(RRHO) w/o ZPVE           -0.031659368238 Eh   ::
         :: G(RRHO) contrib.            0.093036547912 Eh   ::
         :::::::::::::::::::::::::::::::::::::::::::::::::::::

optimized geometry written to: xtbopt.coord


           -------------------------------------------------
          | TOTAL ENERGY              -19.050407069238 Eh   |
          | TOTAL ENTHALPY            -18.918313795217 Eh   |
          | TOTAL FREE ENERGY         -18.957370521326 Eh   |
          | GRADIENT NORM               0.000016250377 Eh/α |
          | HOMO-LUMO GAP               4.710496112177 eV   |
           -------------------------------------------------

------------------------------------------------------------------------
 * finished run on 2025/04/09 at 01:50:49.201     
------------------------------------------------------------------------
 total:
 * wall-time:     0 d,  0 h,  0 min,  0.388 sec
 *  cpu-time:     0 d,  0 h,  0 min,  0.383 sec
 * ratio c/w:     0.987 speedup
 SCF:
 * wall-time:     0 d,  0 h,  0 min,  0.005 sec
 *  cpu-time:     0 d,  0 h,  0 min,  0.005 sec
 * ratio c/w:     0.996 speedup
 ANC optimizer:
 * wall-time:     0 d,  0 h,  0 min,  0.028 sec
 *  cpu-time:     0 d,  0 h,  0 min,  0.028 sec
 * ratio c/w:     0.984 speedup
 analytical hessian:
 * wall-time:     0 d,  0 h,  0 min,  0.350 sec
 *  cpu-time:     0 d,  0 h,  0 min,  0.346 sec
 * ratio c/w:     0.987 speedup

