
                                 *****************
                                 * O   R   C   A *
                                 *****************

                                            #,                                       
                                            ###                                      
                                            ####                                     
                                            #####                                    
                                            ######                                   
                                           ########,                                 
                                     ,,################,,,,,                         
                               ,,#################################,,                 
                          ,,##########################################,,             
                       ,#########################################, ''#####,          
                    ,#############################################,,   '####,        
                  ,##################################################,,,,####,       
                ,###########''''           ''''###############################       
              ,#####''   ,,,,##########,,,,          '''####'''          '####       
            ,##' ,,,,###########################,,,                        '##       
           ' ,,###''''                  '''############,,,                           
         ,,##''                                '''############,,,,        ,,,,,,###''
      ,#''                                            '''#######################'''  
     '                                                          ''''####''''         
             ,#######,   #######,   ,#######,      ##                                
            ,#'     '#,  ##    ##  ,#'     '#,    #''#        ,####,   ,####,        
            ##       ##  ##   ,#'  ##            #'  '#       #'       #'  '#        
            ##       ##  #######   ##           ,######,      #####,   #    #        
            '#,     ,#'  ##    ##  '#,     ,#' ,#      #,     #,   #   #,  ,#        
             '#######'   ##     ##  '#######'  #'      '#     '####' # '####'        



                #########################################################
                #                        -***-                          #
                #          Department of theory and spectroscopy        #
                #                                                       #
                #                      Frank Neese                      #
                #                                                       #
                #     Directorship, Architecture, Infrastructure        #
                #                    SHARK, DRIVERS                     #
                #        Core code/Algorithms in most modules           #
                #                                                       #
                #        Max Planck Institute fuer Kohlenforschung      #
                #                Kaiser Wilhelm Platz 1                 #
                #                 D-45470 Muelheim/Ruhr                 #
                #                      Germany                          #
                #                                                       #
                #                  All rights reserved                  #
                #                        -***-                          #
                #########################################################


                         Program Version 6.0.1  -  RELEASE   -


 With contributions from (in alphabetic order):
[Max-Planck-Institut fuer Kohlenforschung]                               
  Daniel Aravena         : Magnetic Suceptibility                        
  Michael Atanasov       : Ab Initio Ligand Field Theory (pilot matlab implementation)
  Alexander A. Auer      : GIAO ZORA, VPT2 properties, NMR spectrum      
  Ute Becker             : All parallelization in ORCA, NUMFREQ, NUMCALC 
  Giovanni Bistoni       : ED, misc. LED, open-shell LED, HFLD           
  Martin Brehm           : Molecular dynamics                            
  Dmytro Bykov           : pre 5.0 version of the SCF Hessian            
  Marcos Casanova-Páez   : Triplet and SCS-CIS(D). UHF-(DLPNO)-IP/EA/STEOM-CCSD. UHF-CVS-IP/STEOM-CCSD   
  Vijay G. Chilkuri      : MRCI spin determinant printing, contributions to CSF-ICE 
  Pauline Colinet        : FMM embedding                                 
  Dipayan Datta          : RHF DLPNO-CCSD density                        
  Achintya Kumar Dutta   : EOM-CC, STEOM-CC                              
  Nicolas Foglia         : Exact transition moments, OPA infrastructure, MCD improvements    
  Dmitry Ganyushin       : Spin-Orbit,Spin-Spin,Magnetic field MRCI      
  Miquel Garcia-Rates    : C-PCM and meta-GGA Hessian, CCSD/C-PCM, Gaussian charge scheme 
  Tiago L. C. Gouveia    : GS-ROHF, GS-ROCIS                             
  Yang Guo               : DLPNO-NEVPT2, F12-NEVPT2, CIM, IAO-localization        
  Andreas Hansen         : Spin unrestricted coupled pair/coupled cluster methods 
  Ingolf Harden          : AUTO-CI MPn and infrastructure                
  Benjamin Helmich-Paris : MC-RPA, TRAH-(SCF,CASSCF), AVAS, COSX integrals, SCF dyn. polar. 
  Lee Huntington         : MR-EOM, pCC                                   
  Robert Izsak           : Overlap fitted RIJCOSX, COSX-SCS-MP3, EOM     
  Riya Kayal             : Wick's Theorem for AUTO-CI, AUTO-CI UHF-CCSDT 
  Emily Kempfer          : AUTO-CI, RHF CISDT and CCSDT                  
  Christian Kollmar      : KDIIS, OOCD, Brueckner-CCSD(T), CCSD density, CASPT2, CASPT2-K, improved NEVPT2 
  Axel Koslowski         : Symmetry handling                             
  Simone Kossmann        : meta-GGA functionals, TD-DFT gradient, OOMP2, (MP2 Hessian; deprecated post 5.0) 
  Lucas Lang             : DCDCAS                                        
  Marvin Lechner         : AUTO-CI (C++ implementation), FIC-MRCC        
  Spencer Leger          : CASSCF response                               
  Dagmar Lenk            : GEPOL surface, SMD, ORCA-2-JSON               
  Dimitrios Liakos       : Extrapolation schemes; Compound Job, initial MDCI parallelization 
  Dimitrios Manganas     : Further ROCIS development; embedding schemes. LFT, Crystal Embedding 
  Dimitrios Pantazis     : SARC Basis sets                               
  Anastasios Papadopoulos: AUTO-CI, single reference methods and gradients 
  Taras Petrenko         : pre 6.0 DFT Hessian and TD-DFT gradient, (ASA, deprecated), ECA, 1-Electron XAS/XES, NRVS 
  Peter Pinski           : DLPNO-MP2, DLPNO-MP2 Gradient                 
  Christoph Reimann      : Effective Core Potentials                     
  Marius Retegan         : Local ZFS, SOC                                
  Christoph Riplinger    : Optimizer, TS searches, QM/MM, DLPNO-CCSD(T), (RO)-DLPNO pert. Triples 
  Michael Roemelt        : Original ROCIS implementation                 
  Masaaki Saitow         : Open-shell DLPNO-CCSD energy and density      
  Barbara Sandhoefer     : DKH picture change effects                    
  Kantharuban Sivalingam : CASSCF convergence/infrastructure, NEVPT2 and variants, FIC-MRCI 
  Bernardo de Souza      : ESD, SOC TD-DFT                               
  Georgi L. Stoychev     : AutoAux, RI-MP2 NMR, DLPNO-MP2 response, X2C  
  Van Anh Tran           : RI-MP2 g-tensors                              
  Willem Van den Heuvel  : Paramagnetic NMR                              
  Zikuan Wang            : NOTCH, Electric field optimization            
  Frank Wennmohs         : Technical directorship and infrastructure     
  Hang Xu                : AUTO-CI-Response properties                   
                                                                         
[FACCTs GmbH]                                                            
  Markus Bursch, Miquel Garcia-Rates, Christoph Riplinger, Bernardo de Souza, Georgi L. Stoychev 
                                                                 
  APM, Basis sets (HGBS, AHGBS, def-TZVP (Ac-Lr), def2-XVPD (La-Lu)), CI-OPT, improved COSX, DLPNO-Multilevel,           
  DOCKER, DRACO, updates on ESD, GOAT, IRC, LR-CPCM, MBIS, meta-GGA TD-DFT gradient, ML-optimized integration grids, 
  MM, NACMEs, nearIR, NEB, NEB-TS, NL-DFT gradient (VV10), 2- and 3-layer-ONIOM, interface openCOSMO-RS, QMMM,   
  Crystal-QMMM, SF, symmetry and pop. for TD-DFT, r2SCAN hybrids, SOLVATOR                                   
                                                                         
[Other institutions]                                                     
  V. Asgeirsson          : NEB                                           
  Christoph Bannwarth    : sTDA-DFT, sTD-DFT, PBEh-3c, B97-3c, D3        
  Sebastian Ehlert       : rSCAN, r2SCAN, r2SCAN-3c, D4, dhf basis sets  
  Marvin Friede          : D4 for Fr, Ra, Ac-Lr                          
  Lars Goerigk           : TD-DFT with DH, B97 family of functionals     
  Stefan Grimme          : VdW corrections, initial TS optimization, DFT functionals, gCP, sTDA/sTD-DF 
  Waldemar Hujo          : DFT-NL                                        
  H. Jonsson             : NEB                                           
  Holger Kruse           : gCP                                           
  Marcel Mueller         : wB97X-3c, vDZP basis set                      
  Hagen Neugebauer       : wr2SCAN                                       
  Tobias Risthaus        : range-separated hybrid DFT                    
  Lukas Wittmann         : regularized MP2, r2SCAN double-hybrids, wr2SCAN        
                                                                         
We gratefully acknowledge several colleagues who have allowed us to      
interface, adapt or use parts of their codes:                            
  Ed Valeev, F. Pavosevic, A. Kumar             : LibInt (2-el integral package), F12 methods 
  Garnet Chan, S. Sharma, J. Yang, R. Olivares  : DMRG                   
  Ulf Ekstrom                                   : XCFun DFT Library      
  Mihaly Kallay                                 : mrcc  (arbitrary order and MRCC methods)
  Frank Weinhold                                : gennbo (NPA and NBO analysis)           
  Simon Mueller                                 : openCOSMO-RS                            
  Christopher J. Cramer and Donald G. Truhlar   : smd solvation model                     
  S Lehtola, MJT Oliveira, MAL Marques          : LibXC Library                           
  Liviu Ungur et al                             : ANISO software                          


 Your calculation uses the libint2 library for the computation of 2-el integrals
 For citations please refer to: http://libint.valeyev.net

 Your ORCA version has been built with support for libXC version: 6.2.2
 For citations please refer to: https://libxc.gitlab.io

 This ORCA versions uses:
   CBLAS   interface :  Fast vector & matrix operations
   LAPACKE interface :  Fast linear algebra routines
   SCALAPACK package :  Parallel linear algebra routines
   Shared memory     :  Shared parallel matrices
   BLAS/LAPACK       :  OpenBLAS 0.3.27  USE64BITINT DYNAMIC_ARCH NO_AFFINITY Zen SINGLE_THREADED
        Core in use  :  Zen
   Copyright (c) 2011-2014, The OpenBLAS Project


Your calculation utilizes the geometrical counterpoise correction gCP
Please cite in your paper:
H.Kruse, S. Grimme J.Chem.Phys., 136, (2012), 154101 
   

Your calculation utilizes the atom-pairwise dispersion correction
based on EEQ partial charges (D4)


================================================================================

----- Orbital basis set information -----
Your calculation utilizes the basis: def2-mTZVPP
   Stefan Grimme, Andreas Hansen, Sebastian Ehlert, and Jan-Michael Mewes 
   J. Chem. Phys. 154, 064103 (2021). DOI: 10.1063/5.0040021

----- AuxJ basis set information -----
Your calculation utilizes the auxiliary basis: def2/J
   F. Weigend, Phys. Chem. Chem. Phys. 8, 1057 (2006).

================================================================================
                                        WARNINGS
                       Please study these warnings very carefully!
================================================================================

WARNING: Old DensityContainer found on disk!
         Will remove this file - 
         If you want to keep old densities, please start your calculation with a different basename. 



WARNING: SCAN, rSCAN, or r2SCAN functional requested.
  ===> : libXC variant has now been activated.



================================================================================
                                       INPUT FILE
================================================================================
NAME = sp.inp
|  1> ! r2scan-3c def2/J RI DEFGRID2 scfconv6 printgap
|  2> %output
|  3>     printlevel normal
|  4> end
|  5> * xyz 0 1
|  6> C 3.4975554851 -5.7513e-06 -1.86269e-05
|  7> C 2.8127973854 -1.2015750257 -1.36886e-05
|  8> C 1.4174944707 -1.2260425824 1.885e-06
|  9> C 0.6764133853 -2.44500774 7.378e-06
| 10> C -0.6764159919 -2.445005025 9.8036e-06
| 11> C -1.4174977157 -1.2260398244 7.5066e-06
| 12> C -2.8128004816 -1.2015729434 5.0916e-06
| 13> C -3.4975568007 -2.6011e-06 -1.62695e-05
| 14> C -2.8127967898 1.2015728538 -2.11496e-05
| 15> C -1.4174987873 1.2260457757 -2.6137e-06
| 16> C -0.7076330522 2.0844e-06 4.2144e-06
| 17> C 0.7076307563 1.6268e-06 4.973e-06
| 18> C 1.4175003373 1.2260414598 6.5663e-06
| 19> C 2.812800745 1.2015708665 -3.275e-06
| 20> C 0.6764171572 2.4450096446 1.63737e-05
| 21> C -0.6764113505 2.4450086572 1.25594e-05
| 22> H 4.5781876578 -5.3107e-06 -1.40589e-05
| 23> H 3.3565128718 -2.1356733831 -1.99837e-05
| 24> H 1.2284649056 -3.3745853812 1.39745e-05
| 25> H -1.228462962 -3.3745845054 2.24013e-05
| 26> H -3.3565172491 -2.1356700453 2.4836e-06
| 27> H -4.5781922807 3.0357e-06 -2.17564e-05
| 28> H -3.3565199823 2.1356645 -2.24095e-05
| 29> H 3.3565310062 2.1356578905 5.2981e-06
| 30> H 1.2284701193 3.3745871538 1.61192e-05
| 31> H -1.2284592216 3.3745884608 9.2521e-06
| 32> *
| 33> 
| 34>                          ****END OF INPUT****
================================================================================

                       ****************************
                       * Single Point Calculation *
                       ****************************

---------------------------------
CARTESIAN COORDINATES (ANGSTROEM)
---------------------------------
  C      3.497555   -0.000006   -0.000019
  C      2.812797   -1.201575   -0.000014
  C      1.417494   -1.226043    0.000002
  C      0.676413   -2.445008    0.000007
  C     -0.676416   -2.445005    0.000010
  C     -1.417498   -1.226040    0.000008
  C     -2.812800   -1.201573    0.000005
  C     -3.497557   -0.000003   -0.000016
  C     -2.812797    1.201573   -0.000021
  C     -1.417499    1.226046   -0.000003
  C     -0.707633    0.000002    0.000004
  C      0.707631    0.000002    0.000005
  C      1.417500    1.226041    0.000007
  C      2.812801    1.201571   -0.000003
  C      0.676417    2.445010    0.000016
  C     -0.676411    2.445009    0.000013
  H      4.578188   -0.000005   -0.000014
  H      3.356513   -2.135673   -0.000020
  H      1.228465   -3.374585    0.000014
  H     -1.228463   -3.374585    0.000022
  H     -3.356517   -2.135670    0.000002
  H     -4.578192    0.000003   -0.000022
  H     -3.356520    2.135664   -0.000022
  H      3.356531    2.135658    0.000005
  H      1.228470    3.374587    0.000016
  H     -1.228459    3.374588    0.000009

----------------------------
CARTESIAN COORDINATES (A.U.)
----------------------------
  NO LB      ZA    FRAG     MASS         X           Y           Z
   0 C     6.0000    0    12.011    6.609422   -0.000011   -0.000035
   1 C     6.0000    0    12.011    5.315417   -2.270648   -0.000026
   2 C     6.0000    0    12.011    2.678676   -2.316885    0.000004
   3 C     6.0000    0    12.011    1.278236   -4.620395    0.000014
   4 C     6.0000    0    12.011   -1.278241   -4.620390    0.000019
   5 C     6.0000    0    12.011   -2.678682   -2.316879    0.000014
   6 C     6.0000    0    12.011   -5.315423   -2.270644    0.000010
   7 C     6.0000    0    12.011   -6.609424   -0.000005   -0.000031
   8 C     6.0000    0    12.011   -5.315416    2.270644   -0.000040
   9 C     6.0000    0    12.011   -2.678685    2.316891   -0.000005
  10 C     6.0000    0    12.011   -1.337233    0.000004    0.000008
  11 C     6.0000    0    12.011    1.337228    0.000003    0.000009
  12 C     6.0000    0    12.011    2.678687    2.316883    0.000012
  13 C     6.0000    0    12.011    5.315423    2.270640   -0.000006
  14 C     6.0000    0    12.011    1.278243    4.620399    0.000031
  15 C     6.0000    0    12.011   -1.278232    4.620397    0.000024
  16 H     1.0000    0     1.008    8.651521   -0.000010   -0.000027
  17 H     1.0000    0     1.008    6.342890   -4.035838   -0.000038
  18 H     1.0000    0     1.008    2.321462   -6.377042    0.000026
  19 H     1.0000    0     1.008   -2.321459   -6.377041    0.000042
  20 H     1.0000    0     1.008   -6.342898   -4.035831    0.000005
  21 H     1.0000    0     1.008   -8.651530    0.000006   -0.000041
  22 H     1.0000    0     1.008   -6.342904    4.035821   -0.000042
  23 H     1.0000    0     1.008    6.342924    4.035809    0.000010
  24 H     1.0000    0     1.008    2.321472    6.377046    0.000030
  25 H     1.0000    0     1.008   -2.321451    6.377048    0.000017

--------------------------------
INTERNAL COORDINATES (ANGSTROEM)
--------------------------------
 C      0   0   0     0.000000000000     0.00000000     0.00000000
 C      1   0   0     1.382990374627     0.00000000     0.00000000
 C      2   1   0     1.395517425668   120.68284759     0.00000000
 C      3   2   1     1.426561330827   122.30251099   179.99999829
 C      4   3   2     1.352829377205   121.29777969   180.00063090
 C      5   4   3     1.426561699202   121.29803067     0.00000000
 C      6   5   4     1.395517264959   122.30250437   179.99976471
 C      7   6   5     1.382990420971   120.68273396   180.00092373
 C      8   7   6     1.382996690658   120.64368142     0.00000000
 C      9   8   7     1.395512608338   120.68301338     0.00000000
 C      6   5   4     1.416716839256   118.63171905     0.00000000
 C     11   6   5     1.415263808500   120.07034674     0.00000000
 C     12  11   6     1.416717506821   120.07056092   180.00022831
 C      1   2   3     1.382995091376   120.64380899     0.00000000
 C     13  12  11     1.426565005697   118.63151716     0.00000000
 C     15  13  12     1.352828507706   121.29786158     0.00000000
 H      1   2   3     1.080632172710   119.67825464   179.99898254
 H      2   1   3     1.080817408949   120.11914526   180.00011761
 H      4   3   2     1.081145444484   117.99715172     0.00000000
 H      5   4   3     1.081144702496   120.70458152   180.00051973
 H      7   6   5     1.080816968337   119.19812695     0.00000000
 H      8   7   6     1.080635480029   119.67844415   179.99975969
 H      9   8   7     1.080815485439   120.11867121   180.00094891
 H     14   1   2     1.080815046816   120.11843767   179.99922896
 H     15  13  12     1.081146067178   117.99707372   180.00008306
 H     16  15  13     1.081145440382   120.70468700   180.00066711

---------------------------
INTERNAL COORDINATES (A.U.)
---------------------------
 C      0   0   0     0.000000000000     0.00000000     0.00000000
 C      1   0   0     2.613473053894     0.00000000     0.00000000
 C      2   1   0     2.637145749628   120.68284759     0.00000000
 C      3   2   1     2.695810228505   122.30251099   179.99999829
 C      4   3   2     2.556477028841   121.29777969   180.00063090
 C      5   4   3     2.695810924633   121.29803067     0.00000000
 C      6   5   4     2.637145445932   122.30250437   179.99976471
 C      7   6   5     2.613473141472   120.68273396   180.00092373
 C      8   7   6     2.613484989462   120.64368142     0.00000000
 C      9   8   7     2.637136646193   120.68301338     0.00000000
 C      6   5   4     2.677206835508   118.63171905     0.00000000
 C     11   6   5     2.674461005316   120.07034674     0.00000000
 C     12  11   6     2.677208097024   120.07056092   180.00022831
 C      1   2   3     2.613481967257   120.64380899     0.00000000
 C     13  12  11     2.695817173002   118.63151716     0.00000000
 C     15  13  12     2.556475385725   121.29786158     0.00000000
 H      1   2   3     2.042098857926   119.67825464   179.99898254
 H      2   1   3     2.042448903689   120.11914526   180.00011761
 H      4   3   2     2.043068801011   117.99715172     0.00000000
 H      5   4   3     2.043067398858   120.70458152   180.00051973
 H      7   6   5     2.042448071052   119.19812695     0.00000000
 H      8   7   6     2.042105107853   119.67844415   179.99975969
 H      9   8   7     2.042445268781   120.11867121   180.00094891
 H     14   1   2     2.042444439903   120.11843767   179.99922896
 H     15  13  12     2.043069977732   117.99707372   180.00008306
 H     16  15  13     2.043068793259   120.70468700   180.00066711

---------------------
BASIS SET INFORMATION
---------------------
There are 2 groups of distinct atoms

 Group   1 Type C   : 11s6p1d contracted to 5s3p1d pattern {62111/411/1}
 Group   2 Type H   : 4s1p contracted to 2s1p pattern {31/1}

Atom   0C    basis set group =>   1
Atom   1C    basis set group =>   1
Atom   2C    basis set group =>   1
Atom   3C    basis set group =>   1
Atom   4C    basis set group =>   1
Atom   5C    basis set group =>   1
Atom   6C    basis set group =>   1
Atom   7C    basis set group =>   1
Atom   8C    basis set group =>   1
Atom   9C    basis set group =>   1
Atom  10C    basis set group =>   1
Atom  11C    basis set group =>   1
Atom  12C    basis set group =>   1
Atom  13C    basis set group =>   1
Atom  14C    basis set group =>   1
Atom  15C    basis set group =>   1
Atom  16H    basis set group =>   2
Atom  17H    basis set group =>   2
Atom  18H    basis set group =>   2
Atom  19H    basis set group =>   2
Atom  20H    basis set group =>   2
Atom  21H    basis set group =>   2
Atom  22H    basis set group =>   2
Atom  23H    basis set group =>   2
Atom  24H    basis set group =>   2
Atom  25H    basis set group =>   2
---------------------------------
AUXILIARY/J BASIS SET INFORMATION
---------------------------------
There are 2 groups of distinct atoms

 Group   1 Type C   : 12s5p4d2f1g contracted to 6s4p3d1f1g pattern {711111/2111/211/2/1}
 Group   2 Type H   : 5s2p1d contracted to 3s1p1d pattern {311/2/1}

Atom   0C    basis set group =>   1
Atom   1C    basis set group =>   1
Atom   2C    basis set group =>   1
Atom   3C    basis set group =>   1
Atom   4C    basis set group =>   1
Atom   5C    basis set group =>   1
Atom   6C    basis set group =>   1
Atom   7C    basis set group =>   1
Atom   8C    basis set group =>   1
Atom   9C    basis set group =>   1
Atom  10C    basis set group =>   1
Atom  11C    basis set group =>   1
Atom  12C    basis set group =>   1
Atom  13C    basis set group =>   1
Atom  14C    basis set group =>   1
Atom  15C    basis set group =>   1
Atom  16H    basis set group =>   2
Atom  17H    basis set group =>   2
Atom  18H    basis set group =>   2
Atom  19H    basis set group =>   2
Atom  20H    basis set group =>   2
Atom  21H    basis set group =>   2
Atom  22H    basis set group =>   2
Atom  23H    basis set group =>   2
Atom  24H    basis set group =>   2
Atom  25H    basis set group =>   2

Checking for AutoStart:
The File: sp.gbw exists
Trying to determine its content:
     ... Fine, the file contains calculation information
     ... Fine, the calculation information was read
     ... Fine, the file contains a basis set
     ... Fine, the basis set was read
     ... Fine, the file contains a geometry
     ... Fine, the geometry was read
     ... Fine, the file contains a set of orbitals
     ... Fine, the orbitals can be read
     => possible old guess file was deleted
     => GBW file was renamed to GES file
     => GES file is set as startup file
     => Guess is set to MORead
     ... now leaving AutoStart

------------------------------------------------------------------------------
                             ORCA STARTUP CALCULATIONS
                           -- RI-GTO INTEGRALS CHOSEN --
------------------------------------------------------------------------------
------------------------------------------------------------------------------
                   ___                                                        
                  /   \      - P O W E R E D   B Y -                         
                 /     \                                                     
                 |  |  |   _    _      __       _____    __    __             
                 |  |  |  | |  | |    /  \     |  _  \  |  |  /  |          
                  \  \/   | |  | |   /    \    | | | |  |  | /  /          
                 / \  \   | |__| |  /  /\  \   | |_| |  |  |/  /          
                |  |  |   |  __  | /  /__\  \  |    /   |      \           
                |  |  |   | |  | | |   __   |  |    \   |  |\   \          
                \     /   | |  | | |  |  |  |  | |\  \  |  | \   \       
                 \___/    |_|  |_| |__|  |__|  |_| \__\ |__|  \__/        
                                                                              
                      - O R C A' S   B I G   F R I E N D -                    
                                      &                                       
                       - I N T E G R A L  F E E D E R -                       
                                                                              
 v1 FN, 2020, v2 2021, v3 2022-2024                                           
------------------------------------------------------------------------------


----------------------
SHARK INTEGRAL PACKAGE
----------------------

Number of atoms                             ...     26
Number of basis functions                   ...    354
Number of shells                            ...    174
Maximum angular momentum                    ...      2
Integral batch strategy                     ... SHARK/LIBINT Hybrid
RI-J (if used) integral strategy            ... SPLIT-RIJ (Revised 2003 algorithm where possible)
Printlevel                                  ...      1
Contraction scheme used                     ... SEGMENTED contraction
Prescreening option                         ... SCHWARTZ
   Thresh                                   ... 1.000e-10
   Tcut                                     ... 1.000e-11
   Tpresel                                  ... 1.000e-11 
Coulomb Range Separation                    ... NOT USED
Exchange Range Separation                   ... NOT USED
Multipole approximations                    ... NOT USED
Finite Nucleus Model                        ... NOT USED
CABS basis                                  ... NOT available
Auxiliary Coulomb fitting basis             ... AVAILABLE
   # of basis functions in Aux-J            ...    894
   # of shells in Aux-J                     ...    290
   Maximum angular momentum in Aux-J        ...      4
Auxiliary J/K fitting basis                 ... NOT available
Auxiliary Correlation fitting basis         ... NOT available
Auxiliary 'external' fitting basis          ... NOT available

Checking pre-screening integrals            ... done (  0.0 sec) Dimension = 174
Check shell pair data                       ... done (  0.0 sec)
Shell pair information
Shell pair cut-off parameter TPreSel        ...   1.0e-11
Total number of shell pairs                 ...     15225
Shell pairs after pre-screening             ...     12474
Total number of primitive shell pairs       ...     57673
Primitive shell pairs kept                  ...     31149
          la=0 lb=0:   3962 shell pairs
          la=1 lb=0:   4884 shell pairs
          la=1 lb=1:   1515 shell pairs
          la=2 lb=0:   1230 shell pairs
          la=2 lb=1:    776 shell pairs
          la=2 lb=2:    107 shell pairs

Calculating one electron integrals          ... done (  0.0 sec)
Calculating RI/J V-Matrix + Cholesky decomp.... done (  0.0 sec)
Calculating Nuclear repulsion               ... done (  0.0 sec) ENN=    972.566766310281 Eh

Diagonalization of the overlap matrix:
Smallest eigenvalue                        ... 7.971e-06
Time for diagonalization                   ...    0.009 sec
Threshold for overlap eigenvalues          ... 1.000e-07
Number of eigenvalues below threshold      ... 0
Time for construction of square roots      ...    0.004 sec
Total time needed                          ...    0.013 sec

-------------------
DFT GRID GENERATION
-------------------

General Integration Accuracy     IntAcc      ... 4.388
Radial Grid Type                 RadialGrid  ... OptM3 with GC (2021)
Angular Grid (max. ang.)         AngularGrid ... 4 (Lebedev-302)
Angular grid pruning method      GridPruning ... 4 (adaptive)
Weight generation scheme         WeightScheme... mBecke (2022)
Basis function cutoff            BFCut       ... 1.0000e-10
Integration weight cutoff        WCut        ... 1.0000e-14
Partially contracted basis set               ... off
Rotationally invariant grid construction     ... off
Angular grids for H and He will be reduced by one unit

Total number of grid points                  ...   127216
Total number of batches                      ...     2004
Average number of points per batch           ...       63
Average number of grid points per atom       ...     4893
Initializing property integral containers    ... done (  0.0 sec)

SHARK setup successfully completed in   1.1 seconds

Maximum memory used throughout the entire STARTUP-calculation: 63.8 MB
-------------------------------------------------------------------------------
                                 ORCA GUESS
                   Start orbitals & Density for SCF / CASSCF
-------------------------------------------------------------------------------

------------
SCF SETTINGS
------------
Hamiltonian:
 Density Functional     Method          .... DFT(GTOs)
  Functional kind                       .... Exchange
  Functional name                       .... Re-regularized SCAN exchange by Furness et al
  Functional family                     .... MGGA
  Functional refs                              
    [ 0] J. W. Furness, A. D. Kaplan, J. Ning, J. P. Perdew, and J. Sun.,  J. Phys. Chem. Lett. 11, 8208-8215 (2020), doi: 10.1021/acs.jpclett.0c02405
    [ 1] J. W. Furness, A. D. Kaplan, J. Ning, J. P. Perdew, and J. Sun.,  J. Phys. Chem. Lett. 11, 9248-9248 (2020), doi: 10.1021/acs.jpclett.0c03077
  Functional external parameters        .... 6
    Parameter  0 _c1        =  6.670000e-01 : c1 parameter        
    Parameter  1 _c2        =  8.000000e-01 : c2 parameter        
    Parameter  2 _d         =  1.240000e+00 : d parameter         
    Parameter  3 _k1        =  6.500000e-02 : k1 parameter        
    Parameter  4 _eta       =  1.000000e-03 : eta parameter       
    Parameter  5 _dp2       =  3.610000e-01 : dp2 parameter       
  Functional kind                       .... Correlation
  Functional name                       .... Re-regularized SCAN correlation by Furness et al
  Functional family                     .... MGGA
  Functional refs                              
    [ 0] J. W. Furness, A. D. Kaplan, J. Ning, J. P. Perdew, and J. Sun.,  J. Phys. Chem. Lett. 11, 8208-8215 (2020), doi: 10.1021/acs.jpclett.0c02405
    [ 1] J. W. Furness, A. D. Kaplan, J. Ning, J. P. Perdew, and J. Sun.,  J. Phys. Chem. Lett. 11, 9248-9248 (2020), doi: 10.1021/acs.jpclett.0c03077
  Functional external parameters        .... 1
    Parameter  0 _eta       =  1.000000e-03 : Regularization parameter
 Gradients option       PostSCFGGA      .... off
 RI-approximation to the Coulomb term is turned on
   Number of AuxJ basis functions       .... 894


General Settings:
 Integral files         IntName         .... sp
 Hartree-Fock type      HFTyp           .... RHF
 Total Charge           Charge          ....    0
 Multiplicity           Mult            ....    1
 Number of Electrons    NEL             ....  106
 Basis Dimension        Dim             ....  354
 Nuclear Repulsion      ENuc            ....    972.5667663103 Eh

Convergence Acceleration:
 AO-DIIS                CNVDIIS         .... on
   Start iteration      DIISMaxIt       ....    12
   Startup error        DIISStart       ....  0.200000
   # of expansion vecs  DIISMaxEq       ....     5
   Bias factor          DIISBfac        ....   1.050
   Max. coefficient     DIISMaxC        ....  10.000
 MO-DIIS                CNVKDIIS        .... off
 Trust-Rad. Augm. Hess. CNVTRAH         .... auto
   Auto Start mean grad. ratio tolernc. ....  1.125000
   Auto Start start iteration           ....     1
   Auto Start num. interpolation iter.  ....    10
   Max. Number of Micro iterations      ....    24
   Max. Number of Macro iterations      .... Maxiter - #DIIS iter
   Number of Davidson start vectors     ....     2
   Converg. threshold    (grad. norm)   ....   3.330e-04
   Grad. Scal. Fac. for Micro threshold ....   0.100
   Minimum threshold for Micro iter.    ....   1.000e-02
   NR start threshold (gradient norm)   ....   1.000e-04
   Initial trust radius                 ....   0.400
   Minimum AH scaling param. (alpha)    ....   1.000
   Maximum AH scaling param. (alpha)    .... 1000.000
   Quad. conv. algorithm                .... NR
   White noise on init. David. guess    .... on
   Maximum white noise                  ....   0.010
   Pseudo random numbers                .... off
   Inactive MOs                         .... canonical
   Orbital update algorithm             .... Taylor
   Preconditioner                       .... Diag
   Full preconditioner red. dimension   ....   250
   COSX micro iterations for RIJONX calc.... off
 SOSCF                  CNVSOSCF        .... on
   Start iteration      SOSCFMaxIt      ....   150
   Startup grad/error   SOSCFStart      ....  0.003300
   Hessian update       SOSCFHessUp     .... L-BFGS
 Level Shifting         CNVShift        .... on
   Level shift para.    LevelShift      ....    0.2500
   Turn off err/grad.   ShiftErr        ....    0.0010
 Zerner damping         CNVZerner       .... off
 Static damping         CNVDamp         .... on
   Fraction old density DampFac         ....    0.7000
   Max. Damping (<1)    DampMax         ....    0.9800
   Min. Damping (>=0)   DampMin         ....    0.0000
   Turn off err/grad.   DampErr         ....    0.1000

SCF Procedure:
 Maximum # iterations   MaxIter         ....   125
 SCF integral mode      SCFMode         .... Direct
   Integral package                     .... SHARK and LIBINT hybrid scheme
 Reset frequency        DirectResetFreq ....    20
 Integral Threshold     Thresh          ....  1.000e-10 Eh
 Primitive CutOff       TCut            ....  1.000e-11 Eh

Convergence Tolerance:
 Convergence Check Mode ConvCheckMode   .... Total+1el-Energy
 Convergence forced     ConvForced      .... 0
 Energy Change          TolE            ....  1.000e-06 Eh
 1-El. energy change                    ....  1.000e-03 Eh
 Orbital Gradient       TolG            ....  3.330e-04
 Orbital Rotation angle TolX            ....  3.330e-04
 DIIS Error             TolErr          ....  1.000e-06

---------------------
INITIAL GUESS: MOREAD
---------------------
Guess MOs are being read from file: sp.ges
Input Geometry matches current geometry (good)
Atom 0: N(Shells)= 9 and 6 - projection required
Input basis set needs projection
NBasis(read)= 244
NBasis(calc)= 354
Basis set overlap was calculated
Using GuessMode=FMatrix for the initial guess
C*T matrix was formed
Effective Fockian was calculated
Effective Fockian was diagonalized
Initial density was built
                      ------------------
                      INITIAL GUESS DONE (   0.0 sec)
                      ------------------
             **** ENERGY FILE WAS UPDATED (sp.en.tmp) ****
Finished Guess after   0.1 sec
Maximum memory used throughout the entire GUESS-calculation: 34.2 MB

-------------------------------------------------------------------------------------------
                                      ORCA LEAN-SCF
                              memory conserving SCF solver
-------------------------------------------------------------------------------------------

----------------------------------------D-I-I-S--------------------------------------------
Iteration    Energy (Eh)           Delta-E    RMSDP     MaxDP     DIISErr   Damp  Time(sec)
-------------------------------------------------------------------------------------------
               ***  Starting incremental Fock matrix formation  ***
    1    -615.3452351582899382     0.00e+00  5.53e-02  2.75e+00  2.70e-01  0.700   3.5
    2    -615.4219923501929088    -7.68e-02  4.28e-02  2.09e+00  1.90e-01  0.700   3.0
                               ***Turning on AO-DIIS***
    3    -615.4760478208503400    -5.41e-02  3.07e-02  1.49e+00  1.33e-01  0.700   2.9
    4    -615.5139483378956129    -3.79e-02  2.17e-02  1.05e+00  9.29e-02  0.700   2.9
    5    -615.5405148901314760    -2.66e-02  5.07e-02  2.46e+00  6.51e-02  0.000   2.8
                              *** Initializing SOSCF ***
---------------------------------------S-O-S-C-F--------------------------------------
Iteration    Energy (Eh)           Delta-E    RMSDP     MaxDP     MaxGrad    Time(sec)
--------------------------------------------------------------------------------------
    6    -615.6026216574817909    -6.21e-02  7.76e-05  3.01e-03  1.63e-04     2.9
               *** Restarting incremental Fock matrix formation ***
    7    -615.6026219664428254    -3.09e-07  8.16e-05  4.41e-03  1.14e-04     3.5
    8    -615.6026202768208577     1.69e-06  3.52e-05  1.47e-03  2.45e-04     2.4
    9    -615.6026223088430243    -2.03e-06  1.34e-05  6.69e-04  1.41e-05     2.3
                  *** Gradient check signals convergence ***

               *****************************************************
               *                     SUCCESS                       *
               *           SCF CONVERGED AFTER   9 CYCLES          *
               *****************************************************

             **** ENERGY FILE WAS UPDATED (sp.en.tmp) ****

----------------
TOTAL SCF ENERGY
----------------

Total Energy       :       -615.60262230884302 Eh          -16751.39898 eV

Components:
Nuclear Repulsion  :        972.56676631028051 Eh           26464.88716 eV
Electronic Energy  :      -1588.16938861912354 Eh          -43216.28614 eV
One Electron Energy:      -2760.54791342178623 Eh          -75118.32767 eV
Two Electron Energy:       1172.37852480266270 Eh           31902.04153 eV

Virial components:
Potential Energy   :      -1228.79649459316920 Eh          -33437.25253 eV
Kinetic Energy     :        613.19387228432618 Eh           16685.85356 eV
Virial Ratio       :          2.00392820302581

DFT components:
N(Alpha)           :       53.000053642081 electrons
N(Beta)            :       53.000053642081 electrons
N(Total)           :      106.000107284162 electrons
E(X)               :      -87.015283885877 Eh       
E(C)               :       -3.464516787418 Eh       
E(XC)              :      -90.479800673295 Eh       

---------------
SCF CONVERGENCE
---------------

  Last Energy change         ...    2.0320e-06  Tolerance :   1.0000e-06
  Last MAX-Density change    ...    6.6857e-04  Tolerance :   1.0000e-05
  Last RMS-Density change    ...    1.3407e-05  Tolerance :   1.0000e-06
  Last DIIS Error            ...    1.6287e-04  Tolerance :   1.0000e-06
  Last Orbital Gradient      ...    1.4066e-05  Tolerance :   3.3300e-04
  Last Orbital Rotation      ...    5.4745e-05  Tolerance :   3.3300e-04


----------------
ORBITAL ENERGIES
----------------

  NO   OCC          E(Eh)            E(eV) 
   0   2.0000     -10.049113      -273.4503 
   1   2.0000     -10.049110      -273.4502 
   2   2.0000     -10.049058      -273.4488 
   3   2.0000     -10.049047      -273.4485 
   4   2.0000     -10.048192      -273.4252 
   5   2.0000     -10.047859      -273.4161 
   6   2.0000     -10.041071      -273.2314 
   7   2.0000     -10.041069      -273.2314 
   8   2.0000     -10.040454      -273.2146 
   9   2.0000     -10.040453      -273.2146 
  10   2.0000     -10.039537      -273.1897 
  11   2.0000     -10.039534      -273.1896 
  12   2.0000     -10.039037      -273.1761 
  13   2.0000     -10.039035      -273.1760 
  14   2.0000     -10.038809      -273.1699 
  15   2.0000     -10.038809      -273.1699 
  16   2.0000      -0.867943       -23.6179 
  17   2.0000      -0.825571       -22.4649 
  18   2.0000      -0.804868       -21.9016 
  19   2.0000      -0.770945       -20.9785 
  20   2.0000      -0.740159       -20.1407 
  21   2.0000      -0.721383       -19.6298 
  22   2.0000      -0.704195       -19.1621 
  23   2.0000      -0.682703       -18.5773 
  24   2.0000      -0.601552       -16.3691 
  25   2.0000      -0.601296       -16.3621 
  26   2.0000      -0.598012       -16.2727 
  27   2.0000      -0.582582       -15.8529 
  28   2.0000      -0.517155       -14.0725 
  29   2.0000      -0.499379       -13.5888 
  30   2.0000      -0.489513       -13.3203 
  31   2.0000      -0.477677       -12.9983 
  32   2.0000      -0.463941       -12.6245 
  33   2.0000      -0.443771       -12.0756 
  34   2.0000      -0.412853       -11.2343 
  35   2.0000      -0.407114       -11.0781 
  36   2.0000      -0.406643       -11.0653 
  37   2.0000      -0.393555       -10.7092 
  38   2.0000      -0.389286       -10.5930 
  39   2.0000      -0.371099       -10.0981 
  40   2.0000      -0.369249       -10.0478 
  41   2.0000      -0.361872        -9.8470 
  42   2.0000      -0.345717        -9.4074 
  43   2.0000      -0.338197        -9.2028 
  44   2.0000      -0.336817        -9.1653 
  45   2.0000      -0.325990        -8.8707 
  46   2.0000      -0.300244        -8.1701 
  47   2.0000      -0.291356        -7.9282 
  48   2.0000      -0.283695        -7.7197 
  49   2.0000      -0.261865        -7.1257 
  50   2.0000      -0.243121        -6.6157 
  51   2.0000      -0.222482        -6.0540 
  52   2.0000      -0.190352        -5.1798 
  53   0.0000      -0.084099        -2.2884 
  54   0.0000      -0.052864        -1.4385 
  55   0.0000      -0.037289        -1.0147 
  56   0.0000      -0.014314        -0.3895 
  57   0.0000       0.024637         0.6704 
  58   0.0000       0.069377         1.8878 
  59   0.0000       0.069982         1.9043 
  60   0.0000       0.082711         2.2507 
  61   0.0000       0.083664         2.2766 
  62   0.0000       0.107971         2.9381 
  63   0.0000       0.109576         2.9817 
*Only the first 10 virtual orbitals were printed.

                    ********************************
                    * MULLIKEN POPULATION ANALYSIS *
                    ********************************

-----------------------
MULLIKEN ATOMIC CHARGES
-----------------------
   0 C :   -0.170489
   1 C :   -0.203450
   2 C :    0.165329
   3 C :   -0.303941
   4 C :   -0.303963
   5 C :    0.165366
   6 C :   -0.203448
   7 C :   -0.170497
   8 C :   -0.203432
   9 C :    0.165251
  10 C :    0.136213
  11 C :    0.136094
  12 C :    0.165332
  13 C :   -0.203451
  14 C :   -0.303936
  15 C :   -0.303902
  16 H :    0.144596
  17 H :    0.144064
  18 H :    0.142864
  19 H :    0.142867
  20 H :    0.144065
  21 H :    0.144595
  22 H :    0.144066
  23 H :    0.144065
  24 H :    0.142867
  25 H :    0.142870
Sum of atomic charges:    0.0000000

--------------------------------
MULLIKEN REDUCED ORBITAL CHARGES
--------------------------------
  0 C s       :     3.207452  s :     3.207452
      pz      :     0.984508  p :     2.924977
      px      :     1.019224
      py      :     0.921245
      dz2     :     0.003279  d :     0.038060
      dxz     :     0.002288
      dyz     :     0.007458
      dx2y2   :     0.013491
      dxy     :     0.011543

  1 C s       :     3.181422  s :     3.181422
      pz      :     1.004556  p :     2.984777
      px      :     0.956215
      py      :     1.024007
      dz2     :     0.003280  d :     0.037250
      dxz     :     0.005395
      dyz     :     0.003661
      dx2y2   :     0.012379
      dxy     :     0.012535

  2 C s       :     3.160157  s :     3.160157
      pz      :     0.961320  p :     2.626162
      px      :     0.826349
      py      :     0.838493
      dz2     :     0.003773  d :     0.048351
      dxz     :     0.007416
      dyz     :     0.006133
      dx2y2   :     0.014991
      dxy     :     0.016038

  3 C s       :     3.265355  s :     3.265355
      pz      :     0.996123  p :     3.001051
      px      :     0.991568
      py      :     1.013359
      dz2     :     0.003265  d :     0.037535
      dxz     :     0.006625
      dyz     :     0.002801
      dx2y2   :     0.011019
      dxy     :     0.013825

  4 C s       :     3.265348  s :     3.265348
      pz      :     0.996123  p :     3.001080
      px      :     0.991578
      py      :     1.013378
      dz2     :     0.003265  d :     0.037535
      dxz     :     0.006625
      dyz     :     0.002801
      dx2y2   :     0.011019
      dxy     :     0.013825

  5 C s       :     3.160127  s :     3.160127
      pz      :     0.961321  p :     2.626156
      px      :     0.826339
      py      :     0.838495
      dz2     :     0.003773  d :     0.048351
      dxz     :     0.007416
      dyz     :     0.006133
      dx2y2   :     0.014991
      dxy     :     0.016038

  6 C s       :     3.181417  s :     3.181417
      pz      :     1.004555  p :     2.984781
      px      :     0.956217
      py      :     1.024009
      dz2     :     0.003280  d :     0.037250
      dxz     :     0.005395
      dyz     :     0.003661
      dx2y2   :     0.012379
      dxy     :     0.012535

  7 C s       :     3.207462  s :     3.207462
      pz      :     0.984509  p :     2.924975
      px      :     1.019220
      py      :     0.921246
      dz2     :     0.003279  d :     0.038060
      dxz     :     0.002288
      dyz     :     0.007458
      dx2y2   :     0.013491
      dxy     :     0.011543

  8 C s       :     3.181394  s :     3.181394
      pz      :     1.004556  p :     2.984787
      px      :     0.956219
      py      :     1.024012
      dz2     :     0.003280  d :     0.037250
      dxz     :     0.005395
      dyz     :     0.003660
      dx2y2   :     0.012379
      dxy     :     0.012535

  9 C s       :     3.160201  s :     3.160201
      pz      :     0.961321  p :     2.626196
      px      :     0.826377
      py      :     0.838498
      dz2     :     0.003773  d :     0.048351
      dxz     :     0.007416
      dyz     :     0.006133
      dx2y2   :     0.014991
      dxy     :     0.016038

 10 C s       :     3.457674  s :     3.457674
      pz      :     0.984333  p :     2.359276
      px      :     0.614914
      py      :     0.760028
      dz2     :     0.003769  d :     0.046837
      dxz     :     0.006344
      dyz     :     0.005983
      dx2y2   :     0.015474
      dxy     :     0.015266

 11 C s       :     3.457780  s :     3.457780
      pz      :     0.984334  p :     2.359289
      px      :     0.614967
      py      :     0.759989
      dz2     :     0.003769  d :     0.046837
      dxz     :     0.006344
      dyz     :     0.005983
      dx2y2   :     0.015474
      dxy     :     0.015267

 12 C s       :     3.160135  s :     3.160135
      pz      :     0.961321  p :     2.626182
      px      :     0.826370
      py      :     0.838491
      dz2     :     0.003773  d :     0.048351
      dxz     :     0.007416
      dyz     :     0.006133
      dx2y2   :     0.014991
      dxy     :     0.016038

 13 C s       :     3.181413  s :     3.181413
      pz      :     1.004556  p :     2.984787
      px      :     0.956223
      py      :     1.024008
      dz2     :     0.003280  d :     0.037250
      dxz     :     0.005395
      dyz     :     0.003660
      dx2y2   :     0.012379
      dxy     :     0.012535

 14 C s       :     3.265334  s :     3.265334
      pz      :     0.996123  p :     3.001066
      px      :     0.991581
      py      :     1.013363
      dz2     :     0.003265  d :     0.037535
      dxz     :     0.006625
      dyz     :     0.002801
      dx2y2   :     0.011019
      dxy     :     0.013825

 15 C s       :     3.265289  s :     3.265289
      pz      :     0.996124  p :     3.001078
      px      :     0.991575
      py      :     1.013379
      dz2     :     0.003265  d :     0.037535
      dxz     :     0.006625
      dyz     :     0.002801
      dx2y2   :     0.011019
      dxy     :     0.013825

 16 H s       :     0.835911  s :     0.835911
      pz      :     0.004134  p :     0.019493
      px      :     0.012236
      py      :     0.003123

 17 H s       :     0.836316  s :     0.836316
      pz      :     0.004277  p :     0.019620
      px      :     0.005480
      py      :     0.009863

 18 H s       :     0.837575  s :     0.837575
      pz      :     0.004167  p :     0.019561
      px      :     0.005375
      py      :     0.010018

 19 H s       :     0.837572  s :     0.837572
      pz      :     0.004167  p :     0.019561
      px      :     0.005375
      py      :     0.010018

 20 H s       :     0.836315  s :     0.836315
      pz      :     0.004277  p :     0.019620
      px      :     0.005480
      py      :     0.009863

 21 H s       :     0.835912  s :     0.835912
      pz      :     0.004133  p :     0.019493
      px      :     0.012236
      py      :     0.003123

 22 H s       :     0.836314  s :     0.836314
      pz      :     0.004277  p :     0.019620
      px      :     0.005480
      py      :     0.009863

 23 H s       :     0.836315  s :     0.836315
      pz      :     0.004277  p :     0.019620
      px      :     0.005481
      py      :     0.009863

 24 H s       :     0.837573  s :     0.837573
      pz      :     0.004167  p :     0.019560
      px      :     0.005375
      py      :     0.010018

 25 H s       :     0.837570  s :     0.837570
      pz      :     0.004167  p :     0.019560
      px      :     0.005375
      py      :     0.010018


------------------------
MULLIKEN OVERLAP CHARGES
------------------------
B(  0-C ,  1-C ) :   0.5877 B(  0-C ,  2-C ) :   0.1136 B(  0-C ,  3-C ) :   0.0633 
B(  0-C , 10-C ) :  -0.0884 B(  0-C , 11-C ) :  -0.1251 B(  0-C , 12-C ) :   0.1135 
B(  0-C , 13-C ) :   0.5877 B(  0-C , 14-C ) :   0.0633 B(  0-C , 16-H ) :   0.7835 
B(  1-C ,  2-C ) :   0.2627 B(  1-C ,  3-C ) :  -0.6276 B(  1-C ,  4-C ) :   0.1024 
B(  1-C , 10-C ) :   0.3524 B(  1-C , 11-C ) :   0.1341 B(  1-C , 12-C ) :  -0.4839 
B(  1-C , 13-C ) :   0.0940 B(  1-C , 17-H ) :   0.7805 B(  2-C ,  3-C ) :   0.1059 
B(  2-C ,  4-C ) :   0.3300 B(  2-C ,  5-C ) :  -0.9068 B(  2-C ,  9-C ) :   0.6310 
B(  2-C , 10-C ) :  -0.2845 B(  2-C , 11-C ) :  -0.0516 B(  2-C , 12-C ) :  -1.1528 
B(  2-C , 13-C ) :  -0.4840 B(  2-C , 14-C ) :   0.3082 B(  2-C , 15-C ) :  -0.0999 
B(  2-C , 17-H ) :  -0.0539 B(  3-C ,  4-C ) :   0.0780 B(  3-C ,  5-C ) :   0.3298 
B(  3-C ,  6-C ) :   0.1025 B(  3-C ,  9-C ) :  -0.1000 B(  3-C , 10-C ) :  -0.9870 
B(  3-C , 11-C ) :   0.8001 B(  3-C , 12-C ) :   0.3082 B(  3-C , 18-H ) :   0.7341 
B(  4-C ,  5-C ) :   0.1062 B(  4-C ,  6-C ) :  -0.6278 B(  4-C ,  7-C ) :   0.0633 
B(  4-C ,  9-C ) :   0.3083 B(  4-C , 10-C ) :   0.7998 B(  4-C , 11-C ) :  -0.9873 
B(  4-C , 12-C ) :  -0.0999 B(  4-C , 19-H ) :   0.7341 B(  5-C ,  6-C ) :   0.2628 
B(  5-C ,  7-C ) :   0.1136 B(  5-C ,  8-C ) :  -0.4841 B(  5-C ,  9-C ) :  -1.1524 
B(  5-C , 10-C ) :  -0.0507 B(  5-C , 11-C ) :  -0.2846 B(  5-C , 12-C ) :   0.6309 
B(  5-C , 14-C ) :  -0.0999 B(  5-C , 15-C ) :   0.3082 B(  5-C , 20-H ) :  -0.0539 
B(  6-C ,  7-C ) :   0.5876 B(  6-C ,  8-C ) :   0.0941 B(  6-C ,  9-C ) :  -0.4842 
B(  6-C , 10-C ) :   0.1342 B(  6-C , 11-C ) :   0.3525 B(  6-C , 20-H ) :   0.7805 
B(  7-C ,  8-C ) :   0.5876 B(  7-C ,  9-C ) :   0.1137 B(  7-C , 10-C ) :  -0.1252 
B(  7-C , 11-C ) :  -0.0884 B(  7-C , 15-C ) :   0.0633 B(  7-C , 21-H ) :   0.7835 
B(  8-C ,  9-C ) :   0.2626 B(  8-C , 10-C ) :   0.1343 B(  8-C , 11-C ) :   0.3524 
B(  8-C , 14-C ) :   0.1024 B(  8-C , 15-C ) :  -0.6276 B(  8-C , 22-H ) :   0.7805 
B(  9-C , 10-C ) :  -0.0507 B(  9-C , 11-C ) :  -0.2850 B(  9-C , 12-C ) :  -0.9066 
B(  9-C , 14-C ) :   0.3296 B(  9-C , 15-C ) :   0.1066 B(  9-C , 22-H ) :  -0.0539 
B( 10-C , 11-C ) :  -2.8276 B( 10-C , 12-C ) :  -0.2845 B( 10-C , 13-C ) :   0.3523 
B( 10-C , 14-C ) :  -0.9867 B( 10-C , 15-C ) :   0.7994 B( 11-C , 12-C ) :  -0.0505 
B( 11-C , 13-C ) :   0.1341 B( 11-C , 14-C ) :   0.7994 B( 11-C , 15-C ) :  -0.9867 
B( 12-C , 13-C ) :   0.2630 B( 12-C , 14-C ) :   0.1064 B( 12-C , 15-C ) :   0.3295 
B( 12-C , 23-H ) :  -0.0539 B( 13-C , 14-C ) :  -0.6276 B( 13-C , 15-C ) :   0.1024 
B( 13-C , 23-H ) :   0.7805 B( 14-C , 15-C ) :   0.0788 B( 14-C , 24-H ) :   0.7341 
B( 15-C , 25-H ) :   0.7341 


                     *******************************
                     * LOEWDIN POPULATION ANALYSIS *
                     *******************************

----------------------
LOEWDIN ATOMIC CHARGES
----------------------
   0 C :   -0.158748
   1 C :   -0.148177
   2 C :   -0.054094
   3 C :   -0.139519
   4 C :   -0.139519
   5 C :   -0.054094
   6 C :   -0.148176
   7 C :   -0.158748
   8 C :   -0.148176
   9 C :   -0.054095
  10 C :   -0.011976
  11 C :   -0.011977
  12 C :   -0.054094
  13 C :   -0.148177
  14 C :   -0.139519
  15 C :   -0.139519
  16 H :    0.168887
  17 H :    0.170766
  18 H :    0.171943
  19 H :    0.171943
  20 H :    0.170766
  21 H :    0.168888
  22 H :    0.170765
  23 H :    0.170765
  24 H :    0.171943
  25 H :    0.171943

-------------------------------
LOEWDIN REDUCED ORBITAL CHARGES
-------------------------------
  0 C s       :     2.900679  s :     2.900679
      pz      :     0.975023  p :     3.174830
      px      :     1.101016
      py      :     1.098792
      dz2     :     0.005572  d :     0.083239
      dxz     :     0.003341
      dyz     :     0.013946
      dx2y2   :     0.032883
      dxy     :     0.027496

  1 C s       :     2.896193  s :     2.896193
      pz      :     0.987810  p :     3.170778
      px      :     1.079070
      py      :     1.103898
      dz2     :     0.005589  d :     0.081205
      dxz     :     0.009770
      dyz     :     0.005981
      dx2y2   :     0.029215
      dxy     :     0.030650

  2 C s       :     2.841961  s :     2.841961
      pz      :     0.960254  p :     3.110592
      px      :     1.078071
      py      :     1.072268
      dz2     :     0.006878  d :     0.101541
      dxz     :     0.012917
      dyz     :     0.010796
      dx2y2   :     0.034725
      dxy     :     0.036225

  3 C s       :     2.895962  s :     2.895962
      pz      :     0.979797  p :     3.161761
      px      :     1.102332
      py      :     1.079632
      dz2     :     0.005584  d :     0.081796
      dxz     :     0.011734
      dyz     :     0.004683
      dx2y2   :     0.026880
      dxy     :     0.032914

  4 C s       :     2.895962  s :     2.895962
      pz      :     0.979797  p :     3.161761
      px      :     1.102332
      py      :     1.079632
      dz2     :     0.005584  d :     0.081796
      dxz     :     0.011734
      dyz     :     0.004683
      dx2y2   :     0.026881
      dxy     :     0.032914

  5 C s       :     2.841960  s :     2.841960
      pz      :     0.960254  p :     3.110593
      px      :     1.078071
      py      :     1.072268
      dz2     :     0.006878  d :     0.101541
      dxz     :     0.012917
      dyz     :     0.010796
      dx2y2   :     0.034725
      dxy     :     0.036225

  6 C s       :     2.896193  s :     2.896193
      pz      :     0.987810  p :     3.170778
      px      :     1.079070
      py      :     1.103898
      dz2     :     0.005589  d :     0.081205
      dxz     :     0.009770
      dyz     :     0.005981
      dx2y2   :     0.029215
      dxy     :     0.030650

  7 C s       :     2.900680  s :     2.900680
      pz      :     0.975023  p :     3.174830
      px      :     1.101016
      py      :     1.098791
      dz2     :     0.005572  d :     0.083239
      dxz     :     0.003341
      dyz     :     0.013946
      dx2y2   :     0.032883
      dxy     :     0.027496

  8 C s       :     2.896193  s :     2.896193
      pz      :     0.987811  p :     3.170778
      px      :     1.079071
      py      :     1.103897
      dz2     :     0.005589  d :     0.081205
      dxz     :     0.009770
      dyz     :     0.005981
      dx2y2   :     0.029215
      dxy     :     0.030650

  9 C s       :     2.841960  s :     2.841960
      pz      :     0.960254  p :     3.110593
      px      :     1.078072
      py      :     1.072267
      dz2     :     0.006878  d :     0.101542
      dxz     :     0.012917
      dyz     :     0.010796
      dx2y2   :     0.034725
      dxy     :     0.036225

 10 C s       :     2.828582  s :     2.828582
      pz      :     0.972757  p :     3.084666
      px      :     1.053827
      py      :     1.058082
      dz2     :     0.006964  d :     0.098728
      dxz     :     0.011085
      dyz     :     0.010340
      dx2y2   :     0.035277
      dxy     :     0.035063

 11 C s       :     2.828582  s :     2.828582
      pz      :     0.972758  p :     3.084666
      px      :     1.053827
      py      :     1.058081
      dz2     :     0.006964  d :     0.098728
      dxz     :     0.011085
      dyz     :     0.010340
      dx2y2   :     0.035277
      dxy     :     0.035063

 12 C s       :     2.841960  s :     2.841960
      pz      :     0.960254  p :     3.110592
      px      :     1.078071
      py      :     1.072267
      dz2     :     0.006878  d :     0.101541
      dxz     :     0.012917
      dyz     :     0.010796
      dx2y2   :     0.034725
      dxy     :     0.036225

 13 C s       :     2.896193  s :     2.896193
      pz      :     0.987811  p :     3.170778
      px      :     1.079070
      py      :     1.103897
      dz2     :     0.005589  d :     0.081205
      dxz     :     0.009770
      dyz     :     0.005981
      dx2y2   :     0.029215
      dxy     :     0.030650

 14 C s       :     2.895963  s :     2.895963
      pz      :     0.979797  p :     3.161760
      px      :     1.102332
      py      :     1.079631
      dz2     :     0.005584  d :     0.081795
      dxz     :     0.011734
      dyz     :     0.004683
      dx2y2   :     0.026880
      dxy     :     0.032914

 15 C s       :     2.895962  s :     2.895962
      pz      :     0.979798  p :     3.161761
      px      :     1.102332
      py      :     1.079632
      dz2     :     0.005584  d :     0.081796
      dxz     :     0.011734
      dyz     :     0.004683
      dx2y2   :     0.026880
      dxy     :     0.032914

 16 H s       :     0.786710  s :     0.786710
      pz      :     0.008887  p :     0.044403
      px      :     0.028533
      py      :     0.006983

 17 H s       :     0.784262  s :     0.784262
      pz      :     0.009448  p :     0.044972
      px      :     0.012424
      py      :     0.023099

 18 H s       :     0.783380  s :     0.783380
      pz      :     0.009119  p :     0.044677
      px      :     0.012266
      py      :     0.023292

 19 H s       :     0.783380  s :     0.783380
      pz      :     0.009119  p :     0.044677
      px      :     0.012266
      py      :     0.023293

 20 H s       :     0.784262  s :     0.784262
      pz      :     0.009448  p :     0.044972
      px      :     0.012425
      py      :     0.023099

 21 H s       :     0.786710  s :     0.786710
      pz      :     0.008887  p :     0.044403
      px      :     0.028533
      py      :     0.006983

 22 H s       :     0.784263  s :     0.784263
      pz      :     0.009448  p :     0.044972
      px      :     0.012425
      py      :     0.023099

 23 H s       :     0.784262  s :     0.784262
      pz      :     0.009448  p :     0.044972
      px      :     0.012425
      py      :     0.023099

 24 H s       :     0.783380  s :     0.783380
      pz      :     0.009119  p :     0.044677
      px      :     0.012266
      py      :     0.023292

 25 H s       :     0.783380  s :     0.783380
      pz      :     0.009119  p :     0.044677
      px      :     0.012265
      py      :     0.023293


---------------------------------
LOEWDIN BOND ORDERS (THRESH 0.050000)
---------------------------------
B(  0-C ,  1-C ) :   1.5041 B(  0-C ,  2-C ) :   0.0881 B(  0-C , 11-C ) :   0.0786 
B(  0-C , 12-C ) :   0.0881 B(  0-C , 13-C ) :   1.5040 B(  0-C , 16-H ) :   0.8714 
B(  0-C , 17-H ) :   0.0533 B(  0-C , 23-H ) :   0.0533 B(  1-C ,  2-C ) :   1.3871 
B(  1-C ,  3-C ) :   0.0939 B(  1-C , 11-C ) :   0.0801 B(  1-C , 12-C ) :   0.0959 
B(  1-C , 13-C ) :   0.0873 B(  1-C , 16-H ) :   0.0552 B(  1-C , 17-H ) :   0.8661 
B(  2-C ,  3-C ) :   1.2391 B(  2-C ,  4-C ) :   0.0879 B(  2-C ,  5-C ) :   0.0515 
B(  2-C , 10-C ) :   0.0780 B(  2-C , 11-C ) :   1.2412 B(  2-C , 12-C ) :   0.0770 
B(  2-C , 13-C ) :   0.0959 B(  2-C , 17-H ) :   0.0530 B(  3-C ,  4-C ) :   1.6996 
B(  3-C ,  5-C ) :   0.0879 B(  3-C , 10-C ) :   0.0689 B(  3-C , 11-C ) :   0.0757 
B(  3-C , 18-H ) :   0.8636 B(  3-C , 19-H ) :   0.0584 B(  4-C ,  5-C ) :   1.2391 
B(  4-C ,  6-C ) :   0.0939 B(  4-C , 10-C ) :   0.0757 B(  4-C , 11-C ) :   0.0689 
B(  4-C , 18-H ) :   0.0584 B(  4-C , 19-H ) :   0.8636 B(  5-C ,  6-C ) :   1.3871 
B(  5-C ,  7-C ) :   0.0881 B(  5-C ,  8-C ) :   0.0959 B(  5-C ,  9-C ) :   0.0770 
B(  5-C , 10-C ) :   1.2412 B(  5-C , 11-C ) :   0.0780 B(  5-C , 20-H ) :   0.0530 
B(  6-C ,  7-C ) :   1.5041 B(  6-C ,  8-C ) :   0.0873 B(  6-C ,  9-C ) :   0.0959 
B(  6-C , 10-C ) :   0.0801 B(  6-C , 20-H ) :   0.8661 B(  6-C , 21-H ) :   0.0552 
B(  7-C ,  8-C ) :   1.5040 B(  7-C ,  9-C ) :   0.0881 B(  7-C , 10-C ) :   0.0786 
B(  7-C , 20-H ) :   0.0533 B(  7-C , 21-H ) :   0.8714 B(  7-C , 22-H ) :   0.0533 
B(  8-C ,  9-C ) :   1.3871 B(  8-C , 10-C ) :   0.0801 B(  8-C , 15-C ) :   0.0939 
B(  8-C , 21-H ) :   0.0552 B(  8-C , 22-H ) :   0.8661 B(  9-C , 10-C ) :   1.2412 
B(  9-C , 11-C ) :   0.0780 B(  9-C , 12-C ) :   0.0515 B(  9-C , 14-C ) :   0.0879 
B(  9-C , 15-C ) :   1.2391 B(  9-C , 22-H ) :   0.0530 B( 10-C , 11-C ) :   1.2465 
B( 10-C , 12-C ) :   0.0780 B( 10-C , 14-C ) :   0.0689 B( 10-C , 15-C ) :   0.0757 
B( 11-C , 12-C ) :   1.2412 B( 11-C , 13-C ) :   0.0801 B( 11-C , 14-C ) :   0.0757 
B( 11-C , 15-C ) :   0.0689 B( 12-C , 13-C ) :   1.3871 B( 12-C , 14-C ) :   1.2391 
B( 12-C , 15-C ) :   0.0879 B( 12-C , 23-H ) :   0.0530 B( 13-C , 14-C ) :   0.0939 
B( 13-C , 16-H ) :   0.0552 B( 13-C , 23-H ) :   0.8661 B( 14-C , 15-C ) :   1.6996 
B( 14-C , 24-H ) :   0.8636 B( 14-C , 25-H ) :   0.0584 B( 15-C , 24-H ) :   0.0584 
B( 15-C , 25-H ) :   0.8636 

------------------------------------------
LOEWDIN REDUCED ORBITAL POPULATIONS PER MO
-------------------------------------------
THRESHOLD FOR PRINTING IS 0.1%%
                      0         1         2         3         4         5   
                 -10.04911 -10.04911 -10.04906 -10.04905 -10.04819 -10.04786
                   2.00000   2.00000   2.00000   2.00000   2.00000   2.00000
                  --------  --------  --------  --------  --------  --------
 2 C  s              23.9      22.6      25.1      24.9       1.9       1.1
 5 C  s              23.6      23.3      24.8      24.9       1.9       1.1
 9 C  s              23.5      23.2      24.8      24.9       1.9       1.1
10 C  s               2.1       3.8       0.0       0.0      46.0      47.7
10 C  py              0.0       0.0       0.1       0.1       0.0       0.0
11 C  s               2.2       3.7       0.0       0.0      46.0      47.7
11 C  py              0.0       0.0       0.1       0.1       0.0       0.0
12 C  s              24.2      22.9      24.8      24.7       1.9       1.1

                      6         7         8         9        10        11   
                 -10.04107 -10.04107 -10.04045 -10.04045 -10.03954 -10.03953
                   2.00000   2.00000   2.00000   2.00000   2.00000   2.00000
                  --------  --------  --------  --------  --------  --------
 0 C  s               0.0       0.0       0.0       0.0      27.1      42.2
 1 C  s               0.0       0.0       0.0       0.0       5.9       9.2
 3 C  s              21.8      28.0      15.4      34.4       0.0       0.0
 4 C  s              21.8      28.0      15.4      34.4       0.0       0.0
 6 C  s               0.0       0.0       0.0       0.0       9.2       5.9
 7 C  s               0.0       0.0       0.0       0.0      42.2      27.1
 8 C  s               0.0       0.0       0.0       0.0       9.2       5.9
13 C  s               0.0       0.0       0.0       0.0       5.9       9.2
14 C  s              28.0      21.8      34.4      15.4       0.0       0.0
15 C  s              27.9      21.8      34.4      15.4       0.0       0.0

                     12        13        14        15        16        17   
                 -10.03904 -10.03903 -10.03881 -10.03881  -0.86794  -0.82557
                   2.00000   2.00000   2.00000   2.00000   2.00000   2.00000
                  --------  --------  --------  --------  --------  --------
 0 C  s               0.0       0.0       3.2      27.1       2.0       6.7
 0 C  px              0.0       0.0       0.0       0.0       0.8       1.4
 0 C  py              0.1       0.1       0.0       0.0       0.0       0.0
 1 C  s              22.9      26.8       3.7      31.0       2.8       6.6
 1 C  px              0.0       0.0       0.0       0.0       0.7       0.3
 1 C  py              0.0       0.0       0.0       0.0       0.3       1.0
 2 C  s               0.0       0.0       0.0       0.0       7.2       5.4
 2 C  px              0.0       0.0       0.0       0.0       0.3       0.9
 2 C  py              0.0       0.0       0.0       0.0       0.5       0.5
 3 C  s               0.0       0.0       0.0       0.0       3.5       0.4
 3 C  px              0.0       0.0       0.0       0.0       0.1       0.9
 3 C  py              0.0       0.0       0.0       0.0       1.1       0.4
 4 C  s               0.0       0.0       0.0       0.0       3.5       0.4
 4 C  px              0.0       0.0       0.0       0.0       0.1       0.9
 4 C  py              0.0       0.0       0.0       0.0       1.1       0.4
 5 C  s               0.0       0.0       0.0       0.0       7.2       5.4
 5 C  px              0.0       0.0       0.0       0.0       0.3       0.9
 5 C  py              0.0       0.0       0.0       0.0       0.5       0.5
 6 C  s              26.8      22.9      31.0       3.7       2.8       6.6
 6 C  px              0.0       0.0       0.0       0.0       0.7       0.3
 6 C  py              0.0       0.0       0.0       0.0       0.3       1.0
 7 C  s               0.0       0.0      27.1       3.2       2.0       6.7
 7 C  px              0.0       0.0       0.0       0.0       0.8       1.4
 7 C  py              0.1       0.1       0.0       0.0       0.0       0.0
 8 C  s              26.8      22.9      31.0       3.7       2.8       6.6
 8 C  px              0.0       0.0       0.0       0.0       0.7       0.3
 8 C  py              0.0       0.0       0.0       0.0       0.3       1.0
 9 C  s               0.0       0.0       0.0       0.0       7.2       5.4
 9 C  px              0.0       0.0       0.0       0.0       0.3       0.9
 9 C  py              0.0       0.0       0.0       0.0       0.5       0.5
10 C  s               0.0       0.0       0.0       0.0      12.2       2.6
10 C  px              0.0       0.0       0.0       0.0       0.1       4.1
10 C  dz2             0.0       0.0       0.0       0.0       0.2       0.0
11 C  s               0.0       0.0       0.0       0.0      12.2       2.6
11 C  px              0.0       0.0       0.0       0.0       0.1       4.1
11 C  dz2             0.0       0.0       0.0       0.0       0.2       0.0
12 C  s               0.0       0.0       0.0       0.0       7.2       5.4
12 C  px              0.0       0.0       0.0       0.0       0.3       0.9
12 C  py              0.0       0.0       0.0       0.0       0.5       0.5
13 C  s              22.9      26.8       3.7      31.0       2.8       6.6
13 C  px              0.0       0.0       0.0       0.0       0.7       0.3
13 C  py              0.0       0.0       0.0       0.0       0.3       1.0
14 C  s               0.0       0.0       0.0       0.0       3.5       0.4
14 C  px              0.0       0.0       0.0       0.0       0.1       0.9
14 C  py              0.0       0.0       0.0       0.0       1.1       0.4
15 C  s               0.0       0.0       0.0       0.0       3.5       0.4
15 C  px              0.0       0.0       0.0       0.0       0.1       0.9
15 C  py              0.0       0.0       0.0       0.0       1.1       0.4
16 H  s               0.0       0.0       0.0       0.0       0.2       0.6
17 H  s               0.0       0.0       0.0       0.0       0.2       0.6
18 H  s               0.0       0.0       0.0       0.0       0.3       0.1
19 H  s               0.0       0.0       0.0       0.0       0.3       0.1
20 H  s               0.0       0.0       0.0       0.0       0.2       0.6
21 H  s               0.0       0.0       0.0       0.0       0.2       0.6
22 H  s               0.0       0.0       0.0       0.0       0.2       0.6
23 H  s               0.0       0.0       0.0       0.0       0.2       0.6
24 H  s               0.0       0.0       0.0       0.0       0.3       0.1
25 H  s               0.0       0.0       0.0       0.0       0.3       0.1

                     18        19        20        21        22        23   
                  -0.80487  -0.77095  -0.74016  -0.72138  -0.70420  -0.68270
                   2.00000   2.00000   2.00000   2.00000   2.00000   2.00000
                  --------  --------  --------  --------  --------  --------
 0 C  s               0.0      11.0       0.0       0.6      10.7       0.0
 0 C  px              0.0       0.7       0.0       0.0       0.1       0.0
 0 C  py              0.7       0.0       3.4       0.0       0.0       6.1
 0 C  dxy             0.0       0.0       0.1       0.0       0.0       0.2
 1 C  s               1.3       5.5       5.4       0.4       1.6       7.3
 1 C  px              0.7       0.6       1.1       0.1       3.8       0.2
 1 C  py              0.2       1.7       0.3       0.0       1.5       0.2
 2 C  s               5.4       0.0       7.2       0.0       3.7       1.6
 2 C  px              0.3       4.3       0.7       0.2       1.2       3.7
 2 C  py              1.4       0.2       0.6       5.9       0.1       0.3
 2 C  dxy             0.0       0.0       0.0       0.2       0.0       0.0
 3 C  s               9.6       2.4       1.6       8.7       1.0       3.3
 3 C  px              0.6       0.7       2.3       1.1       1.0       2.3
 3 C  py              0.6       0.1       0.6       0.4       0.4       0.5
 4 C  s               9.6       2.4       1.6       8.7       1.0       3.3
 4 C  px              0.6       0.7       2.3       1.1       1.0       2.3
 4 C  py              0.6       0.1       0.6       0.4       0.4       0.5
 5 C  s               5.4       0.0       7.2       0.0       3.7       1.6
 5 C  px              0.3       4.3       0.7       0.2       1.2       3.7
 5 C  py              1.4       0.2       0.6       5.9       0.1       0.3
 5 C  dxy             0.0       0.0       0.0       0.2       0.0       0.0
 6 C  s               1.3       5.5       5.4       0.4       1.6       7.3
 6 C  px              0.7       0.6       1.1       0.1       3.8       0.2
 6 C  py              0.2       1.7       0.3       0.0       1.5       0.2
 7 C  s               0.0      11.0       0.0       0.6      10.7       0.0
 7 C  px              0.0       0.7       0.0       0.0       0.1       0.0
 7 C  py              0.7       0.0       3.4       0.0       0.0       6.1
 7 C  dxy             0.0       0.0       0.1       0.0       0.0       0.2
 8 C  s               1.3       5.5       5.4       0.4       1.6       7.3
 8 C  px              0.7       0.6       1.1       0.1       3.8       0.2
 8 C  py              0.2       1.7       0.3       0.0       1.5       0.2
 9 C  s               5.4       0.0       7.2       0.0       3.7       1.6
 9 C  px              0.3       4.3       0.7       0.2       1.2       3.7
 9 C  py              1.4       0.2       0.6       5.9       0.1       0.3
 9 C  dxy             0.0       0.0       0.0       0.2       0.0       0.0
10 C  s               0.0       1.6       0.0       9.6       3.6       0.0
10 C  px              0.0       1.7       0.0       1.5       2.6       0.0
10 C  py              6.0       0.0       3.3       0.0       0.0       0.4
10 C  dx2y2           0.0       0.0       0.0       0.1       0.1       0.0
10 C  dxy             0.0       0.0       0.1       0.0       0.0       0.0
11 C  s               0.0       1.6       0.0       9.6       3.6       0.0
11 C  px              0.0       1.7       0.0       1.5       2.6       0.0
11 C  py              6.0       0.0       3.3       0.0       0.0       0.4
11 C  dx2y2           0.0       0.0       0.0       0.1       0.1       0.0
11 C  dxy             0.0       0.0       0.1       0.0       0.0       0.0
12 C  s               5.4       0.0       7.2       0.0       3.7       1.6
12 C  px              0.3       4.3       0.7       0.2       1.2       3.7
12 C  py              1.4       0.2       0.6       5.9       0.1       0.3
12 C  dxy             0.0       0.0       0.0       0.2       0.0       0.0
13 C  s               1.3       5.5       5.4       0.4       1.6       7.3
13 C  px              0.7       0.6       1.1       0.1       3.8       0.2
13 C  py              0.2       1.7       0.3       0.0       1.5       0.2
14 C  s               9.6       2.4       1.6       8.7       1.0       3.3
14 C  px              0.6       0.7       2.3       1.1       1.0       2.3
14 C  py              0.6       0.1       0.6       0.4       0.4       0.5
15 C  s               9.6       2.4       1.6       8.7       1.0       3.3
15 C  px              0.6       0.7       2.3       1.1       1.0       2.3
15 C  py              0.6       0.1       0.6       0.4       0.4       0.5
16 H  s               0.0       1.4       0.0       0.1       2.1       0.0
16 H  px              0.0       0.1       0.0       0.0       0.2       0.0
17 H  s               0.2       0.6       0.9       0.1       0.3       1.6
17 H  py              0.0       0.0       0.1       0.0       0.0       0.1
18 H  s               1.0       0.2       0.3       1.6       0.2       0.6
19 H  s               1.0       0.2       0.3       1.6       0.2       0.6
20 H  s               0.2       0.6       0.9       0.1       0.3       1.6
20 H  py              0.0       0.0       0.1       0.0       0.0       0.1
21 H  s               0.0       1.4       0.0       0.1       2.1       0.0
21 H  px              0.0       0.1       0.0       0.0       0.2       0.0
22 H  s               0.2       0.6       0.9       0.1       0.3       1.6
22 H  py              0.0       0.0       0.1       0.0       0.0       0.1
23 H  s               0.2       0.6       0.9       0.1       0.3       1.6
23 H  py              0.0       0.0       0.1       0.0       0.0       0.1
24 H  s               1.0       0.2       0.3       1.6       0.2       0.6
25 H  s               1.0       0.2       0.3       1.6       0.2       0.6

                     24        25        26        27        28        29   
                  -0.60155  -0.60130  -0.59801  -0.58258  -0.51715  -0.49938
                   2.00000   2.00000   2.00000   2.00000   2.00000   2.00000
                  --------  --------  --------  --------  --------  --------
 0 C  s               7.1       0.0       0.0       0.0       4.4       0.1
 0 C  px              1.9       0.0       0.2       0.0       5.4       3.4
 0 C  py              0.0       8.5       0.0       3.1       0.0       0.0
 0 C  dxy             0.0       0.2       0.0       0.0       0.0       0.0
 1 C  s               0.3       5.2       0.6       1.6       2.2       0.7
 1 C  px              5.1       1.4       0.0       1.2       1.8       1.1
 1 C  py              1.9       0.1       1.7       0.2       1.8       5.7
 2 C  s               2.2       1.2       0.0       2.2       0.0       0.0
 2 C  px              2.8       3.0       0.2       1.9       5.7       0.2
 2 C  py              0.1       0.9       9.0       0.8       0.0       3.5
 2 C  dx2y2           0.0       0.1       0.0       0.0       0.2       0.0
 3 C  s               0.3       2.7       3.3       1.8       1.6       0.2
 3 C  px              1.9       2.1       3.4       0.6       0.8       1.9
 3 C  py              0.2       0.2       0.1       4.9       0.0       2.3
 4 C  s               0.3       2.7       3.3       1.8       1.6       0.2
 4 C  px              1.9       2.1       3.4       0.6       0.8       1.9
 4 C  py              0.2       0.2       0.1       4.9       0.0       2.3
 5 C  s               2.2       1.2       0.0       2.2       0.0       0.0
 5 C  px              2.8       3.0       0.2       1.9       5.7       0.2
 5 C  py              0.1       0.9       9.0       0.8       0.0       3.5
 5 C  dx2y2           0.0       0.1       0.0       0.0       0.2       0.0
 6 C  s               0.3       5.2       0.6       1.6       2.2       0.7
 6 C  px              5.1       1.4       0.0       1.2       1.8       1.1
 6 C  py              1.9       0.1       1.7       0.2       1.8       5.7
 7 C  s               7.1       0.0       0.0       0.0       4.4       0.1
 7 C  px              1.9       0.0       0.2       0.0       5.4       3.4
 7 C  py              0.0       8.5       0.0       3.1       0.0       0.0
 7 C  dxy             0.0       0.2       0.0       0.0       0.0       0.0
 8 C  s               0.3       5.2       0.6       1.6       2.2       0.7
 8 C  px              5.1       1.4       0.0       1.2       1.8       1.1
 8 C  py              1.9       0.1       1.7       0.2       1.8       5.7
 9 C  s               2.2       1.2       0.0       2.2       0.0       0.0
 9 C  px              2.8       3.0       0.2       1.9       5.7       0.2
 9 C  py              0.1       0.9       9.0       0.8       0.0       3.5
 9 C  dx2y2           0.0       0.1       0.0       0.0       0.2       0.0
10 C  s               1.4       0.0       4.3       0.0       1.2       0.0
10 C  px              5.5       0.0       3.1       0.0       0.2       6.8
10 C  py              0.0       1.3       0.0       9.9       0.0       0.0
10 C  dx2y2           0.0       0.0       0.0       0.0       0.2       0.0
11 C  s               1.4       0.0       4.3       0.0       1.2       0.0
11 C  px              5.5       0.0       3.1       0.0       0.2       6.8
11 C  py              0.0       1.3       0.0       9.9       0.0       0.0
[...]
19 H  px              0.9       0.2       0.0       0.0       0.0       0.0
19 H  py              2.6       1.0       0.0       0.0       0.0       0.0
20 H  s               0.1       1.0       0.0       0.0       0.0       0.0
20 H  px              0.1       0.5       0.0       0.0       0.0       0.0
20 H  py              0.1       1.4       0.0       0.0       0.0       0.0
21 H  s               0.0       1.0       0.0       0.0       0.0       0.0
21 H  px              0.0       1.8       0.0       0.0       0.0       0.0
22 H  s               0.1       1.0       0.0       0.0       0.0       0.0
22 H  px              0.1       0.5       0.0       0.0       0.0       0.0
22 H  py              0.1       1.4       0.0       0.0       0.0       0.0
23 H  s               0.1       1.0       0.0       0.0       0.0       0.0
23 H  px              0.1       0.5       0.0       0.0       0.0       0.0
23 H  py              0.1       1.4       0.0       0.0       0.0       0.0
24 H  s               1.7       0.6       0.0       0.0       0.0       0.0
24 H  px              0.9       0.2       0.0       0.0       0.0       0.0
24 H  py              2.6       1.0       0.0       0.0       0.0       0.0
25 H  s               1.7       0.6       0.0       0.0       0.0       0.0
25 H  px              0.9       0.2       0.0       0.0       0.0       0.0
25 H  py              2.6       1.0       0.0       0.0       0.0       0.0

                    342       343       344       345       346       347   
                  22.02403  22.03469  22.06451  22.12722  22.14750  22.19652
                   0.00000   0.00000   0.00000   0.00000   0.00000   0.00000
                  --------  --------  --------  --------  --------  --------
 0 C  s               1.5       0.0       0.0      26.4      22.5       0.0
 1 C  s               1.0      14.3      12.3       0.9       1.6      10.3
 2 C  s               0.3       5.5       8.8       8.8       8.0      10.6
 3 C  s              12.1       5.1       3.6       0.7       0.7       4.0
 4 C  s              12.1       5.1       3.6       0.7       0.7       4.0
 5 C  s               0.3       5.5       8.8       8.8       8.0      10.6
 6 C  s               1.0      14.3      12.3       0.9       1.6      10.3
 7 C  s               1.5       0.0       0.0      26.4      22.5       0.0
 8 C  s               1.0      14.3      12.3       0.9       1.6      10.3
 9 C  s               0.3       5.5       8.8       8.8       8.0      10.6
10 C  s              21.3       0.0       0.0       2.4       6.8       0.0
10 C  px              0.1       0.0       0.0       0.1       0.0       0.0
10 C  py              0.0       0.1       0.2       0.0       0.0       0.0
11 C  s              21.3       0.0       0.0       2.4       6.8       0.0
11 C  px              0.1       0.0       0.0       0.1       0.0       0.0
11 C  py              0.0       0.1       0.2       0.0       0.0       0.0
12 C  s               0.3       5.5       8.8       8.8       8.0      10.6
13 C  s               1.0      14.3      12.3       0.9       1.6      10.3
14 C  s              12.1       5.1       3.6       0.7       0.7       4.0
15 C  s              12.1       5.1       3.6       0.7       0.7       4.0

                    348       349       350       351       352       353   
                  22.20042  22.20647  22.33129  22.34477  22.35049  22.41165
                   0.00000   0.00000   0.00000   0.00000   0.00000   0.00000
                  --------  --------  --------  --------  --------  --------
 0 C  s               0.1       0.0       0.0       9.1       7.0       1.8
 1 C  s               1.7      12.1       0.4      10.0       5.7       3.3
 2 C  s               0.1       6.2       9.8       7.9       2.1      10.3
 3 C  s              11.0       6.6      14.6       0.3       9.8       3.2
 4 C  s              11.0       6.6      14.6       0.3       9.8       3.2
 5 C  s               0.1       6.2       9.8       7.9       2.1      10.3
 6 C  s               1.7      12.1       0.4      10.0       5.7       3.3
 7 C  s               0.1       0.0       0.0       9.1       7.0       1.8
 8 C  s               1.7      12.1       0.4      10.0       5.7       3.3
 9 C  s               0.1       6.2       9.8       7.9       2.1      10.3
10 C  s              24.2       0.0       0.0       4.3       7.3      14.5
10 C  px              0.0       0.0       0.0       0.1       0.2       0.0
10 C  py              0.0       0.0       0.2       0.0       0.0       0.0
11 C  s              24.2       0.0       0.0       4.3       7.3      14.5
11 C  px              0.0       0.0       0.0       0.1       0.2       0.0
11 C  py              0.0       0.0       0.2       0.0       0.0       0.0
12 C  s               0.1       6.2       9.8       7.9       2.1      10.3
13 C  s               1.7      12.1       0.4      10.0       5.7       3.3
14 C  s              11.0       6.6      14.6       0.3       9.8       3.2
15 C  s              11.0       6.6      14.6       0.3       9.8       3.2



                      *****************************
                      * MAYER POPULATION ANALYSIS *
                      *****************************

  NA   - Mulliken gross atomic population
  ZA   - Total nuclear charge
  QA   - Mulliken gross atomic charge
  VA   - Mayer's total valence
  BVA  - Mayer's bonded valence
  FA   - Mayer's free valence

  ATOM       NA         ZA         QA         VA         BVA        FA
  0 C      6.1705     6.0000    -0.1705     3.8198     3.8198    -0.0000
  1 C      6.2034     6.0000    -0.2034     3.6599     3.6599     0.0000
  2 C      5.8347     6.0000     0.1653     3.4509     3.4509     0.0000
  3 C      6.3039     6.0000    -0.3039     3.6522     3.6522     0.0000
  4 C      6.3040     6.0000    -0.3040     3.6522     3.6522     0.0000
  5 C      5.8346     6.0000     0.1654     3.4511     3.4511     0.0000
  6 C      6.2034     6.0000    -0.2034     3.6599     3.6599    -0.0000
  7 C      6.1705     6.0000    -0.1705     3.8199     3.8199    -0.0000
  8 C      6.2034     6.0000    -0.2034     3.6600     3.6600    -0.0000
  9 C      5.8347     6.0000     0.1653     3.4511     3.4511    -0.0000
 10 C      5.8638     6.0000     0.1362     3.7881     3.7881     0.0000
 11 C      5.8639     6.0000     0.1361     3.7879     3.7879     0.0000
 12 C      5.8347     6.0000     0.1653     3.4510     3.4510    -0.0000
 13 C      6.2035     6.0000    -0.2035     3.6600     3.6600     0.0000
 14 C      6.3039     6.0000    -0.3039     3.6523     3.6523     0.0000
 15 C      6.3039     6.0000    -0.3039     3.6523     3.6523     0.0000
 16 H      0.8554     1.0000     0.1446     0.9698     0.9698    -0.0000
 17 H      0.8559     1.0000     0.1441     0.9710     0.9710     0.0000
 18 H      0.8571     1.0000     0.1429     0.9728     0.9728     0.0000
 19 H      0.8571     1.0000     0.1429     0.9728     0.9728    -0.0000
 20 H      0.8559     1.0000     0.1441     0.9710     0.9710    -0.0000
 21 H      0.8554     1.0000     0.1446     0.9698     0.9698     0.0000
 22 H      0.8559     1.0000     0.1441     0.9710     0.9710    -0.0000
 23 H      0.8559     1.0000     0.1441     0.9710     0.9710     0.0000
 24 H      0.8571     1.0000     0.1429     0.9728     0.9728     0.0000
 25 H      0.8571     1.0000     0.1429     0.9728     0.9728    -0.0000

  Mayer bond orders larger than 0.100000
B(  0-C ,  1-C ) :   1.3775 B(  0-C , 13-C ) :   1.3775 B(  0-C , 16-H ) :   0.9517 
B(  1-C ,  2-C ) :   1.2218 B(  1-C , 17-H ) :   0.9431 B(  2-C ,  3-C ) :   1.0908 
B(  2-C , 10-C ) :  -0.1862 B(  2-C , 11-C ) :   1.4553 B(  2-C , 12-C ) :  -0.1359 
B(  3-C ,  4-C ) :   1.5241 B(  3-C , 18-H ) :   0.9405 B(  4-C ,  5-C ) :   1.0908 
B(  4-C , 19-H ) :   0.9405 B(  5-C ,  6-C ) :   1.2218 B(  5-C ,  9-C ) :  -0.1359 
B(  5-C , 10-C ) :   1.4554 B(  5-C , 11-C ) :  -0.1862 B(  6-C ,  7-C ) :   1.3775 
B(  6-C , 20-H ) :   0.9431 B(  7-C ,  8-C ) :   1.3775 B(  7-C , 21-H ) :   0.9517 
B(  8-C ,  9-C ) :   1.2218 B(  8-C , 22-H ) :   0.9431 B(  9-C , 10-C ) :   1.4554 
B(  9-C , 11-C ) :  -0.1861 B(  9-C , 15-C ) :   1.0909 B( 10-C , 11-C ) :   1.0091 
B( 10-C , 12-C ) :  -0.1861 B( 11-C , 12-C ) :   1.4553 B( 12-C , 13-C ) :   1.2218 
B( 12-C , 14-C ) :   1.0908 B( 13-C , 23-H ) :   0.9431 B( 14-C , 15-C ) :   1.5242 
B( 14-C , 24-H ) :   0.9405 B( 15-C , 25-H ) :   0.9405 

-------
TIMINGS
-------

Total SCF time: 0 days 0 hours 0 min 26 sec 

Total time                  ....      26.527 sec
Sum of individual times     ....      26.502 sec  ( 99.9%)

SCF preparation             ....       0.048 sec  (  0.2%)
Fock matrix formation       ....      25.996 sec  ( 98.0%)
  Startup                   ....       0.005 sec  (  0.0% of F)
  Split-RI-J                ....       7.949 sec  ( 30.6% of F)
  XC integration            ....      18.006 sec  ( 69.3% of F)
    Basis function eval.    ....       2.947 sec  ( 16.4% of XC)
    Density eval.           ....       6.836 sec  ( 38.0% of XC)
    XC-Functional eval.     ....       1.308 sec  (  7.3% of XC)
    XC-Potential eval.      ....       6.709 sec  ( 37.3% of XC)
Diagonalization             ....       0.000 sec  (  0.0%)
Density matrix formation    ....       0.020 sec  (  0.1%)
Total Energy calculation    ....       0.003 sec  (  0.0%)
Population analysis         ....       0.203 sec  (  0.8%)
Orbital Transformation      ....       0.034 sec  (  0.1%)
Orbital Orthonormalization  ....       0.000 sec  (  0.0%)
DIIS solution               ....       0.143 sec  (  0.5%)
  MO trafo                  ....       0.000 sec  (  0.0 % of DIIS)
  Orb grad                  ....       0.000 sec  (  0.0 % of DIIS)
  Energy W gradient         ....       0.000 sec  (  0.0 % of DIIS)
  DIIS error                ....       0.025 sec  ( 17.6 % of DIIS)
  DIIS work                 ....       0.100 sec  ( 69.8 % of DIIS)
  Form Q                    ....       0.000 sec  (  0.0 % of DIIS)
  Form QpQm                 ....       0.000 sec  (  0.0 % of DIIS)
  Exp/Cayley                ....       0.000 sec  (  0.0 % of DIIS)
  Orb update                ....       0.000 sec  (  0.0 % of DIIS)
  Wake-sleep                ....       0.001 sec  (  0.7 % of DIIS)
SOSCF solution              ....       0.054 sec  (  0.2%)
  MO trafo                  ....       0.033 sec  ( 60.6 % of SOSCF)
  Orb grad                  ....       0.000 sec  (  0.7 % of SOSCF)
  Rot update                ....       0.001 sec  (  1.6 % of SOSCF)
  Step                      ....       0.020 sec  ( 37.0 % of SOSCF)
Finished LeanSCF after  26.5 sec

Maximum memory used throughout the entire LEANSCF-calculation: 46.4 MB


-------------------------------------------------------------------------------
                          DFT DISPERSION CORRECTION                            
                                                                               
                                DFTD4 V3.4.0                                   
-------------------------------------------------------------------------------
The R2SCAN3C composite method is recognized
Using three-body term ABC
Active option DFTDOPT                   ...         5   

-------------------------   ----------------
Dispersion correction           -0.013158857
-------------------------   ----------------

------------------   -----------------
gCP correction             0.004881022
------------------   -----------------

-------------------------   --------------------
FINAL SINGLE POINT ENERGY      -615.610900143728
-------------------------   --------------------


------------------------------------------------------------------------------
                              ORCA PROPERTY CALCULATIONS
------------------------------------------------------------------------------

GBWName                                 ... sp.gbw
Number of atoms                         ...     26
Number of basis functions               ...    354
Max core memory                         ...   1024 MB

Electric properties:
Dipole moment                           ... YES
Quadrupole moment                       ...  NO
Static polarizability (Dipole/Dipole)   ...  NO
Static polarizability (Dipole/Quad.)    ...  NO
Static polarizability (Quad./Quad.)     ...  NO
Static polarizability (Velocity)        ...  NO

Atomic electric properties:
Dipole moment                           ...  NO
Quadrupole moment                       ...  NO
Static polarizability                   ...  NO

Choice of electric origin               ... Center of mass
Position of electric origin             ...     0.000000    -0.000000    -0.000000

General magnetic properties:
Magnetizability                         ...  NO

EPR properties:
g-Tensor (aka g-matrix)                 ...  NO
Zero-Field splitting spin-orbit         ...  NO
Zero-field splitting spin-spin          ...  NO
Hyperfine couplings                     ...  NO (   0 nuclei)
Quadrupole couplings                    ...  NO (   0 nuclei)
Contact density                         ...  NO (   0 nuclei)

NMR properties:
Chemical shifts                         ...  NO (   0 nuclei)
Spin-rotation constants                 ...  NO (   0 nuclei)
Spin-spin couplings                     ...  NO (   0 nuclei,    0 pairs)

Choice of magnetic origin               ... GIAO
Position of magnetic origin             ...     0.000000     0.000000     0.000000

Properties with geometric perturbations:
SCF Hessian                             ...  NO
IR spectrum                             ...  NO
VCD spectrum                            ...  NO
X-ray spectroscopy properties:
SCF XES/XAS/RIXS spectra                ...  NO


-------------
DIPOLE MOMENT
-------------

Method             : SCF
Type of density    : Electron Density
Multiplicity       :   1
Irrep              :   0
Energy             :  -615.6026223088430243 Eh
Relativity type    : 
Basis              : AO
                                X                 Y                 Z
Electronic contribution:     -0.000011473       0.000015031       0.000012338
Nuclear contribution   :      0.000013946      -0.000016498      -0.000008143
                        -----------------------------------------
Total Dipole Moment    :      0.000002473      -0.000001466       0.000004195
                        -----------------------------------------
Magnitude (a.u.)       :      0.000005086
Magnitude (Debye)      :      0.000012928



--------------------
Rotational spectrum 
--------------------
 
Rotational constants in cm-1:             0.034187             0.018766             0.012116 
Rotational constants in MHz :          1024.903311           562.604338           363.220328 

Dipole components along the rotational axes: 
x,y,z [a.u.] :    -0.000002    -0.000001     0.000004 
x,y,z [Debye]:    -0.000006    -0.000004     0.000011 

 

Dipole moment calculation done in   0.0 sec 

Maximum memory used throughout the entire PROP-calculation: 30.7 MB

--------------------------------
SUGGESTED CITATIONS FOR THIS RUN
--------------------------------

Below you find a list of papers that are relevant to this ORCA run
We neither can nor want to force you to cite these papers, but we appreciate if you do
You receive ORCA, which is the product of decades of hard work by many enthusiastic individuals, for free
The only thing we kindly ask in return is that you cite our papers,
We deeply appreciate it, if you show your appreciation for ORCA by not just citing the generic ORCA reference.

Please note that relegating all ORCA citations to the supporting information does *not* help us.
SI sections are not indexed - citations you put there will not count into any citation statistics
But we need these citations in order to attract the funding resources that allow us to do what we are doing

Therefore, if you are a happy ORCA user, please consider citing a few of the papers listed below in the main body of your paper

In addition to the list printed below, the program has created the file sp.bibtex that contains the list in bibtex format
You can import this file easily into all common literature databanks and citation aid programs


List of essential papers. We consider these as the minimum necessary citations

  1. Neese,F.
     Software update: the ORCA program system, version 5.0
     WIRES Comput. Molec. Sci., 2022 12(1)e1606
     doi.org/10.1002/wcms.1606
  2. Grimme,S.; Hansen,A.; Ehlert,S.; Mewes,J.
     r2SCAN-3c: A 'Swiss army knife' composite electronic-structure method
     J. Chem. Phys., 2021 154 064103
     doi.org/10.1063/5.0040021

List of papers to cite with high priority. The work reported in these papers was absolutely
necessary for this run to complete.
Our perspective: the developers of density functionals and basis sets usually get cited in chemistry papers
Good! But without the algorithms to do something with them, the functionals or basis sets would not do anything.
Hence, in our opinion, the algorithm design and method developments papers are equally worthy of getting cited

  1. Neese,F.
     An improvement of the resolution of the identity approximation for the formation of the Coulomb matrix
     J. Comp. Chem., 2003 24(14)1740-1747
     doi.org/10.1002/jcc.10318
  2. Neese,F.
     The SHARK Integral Generation and Digestion System
     J. Comp. Chem., 2022  1-16
     doi.org/10.1002/jcc.26942
  3. Lehtola,S.; Steigemann,C.; Oliveira,M.; Marques,M.
     Recent developments in Libxc - A comprehensive library of functionals for density functional theory
     Software X, 2018 7 
     doi.org/10.1016/j.softx.2017.11.002
  4. Caldeweyher,E.; Bannwarth,C.; Grimme,S.
     Extension of the D3 dispersion coefficient model
     J. Chem. Phys., 2017 147 034112
     doi.org/10.1063/1.4993215
  5. Caldeweyher,E.; Ehlert,S.; Hansen,A.; Neugebauer,H.; Spicher,S.; Bannwarth,C.; Grimme,S.
     A generally applicable atomic-charge dependent London dispersion correction
     J. Chem. Phys., 2019 150 154122
     doi.org/10.1063/1.5090222
  6. Caldeweyher,E.; Mewes,J.; Ehlert,S.; Grimme,S.
     Extension and evaluation of the D4 London-dispersion model for periodic systems
     Phys. Chem. Chem. Phys., 2020 22(16)8499-8512
     doi.org/10.1039/D0CP00502A
  7. Wittmann,L.; Gordiy,I.; Friede,M.; Helmich-Paris,B.; Grimme,S.; Hansen,A.; Bursch,M.
     Extension of the D3 and D4 London Dispersion Corrections to the full Actinides Series
     Phys. Chem. Chem. Phys., 2024 26(32)21379-21394
     doi.org/https://doi.org/10.1039/D4CP01514B 

List of suggested additional citations. These are papers that are important in the 'surrounding' of 
of this run, or papers that preceded the highly important papers. If you like your results we are grateful for a citation.

  1. Neese,F.
     The ORCA program system
     WIRES Comput. Molec. Sci., 2012 2(1)73-78
     doi.org/10.1002/wcms.81
  2. Neese,F.
     Software update: the ORCA program system, version 4.0
     WIRES Comput. Molec. Sci., 2018 8(1)1-6
     doi.org/10.1002/wcms.1327
  3. Neese,F.; Wennmohs,F.; Becker,U.; Riplinger,C.
     The ORCA quantum chemistry program package
     J. Chem. Phys., 2020 152 Art. No. L224108
     doi.org/10.1063/5.0004608

List of optional additional citations

  1. Neese,F.
     Approximate second-order SCF convergence for spin unrestricted wavefunctions
     Chem. Phys. Lett., 2000 325(1-3)93-98
     doi.org/10.1016/s0009-2614(00)00662-x

Timings for individual modules:

Sum of individual times          ...       27.808 sec (=   0.463 min)
Startup calculation              ...        1.103 sec (=   0.018 min)   4.0 %
SCF iterations                   ...       26.652 sec (=   0.444 min)  95.8 %
Property calculations            ...        0.053 sec (=   0.001 min)   0.2 %
                             ****ORCA TERMINATED NORMALLY****
TOTAL RUN TIME: 0 days 0 hours 0 minutes 27 seconds 882 msec
