 Entering Gaussian System
 *********************************************
 Gaussian 98:
 frequency output generated by the xtb code
 *********************************************
                         Standard orientation:
 --------------------------------------------------------------------
  Center     Atomic     Atomic              Coordinates (Angstroms)
  Number     Number      Type              X           Y           Z
 --------------------------------------------------------------------
    1          6             0       -0.735220   -1.816748    0.000009
    2          6             0        0.593099   -1.429611    0.000031
    3          6             0        0.904368   -0.071392    0.000028
    4          6             0       -0.106284    0.889100   -0.000038
    5          6             0       -1.434175    0.486802   -0.000062
    6          6             0       -1.744483   -0.873120   -0.000039
    7          8             0       -2.457884    1.374890   -0.000078
    8          6             0        2.255806    0.345708   -0.000019
    9          7             0        3.349646    0.688632    0.000013
   10          1             0       -0.987182   -2.866213    0.000053
   11          1             0        1.385933   -2.161616    0.000038
   12          1             0        0.151053    1.940266   -0.000060
   13          1             0       -2.783035   -1.162630   -0.000043
   14          1             0       -2.119571    2.278780   -0.000102
 --------------------------------------------------------------------
     1 basis functions        1 primitive gaussians
     1 alpha electrons        1 beta electrons

 Harmonic frequencies (cm**-1), IR intensities (km*mol⁻¹),
 Raman scattering activities (A**4/amu), Raman depolarization ratios,
 reduced masses (AMU), force constants (mDyne/A) and normal coordinates:
                      1                      2                      3
                        a                      a                      a 
 Frequencies --   126.8489               132.4692               213.8834
 Red. masses --     6.3140                 8.0705                 4.2650
 Frc consts  --     0.0000                 0.0000                 0.0000
 IR Inten    --     8.4387                 8.7009                 0.0137
 Raman Activ --     0.0000                 0.0000                 0.0000
 Depolar     --     0.0000                 0.0000                 0.0000
 Atom AN      X      Y      Z        X      Y      Z        X      Y      Z
   1   6     0.00  -0.00  -0.11    -0.17  -0.09   0.00    -0.00   0.00  -0.02
   2   6    -0.00  -0.00   0.25    -0.11  -0.27  -0.00    -0.00   0.00   0.45
   3   6    -0.00   0.00   0.43     0.05  -0.31  -0.00    -0.00   0.00  -0.02
   4   6    -0.00   0.00   0.44     0.15  -0.20   0.00     0.00  -0.00  -0.39
   5   6     0.00   0.00   0.03     0.10  -0.01   0.00     0.00  -0.00  -0.19
   6   6     0.00  -0.00  -0.30    -0.06   0.03   0.00     0.00  -0.00  -0.43
   7   8     0.00   0.00  -0.19     0.30   0.19  -0.00     0.00   0.00   0.50
   8   6    -0.00  -0.00   0.11    -0.03  -0.07  -0.00     0.00  -0.00   0.00
   9   7     0.00   0.00  -0.57    -0.27   0.67  -0.00    -0.00   0.00  -0.01
  10   1    -0.00  -0.00  -0.09    -0.09  -0.02   0.00    -0.00   0.00   0.01
  11   1    -0.00  -0.00   0.08    -0.06  -0.11  -0.00    -0.00   0.00   0.29
  12   1    -0.00   0.00   0.18     0.09  -0.07   0.00     0.00  -0.00  -0.17
  13   1     0.00  -0.00  -0.20    -0.03   0.04   0.00     0.00  -0.00  -0.18
  14   1     0.00   0.00   0.02     0.12   0.03  -0.00    -0.00   0.00   0.17
                      4                      5                      6
                        a                      a                      a 
 Frequencies --   356.3455               378.0130               436.2717
 Red. masses --     4.0720                 4.5774                 1.4974
 Frc consts  --     0.0000                 0.0000                 0.0000
 IR Inten    --     0.4481                 4.7957               128.1988
 Raman Activ --     0.0000                 0.0000                 0.0000
 Depolar     --     0.0000                 0.0000                 0.0000
 Atom AN      X      Y      Z        X      Y      Z        X      Y      Z
   1   6     0.00  -0.00  -0.35     0.16  -0.08   0.00     0.00  -0.00  -0.21
   2   6     0.00   0.00  -0.05     0.12   0.05   0.00     0.00  -0.00   0.24
   3   6    -0.00   0.00   0.30    -0.07   0.10  -0.00    -0.00  -0.00  -0.00
   4   6    -0.00  -0.00  -0.40    -0.24  -0.18   0.00     0.00   0.00   0.06
   5   6    -0.00  -0.00  -0.01    -0.21  -0.23   0.00     0.00   0.00   0.32
   6   6    -0.00  -0.00   0.33    -0.10  -0.27  -0.00     0.00   0.00  -0.01
   7   8     0.00   0.00   0.07     0.39   0.47  -0.00     0.00   0.00   0.09
   8   6    -0.00   0.00   0.51    -0.16   0.29  -0.00    -0.00  -0.00  -0.34
   9   7     0.00  -0.00  -0.25    -0.03  -0.16   0.00    -0.00  -0.00   0.15
  10   1     0.00  -0.00  -0.21     0.10  -0.04   0.00     0.00  -0.00  -0.20
  11   1     0.00   0.00  -0.02     0.06   0.04   0.00     0.00   0.00   0.08
  12   1    -0.00  -0.00  -0.24    -0.13  -0.04   0.00     0.00   0.00  -0.08
  13   1    -0.00  -0.00   0.21    -0.00  -0.16  -0.00     0.00   0.00  -0.11
  14   1     0.00  -0.00  -0.18     0.31   0.04   0.00    -0.00   0.00  -0.76
                      7                      8                      9
                        a                      a                      a 
 Frequencies --   438.5888               456.2871               506.2876
 Red. masses --     8.3552                 2.1832                 7.5448
 Frc consts  --     0.0000                 0.0000                 0.0000
 IR Inten    --     0.5824                46.5029                 1.9719
 Raman Activ --     0.0000                 0.0000                 0.0000
 Depolar     --     0.0000                 0.0000                 0.0000
 Atom AN      X      Y      Z        X      Y      Z        X      Y      Z
   1   6     0.26  -0.12   0.00    -0.00   0.00  -0.33    -0.20  -0.16  -0.00
   2   6     0.21  -0.15  -0.00    -0.00   0.00   0.29    -0.32   0.26  -0.00
   3   6    -0.26  -0.07   0.00     0.00   0.00   0.05    -0.12   0.22   0.00
   4   6     0.06   0.20  -0.00     0.00  -0.00  -0.09     0.10   0.33  -0.00
   5   6     0.12   0.19  -0.00    -0.00  -0.00   0.35     0.33  -0.20   0.00
   6   6     0.43   0.10   0.00    -0.00   0.00   0.21    -0.07  -0.10   0.00
   7   8     0.02   0.08  -0.00    -0.00  -0.00  -0.31     0.46  -0.34   0.00
   8   6    -0.43  -0.09   0.00     0.00  -0.00  -0.31    -0.13   0.03  -0.00
   9   7    -0.47  -0.16  -0.00     0.00   0.00   0.13    -0.12  -0.04   0.00
  10   1     0.01  -0.02   0.00     0.00  -0.00  -0.27     0.01  -0.06  -0.00
  11   1     0.12   0.03  -0.00    -0.00  -0.00   0.10    -0.06   0.11  -0.00
  12   1     0.10   0.04   0.00    -0.00  -0.00  -0.18    -0.04   0.11  -0.00
  13   1     0.12   0.02   0.00    -0.00   0.00   0.00    -0.05   0.09   0.00
  14   1    -0.02   0.03   0.00    -0.00   0.00   0.55     0.11  -0.08   0.00
                     10                     11                     12
                        a                      a                      a 
 Frequencies --   554.5319               602.8634               651.9154
 Red. masses --     7.7492                 8.0236                 3.5475
 Frc consts  --     0.0000                 0.0000                 0.0000
 IR Inten    --    12.0483                10.7984                 0.1887
 Raman Activ --     0.0000                 0.0000                 0.0000
 Depolar     --     0.0000                 0.0000                 0.0000
 Atom AN      X      Y      Z        X      Y      Z        X      Y      Z
   1   6     0.15  -0.02   0.00     0.00   0.00  -0.08    -0.00   0.00   0.36
   2   6     0.03   0.23  -0.00     0.00   0.00  -0.02     0.00   0.00  -0.32
   3   6    -0.06   0.20  -0.00     0.00   0.00   0.56     0.00   0.00   0.48
   4   6    -0.15   0.14  -0.00     0.00  -0.00   0.06     0.00  -0.00  -0.29
   5   6    -0.13  -0.07  -0.00    -0.00  -0.00  -0.57    -0.00   0.00   0.38
   6   6     0.01  -0.14  -0.00    -0.00   0.00   0.17    -0.00   0.00  -0.27
   7   8    -0.00   0.16  -0.00    -0.00  -0.00   0.14     0.00  -0.00  -0.03
   8   6     0.22  -0.78   0.00     0.00  -0.00  -0.48    -0.00  -0.00  -0.12
   9   7    -0.10   0.22  -0.00    -0.00   0.00   0.16    -0.00  -0.00   0.04
  10   1     0.10  -0.02   0.00     0.00   0.00  -0.03     0.00   0.00  -0.01
  11   1     0.05   0.11  -0.00    -0.00  -0.00  -0.10     0.00  -0.00  -0.28
  12   1    -0.10   0.05   0.00    -0.00  -0.00   0.03     0.00  -0.00  -0.28
  13   1     0.02  -0.10   0.00    -0.00   0.00   0.18    -0.00  -0.00  -0.25
  14   1     0.07   0.01   0.00    -0.00   0.00   0.01    -0.00  -0.00   0.03
                     13                     14                     15
                        a                      a                      a 
 Frequencies --   714.5352               793.0954               858.7313
 Red. masses --     7.9984                 1.3854                 1.2743
 Frc consts  --     0.0000                 0.0000                 0.0000
 IR Inten    --     7.2857                40.6128                 1.1128
 Raman Activ --     0.0000                 0.0000                 0.0000
 Depolar     --     0.0000                 0.0000                 0.0000
 Atom AN      X      Y      Z        X      Y      Z        X      Y      Z
   1   6    -0.13  -0.67   0.00     0.00  -0.00  -0.17     0.00  -0.00  -0.10
   2   6    -0.24  -0.10  -0.00    -0.00   0.00  -0.21     0.00  -0.00  -0.22
   3   6    -0.07   0.03   0.00     0.00   0.00   0.21     0.00   0.00  -0.00
   4   6    -0.02   0.24  -0.00     0.00  -0.00  -0.21    -0.00   0.00   0.41
   5   6    -0.04   0.10  -0.00    -0.00   0.00   0.28     0.00  -0.00  -0.06
   6   6     0.28  -0.13   0.00     0.00  -0.00  -0.22     0.00   0.00  -0.03
   7   8    -0.21   0.29  -0.00    -0.00   0.00  -0.06     0.00  -0.00   0.02
   8   6     0.18   0.13  -0.00     0.00   0.00  -0.10    -0.00   0.00   0.01
   9   7     0.26   0.07   0.00    -0.00  -0.00   0.03    -0.00  -0.00  -0.00
  10   1    -0.06  -0.18  -0.00    -0.00   0.00   0.40    -0.00   0.00   0.27
  11   1    -0.00   0.04  -0.00    -0.00   0.00   0.48    -0.00  -0.00   0.35
  12   1     0.01   0.06  -0.00    -0.00   0.00   0.34     0.00  -0.00  -0.76
  13   1     0.06   0.02  -0.00    -0.00   0.00   0.44    -0.00   0.00   0.05
  14   1    -0.02   0.06   0.00    -0.00   0.00  -0.03     0.00  -0.00   0.00
                     16                     17                     18
                        a                      a                      a 
 Frequencies --   890.1887               926.5409               964.0938
 Red. masses --     1.3203                 1.2580                 3.3416
 Frc consts  --     0.0000                 0.0000                 0.0000
 IR Inten    --     0.5218                 0.0885                11.2750
 Raman Activ --     0.0000                 0.0000                 0.0000
 Depolar     --     0.0000                 0.0000                 0.0000
 Atom AN      X      Y      Z        X      Y      Z        X      Y      Z
   1   6    -0.00   0.00  -0.07    -0.00   0.00   0.38    -0.06   0.09  -0.00
   2   6     0.00  -0.00   0.32    -0.00  -0.00  -0.14     0.08  -0.30  -0.00
   3   6    -0.00  -0.00  -0.07    -0.00  -0.00  -0.05    -0.28   0.03   0.00
   4   6    -0.00   0.00   0.09    -0.00   0.00   0.09    -0.43   0.07  -0.00
   5   6    -0.00   0.00   0.09    -0.00  -0.00  -0.04    -0.16   0.01   0.00
   6   6    -0.00  -0.00  -0.36     0.00  -0.00  -0.21     0.26   0.28   0.00
   7   8     0.00  -0.00  -0.02     0.00  -0.00  -0.01     0.27  -0.24   0.00
   8   6     0.00  -0.00   0.02     0.00   0.00   0.00     0.15  -0.01  -0.00
   9   7     0.00   0.00  -0.00     0.00   0.00  -0.00     0.21   0.08   0.00
  10   1    -0.00   0.00   0.14     0.00  -0.00  -0.72    -0.31   0.10   0.00
  11   1     0.00  -0.00  -0.56    -0.00  -0.00   0.30     0.02  -0.08   0.00
  12   1     0.00  -0.00  -0.20     0.00   0.00  -0.04    -0.27   0.06  -0.00
  13   1    -0.00   0.00   0.60    -0.00   0.00   0.42     0.07   0.09  -0.00
  14   1     0.00  -0.00   0.00     0.00  -0.00   0.01     0.16  -0.09   0.00
                     19                     20                     21
                        a                      a                      a 
 Frequencies --   988.1978              1110.5946              1146.6060
 Red. masses --     6.6576                 1.3814                 1.1778
 Frc consts  --     0.0000                 0.0000                 0.0000
 IR Inten    --     0.7983                 7.3663               164.9543
 Raman Activ --     0.0000                 0.0000                 0.0000
 Depolar     --     0.0000                 0.0000                 0.0000
 Atom AN      X      Y      Z        X      Y      Z        X      Y      Z
   1   6     0.01   0.06  -0.00     0.06   0.26  -0.00    -0.05  -0.01  -0.00
   2   6     0.34  -0.42   0.00    -0.30  -0.01  -0.00    -0.02  -0.01  -0.00
   3   6    -0.12  -0.04   0.00    -0.01  -0.07   0.00     0.02  -0.03   0.00
   4   6     0.10   0.58  -0.00     0.10   0.19  -0.00    -0.10  -0.04  -0.00
   5   6     0.05  -0.06   0.00    -0.07  -0.05  -0.00     0.10   0.17   0.00
   6   6    -0.46  -0.21   0.00     0.23  -0.10   0.00    -0.01  -0.10   0.00
   7   8    -0.03   0.05  -0.00    -0.06  -0.01   0.00     0.30   0.03  -0.00
   8   6     0.04   0.02  -0.00    -0.00   0.04  -0.00    -0.00  -0.00   0.00
   9   7     0.08   0.02   0.00     0.02  -0.00   0.00    -0.00   0.00   0.00
  10   1    -0.02   0.01   0.00    -0.01   0.09   0.00    -0.03   0.00  -0.00
  11   1     0.08  -0.13   0.00    -0.37  -0.30  -0.00    -0.03  -0.03   0.00
  12   1     0.04   0.16  -0.00     0.13   0.03   0.00    -0.33   0.06  -0.00
  13   1    -0.12  -0.09  -0.00     0.23  -0.59   0.00     0.09  -0.35   0.00
  14   1    -0.01   0.01   0.00     0.20  -0.08   0.00    -0.71   0.30  -0.00
                     22                     23                     24
                        a                      a                      a 
 Frequencies --  1167.9334              1186.6711              1266.3854
 Red. masses --     1.2219                 1.4447                 1.3043
 Frc consts  --     0.0000                 0.0000                 0.0000
 IR Inten    --    25.4476                35.7400                30.5691
 Raman Activ --     0.0000                 0.0000                 0.0000
 Depolar     --     0.0000                 0.0000                 0.0000
 Atom AN      X      Y      Z        X      Y      Z        X      Y      Z
   1   6    -0.07   0.01  -0.00     0.11   0.04  -0.00     0.02  -0.09   0.00
   2   6    -0.02   0.08  -0.00    -0.08  -0.00   0.00     0.21   0.14   0.00
   3   6    -0.29  -0.07   0.00    -0.34  -0.15   0.00     0.08   0.27  -0.00
   4   6     0.03  -0.07   0.00    -0.22   0.02  -0.00    -0.16  -0.01  -0.00
   5   6    -0.10   0.13  -0.00    -0.08   0.18  -0.00    -0.08  -0.05   0.00
   6   6    -0.10  -0.00  -0.00    -0.02  -0.01  -0.00     0.04  -0.21   0.00
   7   8     0.12  -0.11   0.00     0.19  -0.09   0.00     0.11   0.02  -0.00
   8   6     0.07   0.02  -0.00     0.08   0.02  -0.00    -0.02  -0.03   0.00
   9   7     0.12   0.04   0.00     0.16   0.05   0.00    -0.06  -0.01  -0.00
  10   1    -0.23   0.05  -0.00     0.65  -0.14   0.00    -0.45   0.08  -0.00
  11   1     0.38   0.43   0.00    -0.18  -0.17  -0.00    -0.29  -0.34  -0.00
  12   1     0.51  -0.15   0.00     0.32  -0.09   0.00     0.48  -0.13   0.00
  13   1     0.07  -0.37   0.00    -0.06   0.19  -0.00    -0.07   0.20  -0.00
  14   1    -0.02  -0.01  -0.00    -0.13   0.04  -0.00    -0.20   0.08   0.00
                     25                     26                     27
                        a                      a                      a 
 Frequencies --  1293.5005              1334.2267              1436.9883
 Red. masses --     4.4326                 8.4927                 4.2637
 Frc consts  --     0.0000                 0.0000                 0.0000
 IR Inten    --   101.8238                18.3540               140.9713
 Raman Activ --     0.0000                 0.0000                 0.0000
 Depolar     --     0.0000                 0.0000                 0.0000
 Atom AN      X      Y      Z        X      Y      Z        X      Y      Z
   1   6     0.14   0.31  -0.00    -0.36   0.13  -0.00    -0.20  -0.14  -0.00
   2   6    -0.17   0.03  -0.00     0.24   0.31   0.00     0.29   0.04   0.00
   3   6    -0.42  -0.17   0.00     0.13  -0.47   0.00    -0.36   0.31  -0.00
   4   6     0.04  -0.04   0.00    -0.36   0.12  -0.00    -0.05  -0.29   0.00
   5   6     0.31  -0.46   0.00     0.24   0.25   0.00     0.53   0.04   0.00
   6   6     0.17  -0.18   0.00     0.14  -0.38   0.00    -0.12   0.17  -0.00
   7   8    -0.16   0.24  -0.00    -0.06   0.01   0.00    -0.19   0.06  -0.00
   8   6     0.06   0.03  -0.00    -0.00   0.02  -0.00     0.03  -0.03  -0.00
   9   7     0.14   0.04   0.00     0.01  -0.01   0.00     0.05   0.03   0.00
  10   1    -0.15   0.14  -0.00    -0.03   0.02  -0.00     0.07  -0.07   0.00
  11   1     0.03   0.10  -0.00     0.02   0.04   0.00    -0.11  -0.20   0.00
  12   1    -0.02  -0.02  -0.00    -0.04   0.02  -0.00    -0.03  -0.09   0.00
  13   1    -0.02   0.24  -0.00     0.00   0.03  -0.00     0.06  -0.27   0.00
  14   1    -0.19   0.11   0.00     0.17  -0.06  -0.00     0.13  -0.05   0.00
                     28                     29                     30
                        a                      a                      a 
 Frequencies --  1470.7434              1576.9560              1591.7719
 Red. masses --     3.4381                 7.8270                 8.0665
 Frc consts  --     0.0000                 0.0000                 0.0000
 IR Inten    --    21.6444                13.0783                83.9014
 Raman Activ --     0.0000                 0.0000                 0.0000
 Depolar     --     0.0000                 0.0000                 0.0000
 Atom AN      X      Y      Z        X      Y      Z        X      Y      Z
   1   6     0.43  -0.16   0.00     0.09   0.22  -0.00     0.47  -0.14   0.00
   2   6    -0.02   0.29  -0.00    -0.28  -0.39  -0.00    -0.26  -0.05  -0.00
   3   6    -0.31  -0.23  -0.00     0.05   0.40  -0.00     0.27  -0.14   0.00
   4   6     0.27  -0.10   0.00    -0.05  -0.17   0.00    -0.51   0.10  -0.00
   5   6    -0.07   0.39  -0.00     0.18   0.44  -0.00     0.39  -0.02   0.00
   6   6    -0.23  -0.11  -0.00     0.04  -0.48   0.00    -0.26   0.25  -0.00
   7   8     0.02  -0.10   0.00    -0.03  -0.04   0.00    -0.06   0.03  -0.00
   8   6     0.02   0.02  -0.00    -0.01  -0.02   0.00    -0.01   0.00   0.00
   9   7     0.08   0.02   0.00    -0.02   0.00  -0.00    -0.02  -0.01  -0.00
  10   1    -0.28   0.05  -0.00    -0.00   0.07   0.00    -0.10   0.02  -0.00
  11   1    -0.18  -0.10  -0.00     0.10   0.08  -0.00     0.00   0.06  -0.00
  12   1    -0.26   0.06  -0.00    -0.02  -0.04   0.00     0.13  -0.04   0.00
  13   1    -0.10   0.06  -0.00    -0.05   0.10  -0.00    -0.02  -0.10   0.00
  14   1     0.12  -0.06   0.00     0.11  -0.04   0.00     0.04  -0.01   0.00
                     31                     32                     33
                        a                      a                      a 
 Frequencies --  2377.3500              3066.4061              3092.0218
 Red. masses --    12.7157                 1.0819                 1.0773
 Frc consts  --     0.0000                 0.0000                 0.0000
 IR Inten    --   219.0384                21.8453                 9.6262
 Raman Activ --     0.0000                 0.0000                 0.0000
 Depolar     --     0.0000                 0.0000                 0.0000
 Atom AN      X      Y      Z        X      Y      Z        X      Y      Z
   1   6    -0.01  -0.00  -0.00     0.00  -0.00   0.00     0.05   0.22  -0.00
   2   6     0.01   0.01  -0.00    -0.00  -0.00  -0.00     0.09  -0.08   0.00
   3   6     0.09   0.03  -0.00     0.01   0.00   0.00     0.00  -0.00   0.00
   4   6     0.01  -0.00   0.00     0.07   0.26  -0.00    -0.00   0.00  -0.00
   5   6    -0.00  -0.01   0.00    -0.01   0.01  -0.00    -0.00  -0.00  -0.00
   6   6     0.00   0.00   0.00     0.00  -0.00   0.00    -0.04  -0.01  -0.00
   7   8    -0.00   0.00  -0.00     0.00  -0.00   0.00     0.00   0.00  -0.00
   8   6    -0.74  -0.23  -0.00     0.00   0.00   0.00     0.00   0.00   0.00
   9   7     0.60   0.19   0.00    -0.00  -0.00  -0.00    -0.00  -0.00  -0.00
  10   1    -0.00  -0.00  -0.00     0.00   0.00  -0.00    -0.19  -0.81   0.00
  11   1    -0.00  -0.00   0.00     0.01  -0.01   0.00    -0.33   0.31  -0.00
  12   1    -0.00  -0.00  -0.00    -0.23  -0.93   0.00    -0.00  -0.01   0.00
  13   1     0.00   0.00  -0.00    -0.01  -0.00  -0.00     0.17   0.05   0.00
  14   1     0.00   0.00  -0.00     0.00  -0.01   0.00    -0.00  -0.00  -0.00
                     34                     35                     36
                        a                      a                      a 
 Frequencies --  3103.9371              3115.8687              3514.4832
 Red. masses --     1.0853                 1.0856                 1.0648
 Frc consts  --     0.0000                 0.0000                 0.0000
 IR Inten    --    21.3754                13.4769                23.4735
 Raman Activ --     0.0000                 0.0000                 0.0000
 Depolar     --     0.0000                 0.0000                 0.0000
 Atom AN      X      Y      Z        X      Y      Z        X      Y      Z
   1   6     0.03   0.12  -0.00    -0.02  -0.08   0.00     0.00   0.00   0.00
   2   6    -0.18   0.17  -0.00     0.03  -0.02   0.00    -0.00  -0.00   0.00
   3   6    -0.01  -0.00  -0.00     0.00   0.00   0.00    -0.00   0.00  -0.00
   4   6     0.00  -0.00   0.00     0.00   0.00  -0.00     0.00  -0.00   0.00
   5   6    -0.00   0.00  -0.00    -0.01   0.01  -0.00    -0.00   0.01  -0.00
   6   6    -0.06  -0.02  -0.00    -0.25  -0.07  -0.00     0.00  -0.00  -0.00
   7   8     0.00   0.00   0.00     0.00   0.00  -0.00     0.09   0.22  -0.00
   8   6    -0.00   0.00  -0.00     0.00   0.00   0.00    -0.00  -0.00   0.00
   9   7     0.00   0.00   0.00    -0.00  -0.00   0.00     0.00   0.00   0.00
  10   1    -0.09  -0.40   0.00     0.06   0.25  -0.00    -0.00   0.00  -0.00
  11   1     0.61  -0.57   0.00    -0.09   0.08  -0.00    -0.00   0.00  -0.00
  12   1     0.00   0.01  -0.00    -0.00  -0.01   0.00    -0.00   0.00  -0.00
  13   1     0.22   0.06   0.00     0.88   0.25   0.00    -0.01  -0.00   0.00
  14   1    -0.00  -0.00   0.00    -0.00  -0.00   0.00    -0.33  -0.91   0.00
