      -----------------------------------------------------------      
     |                   =====================                   |     
     |                           x T B                           |     
     |                   =====================                   |     
     |                         S. Grimme                         |     
     |          Mulliken Center for Theoretical Chemistry        |     
     |                    University of Bonn                     |     
      -----------------------------------------------------------      

   * xtb version 6.7.1 (41059b4) compiled by 'michael@archlinux' on 2025-03-24

   xtb is free software: you can redistribute it and/or modify it under
   the terms of the GNU Lesser General Public License as published by
   the Free Software Foundation, either version 3 of the License, or
   (at your option) any later version.
   
   xtb is distributed in the hope that it will be useful,
   but WITHOUT ANY WARRANTY; without even the implied warranty of
   MERCHANTABILITY or FITNESS FOR A PARTICULAR PURPOSE.  See the
   GNU Lesser General Public License for more details.
   
   Cite this work as:
   * C. Bannwarth, E. Caldeweyher, S. Ehlert, A. Hansen, P. Pracht,
     J. Seibert, S. Spicher, S. Grimme, WIREs Comput. Mol. Sci., 2020, 11,
     e01493. DOI: 10.1002/wcms.1493
   
   for GFN2-xTB:
   * C. Bannwarth, S. Ehlert and S. Grimme., J. Chem. Theory Comput., 2019,
     15, 1652-1671. DOI: 10.1021/acs.jctc.8b01176
   for GFN1-xTB:
   * S. Grimme, C. Bannwarth, P. Shushkov, J. Chem. Theory Comput., 2017,
     13, 1989-2009. DOI: 10.1021/acs.jctc.7b00118
   for GFN0-xTB:
   * P. Pracht, E. Caldeweyher, S. Ehlert, S. Grimme, ChemRxiv, 2019, preprint.
     DOI: 10.26434/chemrxiv.8326202.v1
   for GFN-FF:
   * S. Spicher and S. Grimme, Angew. Chem. Int. Ed., 2020, 59, 15665-15673.
     DOI: 10.1002/anie.202004239
   
   for ALPB and GBSA implicit solvation:
   * S. Ehlert, M. Stahn, S. Spicher, S. Grimme, J. Chem. Theory Comput.,
     2021, 17, 4250-4261. DOI: 10.1021/acs.jctc.1c00471
   
   for ddCOSMO and CPCM-X implicit solvation:
   * M. Stahn, S. Ehlert, S. Grimme, J. Phys. Chem. A,
     2023, XX, XXXX-XXXX. DOI: 10.1021/acs.jpca.3c04382
   
   for DFT-D4:
   * E. Caldeweyher, C. Bannwarth and S. Grimme, J. Chem. Phys., 2017,
     147, 034112. DOI: 10.1063/1.4993215
   * E. Caldeweyher, S. Ehlert, A. Hansen, H. Neugebauer, S. Spicher,
     C. Bannwarth and S. Grimme, J. Chem. Phys., 2019, 150, 154122.
     DOI: 10.1063/1.5090222
   * E. Caldeweyher, J.-M. Mewes, S. Ehlert and S. Grimme, Phys. Chem. Chem. Phys.
     2020, 22, 8499-8512. DOI: 10.1039/D0CP00502A
   
   for sTDA-xTB:
   * S. Grimme and C. Bannwarth, J. Chem. Phys., 2016, 145, 054103.
     DOI: 10.1063/1.4959605
   
   in the mass-spec context:
   * V. Asgeirsson, C. Bauer and S. Grimme, Chem. Sci., 2017, 8, 4879.
     DOI: 10.1039/c7sc00601b
   * J. Koopman and S. Grimme, ACS Omega 2019, 4, 12, 15120-15133.
     DOI: 10.1021/acsomega.9b02011
   
   for metadynamics refer to:
   * S. Grimme, J. Chem. Theory Comput., 2019, 155, 2847-2862
     DOI: 10.1021/acs.jctc.9b00143
   
   for SPH calculations refer to:
   * S. Spicher and S. Grimme, J. Chem. Theory Comput., 2021, 17, 1701-1714
     DOI: 10.1021/acs.jctc.0c01306
   
   for ONIOM refer to:
   * C. Plett, A. Katbashev, S. Ehlert, S. Grimme, M. Bursch,
     Phys. Chem. Chem. Phys., 2023, 25, 17860-17868. DOI: 10.1039/D3CP02178E
   
   for DIPRO refer to:
   * J. Kohn, N. Gildemeister, S. Grimme, D. Fazzi, A. Hansen,
     J. Chem. Phys., 2023, just accepted.
   
   for PTB refer to:
   * S. Grimme, M. Mueller, A. Hansen, J. Chem. Phys., 2023, 158, 124111.
     DOI: 10.1063/5.0137838
   
   with help from (in alphabetical order)
   P. Atkinson, C. Bannwarth, F. Bohle, G. Brandenburg, E. Caldeweyher
   M. Checinski, S. Dohm, S. Ehlert, S. Ehrlich, I. Gerasimov, C. Hölzer
   A. Katbashev, J. Kohn, J. Koopman, C. Lavigne, S. Lehtola, F. März, M. Müller,
   F. Musil, H. Neugebauer, J. Pisarek, C. Plett, P. Pracht, F. Pultar,
   J. Seibert, P. Shushkov, S. Spicher, M. Stahn, M. Steiner, T. Strunk,
   J. Stückrath, T. Rose, and J. Unsleber
   
 * started run on 2025/04/09 at 02:30:18.797     
   ID    Z sym.   atoms
    1    6 C      1, 2, 4, 6, 8
    2    1 H      3, 5, 7, 9, 15-20
    3    8 O      10-14

           -------------------------------------------------
          |                Calculation Setup                |
           -------------------------------------------------

          program call               : /usr/bin/xtb xtb_opt.coord --opt normal --orca -I xtb_opt-xcontrol-inp
          coordinate file            : xtb_opt.coord
          omp threads                :                    16

           -------------------------------------------------
          |                   Orca driver                   |
           -------------------------------------------------
orca executable           : /home/michael/Documents/CHEM4561/orca_avx2/orca
orca input file           : xtb_opt.inp
orca input line           : 
orca parallel             : true
orca number of threads    : 16
                         * ORCA takes the control...
  ------------------------------------------------------------------------

                                 *****************
                                 * O   R   C   A *
                                 *****************

                                            #,                                       
                                            ###                                      
                                            ####                                     
                                            #####                                    
                                            ######                                   
                                           ########,                                 
                                     ,,################,,,,,                         
                               ,,#################################,,                 
                          ,,##########################################,,             
                       ,#########################################, ''#####,          
                    ,#############################################,,   '####,        
                  ,##################################################,,,,####,       
                ,###########''''           ''''###############################       
              ,#####''   ,,,,##########,,,,          '''####'''          '####       
            ,##' ,,,,###########################,,,                        '##       
           ' ,,###''''                  '''############,,,                           
         ,,##''                                '''############,,,,        ,,,,,,###''
      ,#''                                            '''#######################'''  
     '                                                          ''''####''''         
             ,#######,   #######,   ,#######,      ##                                
            ,#'     '#,  ##    ##  ,#'     '#,    #''#        ,####,   ,####,        
            ##       ##  ##   ,#'  ##            #'  '#       #'       #'  '#        
            ##       ##  #######   ##           ,######,      #####,   #    #        
            '#,     ,#'  ##    ##  '#,     ,#' ,#      #,     #,   #   #,  ,#        
             '#######'   ##     ##  '#######'  #'      '#     '####' # '####'        



                #########################################################
                #                        -***-                          #
                #          Department of theory and spectroscopy        #
                #                                                       #
                #                      Frank Neese                      #
                #                                                       #
                #     Directorship, Architecture, Infrastructure        #
                #                    SHARK, DRIVERS                     #
                #        Core code/Algorithms in most modules           #
                #                                                       #
                #        Max Planck Institute fuer Kohlenforschung      #
                #                Kaiser Wilhelm Platz 1                 #
                #                 D-45470 Muelheim/Ruhr                 #
                #                      Germany                          #
                #                                                       #
                #                  All rights reserved                  #
                #                        -***-                          #
                #########################################################


                         Program Version 6.0.1  -  RELEASE   -


 With contributions from (in alphabetic order):
[Max-Planck-Institut fuer Kohlenforschung]                               
  Daniel Aravena         : Magnetic Suceptibility                        
  Michael Atanasov       : Ab Initio Ligand Field Theory (pilot matlab implementation)
  Alexander A. Auer      : GIAO ZORA, VPT2 properties, NMR spectrum      
  Ute Becker             : All parallelization in ORCA, NUMFREQ, NUMCALC 
  Giovanni Bistoni       : ED, misc. LED, open-shell LED, HFLD           
  Martin Brehm           : Molecular dynamics                            
  Dmytro Bykov           : pre 5.0 version of the SCF Hessian            
  Marcos Casanova-Páez   : Triplet and SCS-CIS(D). UHF-(DLPNO)-IP/EA/STEOM-CCSD. UHF-CVS-IP/STEOM-CCSD   
  Vijay G. Chilkuri      : MRCI spin determinant printing, contributions to CSF-ICE 
  Pauline Colinet        : FMM embedding                                 
  Dipayan Datta          : RHF DLPNO-CCSD density                        
  Achintya Kumar Dutta   : EOM-CC, STEOM-CC                              
  Nicolas Foglia         : Exact transition moments, OPA infrastructure, MCD improvements    
  Dmitry Ganyushin       : Spin-Orbit,Spin-Spin,Magnetic field MRCI      
  Miquel Garcia-Rates    : C-PCM and meta-GGA Hessian, CCSD/C-PCM, Gaussian charge scheme 
  Tiago L. C. Gouveia    : GS-ROHF, GS-ROCIS                             
  Yang Guo               : DLPNO-NEVPT2, F12-NEVPT2, CIM, IAO-localization        
  Andreas Hansen         : Spin unrestricted coupled pair/coupled cluster methods 
  Ingolf Harden          : AUTO-CI MPn and infrastructure                
  Benjamin Helmich-Paris : MC-RPA, TRAH-(SCF,CASSCF), AVAS, COSX integrals, SCF dyn. polar. 
  Lee Huntington         : MR-EOM, pCC                                   
  Robert Izsak           : Overlap fitted RIJCOSX, COSX-SCS-MP3, EOM     
  Riya Kayal             : Wick's Theorem for AUTO-CI, AUTO-CI UHF-CCSDT 
  Emily Kempfer          : AUTO-CI, RHF CISDT and CCSDT                  
  Christian Kollmar      : KDIIS, OOCD, Brueckner-CCSD(T), CCSD density, CASPT2, CASPT2-K, improved NEVPT2 
  Axel Koslowski         : Symmetry handling                             
  Simone Kossmann        : meta-GGA functionals, TD-DFT gradient, OOMP2, (MP2 Hessian; deprecated post 5.0) 
  Lucas Lang             : DCDCAS                                        
  Marvin Lechner         : AUTO-CI (C++ implementation), FIC-MRCC        
  Spencer Leger          : CASSCF response                               
  Dagmar Lenk            : GEPOL surface, SMD, ORCA-2-JSON               
  Dimitrios Liakos       : Extrapolation schemes; Compound Job, initial MDCI parallelization 
  Dimitrios Manganas     : Further ROCIS development; embedding schemes. LFT, Crystal Embedding 
  Dimitrios Pantazis     : SARC Basis sets                               
  Anastasios Papadopoulos: AUTO-CI, single reference methods and gradients 
  Taras Petrenko         : pre 6.0 DFT Hessian and TD-DFT gradient, (ASA, deprecated), ECA, 1-Electron XAS/XES, NRVS 
  Peter Pinski           : DLPNO-MP2, DLPNO-MP2 Gradient                 
  Christoph Reimann      : Effective Core Potentials                     
  Marius Retegan         : Local ZFS, SOC                                
  Christoph Riplinger    : Optimizer, TS searches, QM/MM, DLPNO-CCSD(T), (RO)-DLPNO pert. Triples 
  Michael Roemelt        : Original ROCIS implementation                 
  Masaaki Saitow         : Open-shell DLPNO-CCSD energy and density      
  Barbara Sandhoefer     : DKH picture change effects                    
  Kantharuban Sivalingam : CASSCF convergence/infrastructure, NEVPT2 and variants, FIC-MRCI 
  Bernardo de Souza      : ESD, SOC TD-DFT                               
  Georgi L. Stoychev     : AutoAux, RI-MP2 NMR, DLPNO-MP2 response, X2C  
  Van Anh Tran           : RI-MP2 g-tensors                              
  Willem Van den Heuvel  : Paramagnetic NMR                              
  Zikuan Wang            : NOTCH, Electric field optimization            
  Frank Wennmohs         : Technical directorship and infrastructure     
  Hang Xu                : AUTO-CI-Response properties                   
                                                                         
[FACCTs GmbH]                                                            
  Markus Bursch, Miquel Garcia-Rates, Christoph Riplinger, Bernardo de Souza, Georgi L. Stoychev 
                                                                 
  APM, Basis sets (HGBS, AHGBS, def-TZVP (Ac-Lr), def2-XVPD (La-Lu)), CI-OPT, improved COSX, DLPNO-Multilevel,           
  DOCKER, DRACO, updates on ESD, GOAT, IRC, LR-CPCM, MBIS, meta-GGA TD-DFT gradient, ML-optimized integration grids, 
  MM, NACMEs, nearIR, NEB, NEB-TS, NL-DFT gradient (VV10), 2- and 3-layer-ONIOM, interface openCOSMO-RS, QMMM,   
  Crystal-QMMM, SF, symmetry and pop. for TD-DFT, r2SCAN hybrids, SOLVATOR                                   
                                                                         
[Other institutions]                                                     
  V. Asgeirsson          : NEB                                           
  Christoph Bannwarth    : sTDA-DFT, sTD-DFT, PBEh-3c, B97-3c, D3        
  Sebastian Ehlert       : rSCAN, r2SCAN, r2SCAN-3c, D4, dhf basis sets  
  Marvin Friede          : D4 for Fr, Ra, Ac-Lr                          
  Lars Goerigk           : TD-DFT with DH, B97 family of functionals     
  Stefan Grimme          : VdW corrections, initial TS optimization, DFT functionals, gCP, sTDA/sTD-DF 
  Waldemar Hujo          : DFT-NL                                        
  H. Jonsson             : NEB                                           
  Holger Kruse           : gCP                                           
  Marcel Mueller         : wB97X-3c, vDZP basis set                      
  Hagen Neugebauer       : wr2SCAN                                       
  Tobias Risthaus        : range-separated hybrid DFT                    
  Lukas Wittmann         : regularized MP2, r2SCAN double-hybrids, wr2SCAN        
                                                                         
We gratefully acknowledge several colleagues who have allowed us to      
interface, adapt or use parts of their codes:                            
  Ed Valeev, F. Pavosevic, A. Kumar             : LibInt (2-el integral package), F12 methods 
  Garnet Chan, S. Sharma, J. Yang, R. Olivares  : DMRG                   
  Ulf Ekstrom                                   : XCFun DFT Library      
  Mihaly Kallay                                 : mrcc  (arbitrary order and MRCC methods)
  Frank Weinhold                                : gennbo (NPA and NBO analysis)           
  Simon Mueller                                 : openCOSMO-RS                            
  Christopher J. Cramer and Donald G. Truhlar   : smd solvation model                     
  S Lehtola, MJT Oliveira, MAL Marques          : LibXC Library                           
  Liviu Ungur et al                             : ANISO software                          


 Your calculation uses the libint2 library for the computation of 2-el integrals
 For citations please refer to: http://libint.valeyev.net

 Your ORCA version has been built with support for libXC version: 6.2.2
 For citations please refer to: https://libxc.gitlab.io

 This ORCA versions uses:
   CBLAS   interface :  Fast vector & matrix operations
   LAPACKE interface :  Fast linear algebra routines
   SCALAPACK package :  Parallel linear algebra routines
   Shared memory     :  Shared parallel matrices
   BLAS/LAPACK       :  OpenBLAS 0.3.27  USE64BITINT DYNAMIC_ARCH NO_AFFINITY Zen SINGLE_THREADED
        Core in use  :  Zen
   Copyright (c) 2011-2014, The OpenBLAS Project




***************************************
The coordinates will be read from file: xtb_opt.xyz
***************************************


Your calculation utilizes the geometrical counterpoise correction gCP
Please cite in your paper:
H.Kruse, S. Grimme J.Chem.Phys., 136, (2012), 154101 
   

Your calculation utilizes the atom-pairwise dispersion correction
based on EEQ partial charges (D4)


================================================================================

----- Orbital basis set information -----
Your calculation utilizes the basis: def2-mTZVPP
   Stefan Grimme, Andreas Hansen, Sebastian Ehlert, and Jan-Michael Mewes 
   J. Chem. Phys. 154, 064103 (2021). DOI: 10.1063/5.0040021

----- AuxJ basis set information -----
Your calculation utilizes the auxiliary basis: def2/J
   F. Weigend, Phys. Chem. Chem. Phys. 8, 1057 (2006).

================================================================================
                                        WARNINGS
                       Please study these warnings very carefully!
================================================================================

WARNING: Old DensityContainer found on disk!
         Will remove this file - 
         If you want to keep old densities, please start your calculation with a different basename. 



WARNING: SCAN, rSCAN, or r2SCAN functional requested.
  ===> : libXC variant has now been activated.



================================================================================
                                       INPUT FILE
================================================================================
NAME = xtb_opt.inp
|  1> ! r2scan-3c def2/J RI DEFGRID2 scfconv7 ENGRAD tightSCF miniprint
|  2> * xyzfile 0 1 xtb_opt.xyz
|  3> 
|  4>                          ****END OF INPUT****
================================================================================

                     *******************************
                     * Energy+Gradient Calculation *
                     *******************************

---------------------------------
CARTESIAN COORDINATES (ANGSTROEM)
---------------------------------
  C      0.630897    1.453855   -0.035011
  C      1.514243    0.196269    0.055132
  H      2.412922    0.293775   -0.568317
  C      0.725017   -1.035069   -0.437477
  H      1.201159   -1.944098   -0.047818
  C     -0.717604   -0.963980    0.073815
  H     -1.275628   -1.843097   -0.264066
  C     -1.406880    0.315395   -0.502302
  H     -1.978293    0.079073   -1.406036
  O     -0.421297    1.254089   -0.978294
  O     -2.259874    0.885984    0.433399
  O     -0.763473   -0.965427    1.506462
  O      0.765981   -1.139563   -1.854078
  O      1.882212    0.062224    1.446132
  H      1.197506    2.323609   -0.373250
  H      0.221455    1.681547    0.959536
  H     -2.020168    0.494018    1.291837
  H      0.082245   -0.620615    1.839635
  H      0.421628   -0.302309   -2.198856
  H      2.578632   -0.601956    1.512545

----------------------------
CARTESIAN COORDINATES (A.U.)
----------------------------
  NO LB      ZA    FRAG     MASS         X           Y           Z
   0 C     6.0000    0    12.011    1.192222    2.747387   -0.066162
   1 C     6.0000    0    12.011    2.861504    0.370895    0.104185
   2 H     1.0000    0     1.008    4.559762    0.555154   -1.073963
   3 C     6.0000    0    12.011    1.370084   -1.955997   -0.826711
   4 H     1.0000    0     1.008    2.269862   -3.673812   -0.090363
   5 C     6.0000    0    12.011   -1.356075   -1.821658    0.139490
   6 H     1.0000    0     1.008   -2.410587   -3.482949   -0.499012
   7 C     6.0000    0    12.011   -2.658618    0.596011   -0.949212
   8 H     1.0000    0     1.008   -3.738433    0.149427   -2.657022
   9 O     8.0000    0    15.999   -0.796136    2.369884   -1.848709
  10 O     8.0000    0    15.999   -4.270544    1.674267    0.819006
  11 O     8.0000    0    15.999   -1.442754   -1.824393    2.846801
  12 O     8.0000    0    15.999    1.447494   -2.153462   -3.503699
  13 O     8.0000    0    15.999    3.556865    0.117586    2.732793
  14 H     1.0000    0     1.008    2.262958    4.390985   -0.705341
  15 H     1.0000    0     1.008    0.418489    3.177664    1.813261
  16 H     1.0000    0     1.008   -3.817564    0.933559    2.441218
  17 H     1.0000    0     1.008    0.155421   -1.172792    3.476406
  18 H     1.0000    0     1.008    0.796762   -0.571282   -4.155236
  19 H     1.0000    0     1.008    4.872908   -1.137532    2.858295

------------------------------------------------------------------------------
                   ___                                                        
                  /   \      - P O W E R E D   B Y -                         
                 /     \                                                     
                 |  |  |   _    _      __       _____    __    __             
                 |  |  |  | |  | |    /  \     |  _  \  |  |  /  |          
                  \  \/   | |  | |   /    \    | | | |  |  | /  /          
                 / \  \   | |__| |  /  /\  \   | |_| |  |  |/  /          
                |  |  |   |  __  | /  /__\  \  |    /   |      \           
                |  |  |   | |  | | |   __   |  |    \   |  |\   \          
                \     /   | |  | | |  |  |  |  | |\  \  |  | \   \       
                 \___/    |_|  |_| |__|  |__|  |_| \__\ |__|  \__/        
                                                                              
                      - O R C A' S   B I G   F R I E N D -                    
                                      &                                       
                       - I N T E G R A L  F E E D E R -                       
                                                                              
 v1 FN, 2020, v2 2021, v3 2022-2024                                           
------------------------------------------------------------------------------


----------------------
SHARK INTEGRAL PACKAGE
----------------------

Number of atoms                             ...     20
Number of basis functions                   ...    265
Number of shells                            ...    125
Maximum angular momentum                    ...      2
Integral batch strategy                     ... SHARK/LIBINT Hybrid
RI-J (if used) integral strategy            ... SPLIT-RIJ (Revised 2003 algorithm where possible)
Printlevel                                  ...      1
Contraction scheme used                     ... SEGMENTED contraction
Prescreening option                         ... SCHWARTZ
   Thresh                                   ... 3.000e-11
   Tcut                                     ... 1.000e-12
   Tpresel                                  ... 1.000e-12 
Coulomb Range Separation                    ... NOT USED
Exchange Range Separation                   ... NOT USED
Multipole approximations                    ... NOT USED
Finite Nucleus Model                        ... NOT USED
CABS basis                                  ... NOT available
Auxiliary Coulomb fitting basis             ... AVAILABLE
   # of basis functions in Aux-J            ...    600
   # of shells in Aux-J                     ...    200
   Maximum angular momentum in Aux-J        ...      4
Auxiliary J/K fitting basis                 ... NOT available
Auxiliary Correlation fitting basis         ... NOT available
Auxiliary 'external' fitting basis          ... NOT available

Checking pre-screening integrals            ... done (  0.0 sec) Dimension = 125
Check shell pair data                       ... done (  0.0 sec)
Shell pair information
Shell pair cut-off parameter TPreSel        ...   1.0e-12
Total number of shell pairs                 ...      7875
Shell pairs after pre-screening             ...      7285
Total number of primitive shell pairs       ...     27980
Primitive shell pairs kept                  ...     18362
          la=0 lb=0:   2204 shell pairs
          la=1 lb=0:   2594 shell pairs
          la=1 lb=1:    786 shell pairs
          la=2 lb=0:    997 shell pairs
          la=2 lb=1:    586 shell pairs
          la=2 lb=2:    118 shell pairs

Calculating one electron integrals          ... done (  0.0 sec)
Calculating RI/J V-Matrix + Cholesky decomp.... done (  0.0 sec)
Calculating Nuclear repulsion               ... done (  0.0 sec) ENN=    637.315154289964 Eh

Diagonalization of the overlap matrix:
Smallest eigenvalue                        ... 4.104e-05
Time for diagonalization                   ...    0.007 sec
Threshold for overlap eigenvalues          ... 1.000e-07
Number of eigenvalues below threshold      ... 0
Time for construction of square roots      ...    0.003 sec
Total time needed                          ...    0.011 sec

-------------------
DFT GRID GENERATION
-------------------

General Integration Accuracy     IntAcc      ... 4.388
Radial Grid Type                 RadialGrid  ... OptM3 with GC (2021)
Angular Grid (max. ang.)         AngularGrid ... 4 (Lebedev-302)
Angular grid pruning method      GridPruning ... 4 (adaptive)
Weight generation scheme         WeightScheme... mBecke (2022)
Basis function cutoff            BFCut       ... 1.0000e-11
Integration weight cutoff        WCut        ... 1.0000e-14
Partially contracted basis set               ... off
Rotationally invariant grid construction     ... off
Angular grids for H and He will be reduced by one unit
Diffuse basis detected: some atoms will have their outermost
                        angular grid increased by 1.

Total number of grid points                  ...    93317
Total number of batches                      ...     1468
Average number of points per batch           ...       63
Average number of grid points per atom       ...     4666
Initializing property integral containers    ... done (  0.0 sec)

SHARK setup successfully completed in   1.1 seconds

Maximum memory used throughout the entire STARTUP-calculation: 46.2 MB
Occupation numbers will be reassigned to an Aufbau configuration
             **** ENERGY FILE WAS UPDATED (xtb_opt.en.tmp) ****
Finished Guess after   0.1 sec
Maximum memory used throughout the entire GUESS-calculation: 21.3 MB
----------------------------------------D-I-I-S--------------------------------------------
Iteration    Energy (Eh)           Delta-E    RMSDP     MaxDP     DIISErr   Damp  Time(sec)
-------------------------------------------------------------------------------------------
               ***  Starting incremental Fock matrix formation  ***
                              *** Initializing SOSCF ***
---------------------------------------S-O-S-C-F--------------------------------------
Iteration    Energy (Eh)           Delta-E    RMSDP     MaxDP     MaxGrad    Time(sec)
--------------------------------------------------------------------------------------
    1    -572.5726415512368703     0.00e+00  4.73e-06  2.03e-04  9.48e-06     3.8
               *** Restarting incremental Fock matrix formation ***
    2    -572.5726415156301528     3.56e-08  8.91e-06  3.47e-04  4.35e-05     4.3
    3    -572.5726411853762556     3.30e-07  6.65e-06  2.16e-04  9.17e-05     2.8
    4    -572.5726416154087701    -4.30e-07  1.95e-06  1.48e-04  2.97e-06     3.0
                  *** Gradient check signals convergence ***

               *****************************************************
               *                     SUCCESS                       *
               *           SCF CONVERGED AFTER   4 CYCLES          *
               *****************************************************

             **** ENERGY FILE WAS UPDATED (xtb_opt.en.tmp) ****

----------------
TOTAL SCF ENERGY
----------------

Total Energy       :       -572.57264161540877 Eh          -15580.49368 eV

Components:
Nuclear Repulsion  :        637.31515428996443 Eh           17342.22701 eV
Electronic Energy  :      -1209.88779590537297 Eh          -32922.72069 eV
One Electron Energy:      -2049.32980972496262 Eh          -55765.09917 eV
Two Electron Energy:        839.44201381958953 Eh           22842.37848 eV

Virial components:
Potential Energy   :      -1142.76891217880438 Eh          -31096.32301 eV
Kinetic Energy     :        570.19627056339561 Eh           15515.82933 eV
Virial Ratio       :          2.00416763696063

DFT components:
N(Alpha)           :       39.999958852638 electrons
N(Beta)            :       39.999958852638 electrons
N(Total)           :       79.999917705277 electrons
E(X)               :      -71.018855270036 Eh       
E(C)               :       -2.663827190334 Eh       
E(XC)              :      -73.682682460371 Eh       

---------------
SCF CONVERGENCE
---------------

  Last Energy change         ...    4.3003e-07  Tolerance :   1.0000e-07
  Last MAX-Density change    ...    1.4768e-04  Tolerance :   1.0000e-07
  Last RMS-Density change    ...    1.9508e-06  Tolerance :   5.0000e-09
  Last DIIS Error            ...    1.5535e-04  Tolerance :   1.0000e-07
  Last Orbital Gradient      ...    2.9663e-06  Tolerance :   1.0000e-04
  Last Orbital Rotation      ...    4.9162e-06  Tolerance :   1.0000e-04


----------------
ORBITAL ENERGIES
----------------

  NO   OCC          E(Eh)            E(eV) 
   0   2.0000     -18.991736      -516.7914 
   1   2.0000     -18.973452      -516.2939 
   2   2.0000     -18.971416      -516.2385 
   3   2.0000     -18.964104      -516.0395 
   4   2.0000     -18.957465      -515.8588 
   5   2.0000     -10.138093      -275.8715 
   6   2.0000     -10.109959      -275.1060 
   7   2.0000     -10.105339      -274.9803 
   8   2.0000     -10.100998      -274.8621 
   9   2.0000     -10.095091      -274.7014 
  10   2.0000      -1.046774       -28.4842 
  11   2.0000      -1.021113       -27.7859 
  12   2.0000      -1.001387       -27.2491 
  13   2.0000      -1.000162       -27.2158 
  14   2.0000      -0.973045       -26.4779 
  15   2.0000      -0.751895       -20.4601 
  16   2.0000      -0.728542       -19.8246 
  17   2.0000      -0.635255       -17.2862 
  18   2.0000      -0.623321       -16.9614 
  19   2.0000      -0.557174       -15.1615 
  20   2.0000      -0.533718       -14.5232 
  21   2.0000      -0.515806       -14.0358 
  22   2.0000      -0.489815       -13.3285 
  23   2.0000      -0.485018       -13.1980 
  24   2.0000      -0.458628       -12.4799 
  25   2.0000      -0.440593       -11.9891 
  26   2.0000      -0.429782       -11.6949 
  27   2.0000      -0.407912       -11.0999 
  28   2.0000      -0.390756       -10.6330 
  29   2.0000      -0.375061       -10.2059 
  30   2.0000      -0.367877       -10.0104 
  31   2.0000      -0.351449        -9.5634 
  32   2.0000      -0.331735        -9.0270 
  33   2.0000      -0.315688        -8.5903 
  34   2.0000      -0.307889        -8.3781 
  35   2.0000      -0.293345        -7.9823 
  36   2.0000      -0.281361        -7.6562 
  37   2.0000      -0.260808        -7.0969 
  38   2.0000      -0.243711        -6.6317 
  39   2.0000      -0.241607        -6.5745 
  40   0.0000       0.014732         0.4009 
  41   0.0000       0.044788         1.2187 
  42   0.0000       0.049286         1.3411 
  43   0.0000       0.085511         2.3269 
  44   0.0000       0.097153         2.6437 
  45   0.0000       0.099746         2.7142 
  46   0.0000       0.111958         3.0465 
  47   0.0000       0.126917         3.4536 
  48   0.0000       0.134767         3.6672 
  49   0.0000       0.147432         4.0118 
  50   0.0000       0.150681         4.1002 
*Only the first 10 virtual orbitals were printed.
Total SCF time: 0 days 0 hours 0 min 14 sec 
Finished LeanSCF after  14.1 sec

Maximum memory used throughout the entire LEANSCF-calculation: 32.2 MB


-------------------------------------------------------------------------------
                          DFT DISPERSION CORRECTION                            
                                                                               
                                DFTD4 V3.4.0                                   
-------------------------------------------------------------------------------
-------------------------   ----------------
Dispersion correction           -0.006596508
-------------------------   ----------------

------------------   -----------------
gCP correction             0.018110899
------------------   -----------------

-------------------------   --------------------
FINAL SINGLE POINT ENERGY      -572.561127224197
-------------------------   --------------------

------------------------------------------------------------------------------
                         ORCA SCF GRADIENT CALCULATION
------------------------------------------------------------------------------

Nuc. rep. gradient        (SHARK) ... done (  0.0 sec)
HCore & Overlap gradient  (SHARK) ... done (  0.7 sec)
Split-RIJ-J gradient      (SHARK) ... done (  2.0 sec)
XC gradient                       ... done (  9.4 sec)
Dispersion correction             ... done (  0.0 sec)

-------------------
DISPERSION GRADIENT
-------------------

   1   C   :    0.000009376    0.000055167   -0.000004415
   2   C   :    0.000063732    0.000007501    0.000000260
   3   H   :    0.000043340    0.000006038   -0.000005207
   4   C   :    0.000026583   -0.000038123   -0.000015890
   5   H   :    0.000021517   -0.000038139   -0.000007521
   6   C   :   -0.000040486   -0.000029088   -0.000004973
   7   H   :   -0.000027311   -0.000037912    0.000000712
   8   C   :   -0.000035191    0.000018449   -0.000015199
   9   H   :   -0.000041156    0.000010563   -0.000016845
  10   O   :   -0.000029738    0.000055371   -0.000042213
  11   O   :   -0.000099807    0.000025656    0.000036925
  12   O   :   -0.000024017   -0.000040396    0.000080380
  13   O   :    0.000023289   -0.000035715   -0.000098636
  14   O   :    0.000102183   -0.000010249    0.000066717
  15   H   :    0.000022492    0.000053072   -0.000008464
  16   H   :    0.000005372    0.000036437    0.000011215
  17   H   :   -0.000048914    0.000015457   -0.000000435
  18   H   :   -0.000022229   -0.000024935    0.000027625
  19   H   :    0.000018133   -0.000033280   -0.000033579
  20   H   :    0.000032831    0.000004126    0.000029543

Difference to translation invariance:
           :    0.0000000000    0.0000000000    0.0000000000

Difference to rotation invariance:
           :   -0.0000000000   -0.0000000000   -0.0000000000

Norm of the Dispersion gradient    ...    0.0002983934
RMS gradient                       ...    0.0000385224
MAX gradient                       ...    0.0001021832
gCP correction                   ... done

------------------
CARTESIAN GRADIENT
------------------

   1   C   :   -0.000183716    0.000154149   -0.000205182
   2   C   :    0.000044605   -0.000002194    0.000216460
   3   H   :    0.000031189   -0.000036769   -0.000032475
   4   C   :    0.000134137   -0.000171113   -0.000319432
   5   H   :   -0.000001860   -0.000032567    0.000027128
   6   C   :   -0.000085051   -0.000211104    0.000215658
   7   H   :    0.000010303   -0.000003068   -0.000028411
   8   C   :   -0.000299118    0.000206352    0.000191217
   9   H   :   -0.000008356   -0.000023683   -0.000048260
  10   O   :    0.000195880    0.000067453   -0.000008884
  11   O   :    0.000093465    0.000052867   -0.000064404
  12   O   :    0.000233509    0.000253470   -0.000073513
  13   O   :   -0.000043745    0.000075039    0.000144366
  14   O   :    0.000021361   -0.000174514    0.000008662
  15   H   :   -0.000025738   -0.000047341    0.000105274
  16   H   :    0.000031321   -0.000016598   -0.000040672
  17   H   :    0.000082019   -0.000072837   -0.000072438
  18   H   :   -0.000168984   -0.000131188    0.000009377
  19   H   :    0.000013004   -0.000064339   -0.000023358
  20   H   :   -0.000074226    0.000177984   -0.000001112

Difference to translation invariance:
           :   -0.0000000000   -0.0000000000   -0.0000000000

Difference to rotation invariance:
           :   -0.0002575423   -0.0002277844   -0.0005053354

Norm of the Cartesian gradient     ...    0.0009685331
RMS gradient                       ...    0.0001250371
MAX gradient                       ...    0.0003194318

-------
TIMINGS
-------

Total SCF gradient time     ....       12.057 sec

Densities                   ....       0.002 sec  (  0.0%)
One electron gradient       ....       0.668 sec  (  5.5%)
RI-J Coulomb gradient       ....       1.967 sec  ( 16.3%)
XC gradient                 ....       9.380 sec  ( 77.8%)

Maximum memory used throughout the entire SCFGRAD-calculation: 41.5 MB

------------------------------------------------------------------------------
                              ORCA PROPERTY CALCULATIONS
------------------------------------------------------------------------------

GBWName                                 ... xtb_opt.gbw
Number of atoms                         ...     20
Number of basis functions               ...    265
Max core memory                         ...   1024 MB

Electric properties:
Dipole moment                           ... YES
Quadrupole moment                       ...  NO
Static polarizability (Dipole/Dipole)   ...  NO
Static polarizability (Dipole/Quad.)    ...  NO
Static polarizability (Quad./Quad.)     ...  NO
Static polarizability (Velocity)        ...  NO

Atomic electric properties:
Dipole moment                           ...  NO
Quadrupole moment                       ...  NO
Static polarizability                   ...  NO

Choice of electric origin               ... Center of mass
Position of electric origin             ...    -0.011605     0.008943    -0.006934

General magnetic properties:
Magnetizability                         ...  NO

EPR properties:
g-Tensor (aka g-matrix)                 ...  NO
Zero-Field splitting spin-orbit         ...  NO
Zero-field splitting spin-spin          ...  NO
Hyperfine couplings                     ...  NO (   0 nuclei)
Quadrupole couplings                    ...  NO (   0 nuclei)
Contact density                         ...  NO (   0 nuclei)

NMR properties:
Chemical shifts                         ...  NO (   0 nuclei)
Spin-rotation constants                 ...  NO (   0 nuclei)
Spin-spin couplings                     ...  NO (   0 nuclei,    0 pairs)

Choice of magnetic origin               ... GIAO
Position of magnetic origin             ...     0.000000     0.000000     0.000000

Properties with geometric perturbations:
SCF Hessian                             ...  NO
IR spectrum                             ...  NO
VCD spectrum                            ...  NO
X-ray spectroscopy properties:
SCF XES/XAS/RIXS spectra                ...  NO


-------------
DIPOLE MOMENT
-------------

Method             : SCF
Type of density    : Electron Density
Multiplicity       :   1
Irrep              :   0
Energy             :  -572.5726416154087701 Eh
Relativity type    : 
Basis              : AO
                                X                 Y                 Z
Electronic contribution:     -1.540624282       0.176033829      -0.465585897
Nuclear contribution   :      2.712078871      -0.456157192       0.742020973
                        -----------------------------------------
Total Dipole Moment    :      1.171454589      -0.280123362       0.276435075
                        -----------------------------------------
Magnitude (a.u.)       :      1.235795818
Magnitude (Debye)      :      3.141143338



--------------------
Rotational spectrum 
--------------------
 
Rotational constants in cm-1:             0.056676             0.042661             0.039544 
Rotational constants in MHz :          1699.110170          1278.938239          1185.505971 

Dipole components along the rotational axes: 
x,y,z [a.u.] :     1.203879    -0.278729     0.013249 
x,y,z [Debye]:     3.060018    -0.708474     0.033676 

 

Dipole moment calculation done in   0.0 sec 

Maximum memory used throughout the entire PROP-calculation: 20.3 MB

--------------------------------
SUGGESTED CITATIONS FOR THIS RUN
--------------------------------

Below you find a list of papers that are relevant to this ORCA run
We neither can nor want to force you to cite these papers, but we appreciate if you do
You receive ORCA, which is the product of decades of hard work by many enthusiastic individuals, for free
The only thing we kindly ask in return is that you cite our papers,
We deeply appreciate it, if you show your appreciation for ORCA by not just citing the generic ORCA reference.

Please note that relegating all ORCA citations to the supporting information does *not* help us.
SI sections are not indexed - citations you put there will not count into any citation statistics
But we need these citations in order to attract the funding resources that allow us to do what we are doing

Therefore, if you are a happy ORCA user, please consider citing a few of the papers listed below in the main body of your paper

In addition to the list printed below, the program has created the file xtb_opt.bibtex that contains the list in bibtex format
You can import this file easily into all common literature databanks and citation aid programs


List of essential papers. We consider these as the minimum necessary citations

  1. Neese,F.
     Software update: the ORCA program system, version 5.0
     WIRES Comput. Molec. Sci., 2022 12(1)e1606
     doi.org/10.1002/wcms.1606
  2. Grimme,S.; Hansen,A.; Ehlert,S.; Mewes,J.
     r2SCAN-3c: A 'Swiss army knife' composite electronic-structure method
     J. Chem. Phys., 2021 154 064103
     doi.org/10.1063/5.0040021

List of papers to cite with high priority. The work reported in these papers was absolutely
necessary for this run to complete.
Our perspective: the developers of density functionals and basis sets usually get cited in chemistry papers
Good! But without the algorithms to do something with them, the functionals or basis sets would not do anything.
Hence, in our opinion, the algorithm design and method developments papers are equally worthy of getting cited

  1. Neese,F.
     An improvement of the resolution of the identity approximation for the formation of the Coulomb matrix
     J. Comp. Chem., 2003 24(14)1740-1747
     doi.org/10.1002/jcc.10318
  2. Neese,F.
     The SHARK Integral Generation and Digestion System
     J. Comp. Chem., 2022  1-16
     doi.org/10.1002/jcc.26942
  3. Lehtola,S.; Steigemann,C.; Oliveira,M.; Marques,M.
     Recent developments in Libxc - A comprehensive library of functionals for density functional theory
     Software X, 2018 7 
     doi.org/10.1016/j.softx.2017.11.002
  4. Caldeweyher,E.; Bannwarth,C.; Grimme,S.
     Extension of the D3 dispersion coefficient model
     J. Chem. Phys., 2017 147 034112
     doi.org/10.1063/1.4993215
  5. Caldeweyher,E.; Ehlert,S.; Hansen,A.; Neugebauer,H.; Spicher,S.; Bannwarth,C.; Grimme,S.
     A generally applicable atomic-charge dependent London dispersion correction
     J. Chem. Phys., 2019 150 154122
     doi.org/10.1063/1.5090222
  6. Caldeweyher,E.; Mewes,J.; Ehlert,S.; Grimme,S.
     Extension and evaluation of the D4 London-dispersion model for periodic systems
     Phys. Chem. Chem. Phys., 2020 22(16)8499-8512
     doi.org/10.1039/D0CP00502A
  7. Wittmann,L.; Gordiy,I.; Friede,M.; Helmich-Paris,B.; Grimme,S.; Hansen,A.; Bursch,M.
     Extension of the D3 and D4 London Dispersion Corrections to the full Actinides Series
     Phys. Chem. Chem. Phys., 2024 26(32)21379-21394
     doi.org/https://doi.org/10.1039/D4CP01514B 

List of suggested additional citations. These are papers that are important in the 'surrounding' of 
of this run, or papers that preceded the highly important papers. If you like your results we are grateful for a citation.

  1. Neese,F.
     The ORCA program system
     WIRES Comput. Molec. Sci., 2012 2(1)73-78
     doi.org/10.1002/wcms.81
  2. Neese,F.
     Software update: the ORCA program system, version 4.0
     WIRES Comput. Molec. Sci., 2018 8(1)1-6
     doi.org/10.1002/wcms.1327
  3. Neese,F.; Wennmohs,F.; Becker,U.; Riplinger,C.
     The ORCA quantum chemistry program package
     J. Chem. Phys., 2020 152 Art. No. L224108
     doi.org/10.1063/5.0004608

List of optional additional citations

  1. Neese,F.
     Approximate second-order SCF convergence for spin unrestricted wavefunctions
     Chem. Phys. Lett., 2000 325(1-3)93-98
     doi.org/10.1016/s0009-2614(00)00662-x

Timings for individual modules:

Sum of individual times          ...       27.517 sec (=   0.459 min)
Startup calculation              ...        1.086 sec (=   0.018 min)   3.9 %
SCF iterations                   ...       14.202 sec (=   0.237 min)  51.6 %
Property calculations            ...        0.079 sec (=   0.001 min)   0.3 %
SCF Gradient evaluation          ...       12.151 sec (=   0.203 min)  44.2 %
                             ****ORCA TERMINATED NORMALLY****
TOTAL RUN TIME: 0 days 0 hours 0 minutes 27 seconds 636 msec
  ------------------------------------------------------------------------
          * successful ORCA run, taking over control again...

         :::::::::::::::::::::::::::::::::::::::::::::::::::::
         ::                  ORCA SUMMARY                   ::
         :::::::::::::::::::::::::::::::::::::::::::::::::::::
         :: total energy            -572.561127224197 Eh    ::
         :: gradient norm              0.000968533128 Eh/a0 ::
         :: HOMO-LUMO gap              0.000000000000 eV    ::
         :::::::::::::::::::::::::::::::::::::::::::::::::::::

      ----------------------------------------------------------- 
     |                       L-ANC optimizer                     |
      ----------------------------------------------------------- 
          low memory version by Sebastian Ehlert

          ...................................................
          :                      SETUP                      :
          :.................................................:
          :   energy convergence        0.5000000E-05 Eh    :
          :   grad. convergence         0.1000000E-02 Eh/a0 :
          :   optimization log               true           :
          :   writing optlog all                1     steps :
          :   Hessian reset                     8     steps :
          :   maximium step len.        1.0000000     a0    :
          :   LBFGS images                      8           :
          ...................................................
 * calculating model hessian...
Using Lindh-Hessian (1995)
 Shifting diagonal of input Hessian by    1.0000000000000000E-002
 Lowest  eigenvalues of input Hessian
    0.000000    0.000000    0.000000    0.000000    0.000000    0.000000
    0.015797    0.018196    0.022444    0.023484    0.023661    0.028541
    0.030696    0.038056    0.041379    0.044705    0.048702    0.059152
 Highest eigenvalues
    1.307330    1.382356    1.405467    1.434929    1.497970    1.574341


........................................................................
.............................. CYCLE    1 ..............................
........................................................................
                         * ORCA takes the control...
  ------------------------------------------------------------------------

                                 *****************
                                 * O   R   C   A *
                                 *****************

                                            #,                                       
                                            ###                                      
                                            ####                                     
                                            #####                                    
                                            ######                                   
                                           ########,                                 
                                     ,,################,,,,,                         
                               ,,#################################,,                 
                          ,,##########################################,,             
                       ,#########################################, ''#####,          
                    ,#############################################,,   '####,        
                  ,##################################################,,,,####,       
                ,###########''''           ''''###############################       
              ,#####''   ,,,,##########,,,,          '''####'''          '####       
            ,##' ,,,,###########################,,,                        '##       
           ' ,,###''''                  '''############,,,                           
         ,,##''                                '''############,,,,        ,,,,,,###''
      ,#''                                            '''#######################'''  
     '                                                          ''''####''''         
             ,#######,   #######,   ,#######,      ##                                
            ,#'     '#,  ##    ##  ,#'     '#,    #''#        ,####,   ,####,        
            ##       ##  ##   ,#'  ##            #'  '#       #'       #'  '#        
            ##       ##  #######   ##           ,######,      #####,   #    #        
            '#,     ,#'  ##    ##  '#,     ,#' ,#      #,     #,   #   #,  ,#        
             '#######'   ##     ##  '#######'  #'      '#     '####' # '####'        



                #########################################################
                #                        -***-                          #
                #          Department of theory and spectroscopy        #
                #                                                       #
                #                      Frank Neese                      #
                #                                                       #
                #     Directorship, Architecture, Infrastructure        #
                #                    SHARK, DRIVERS                     #
                #        Core code/Algorithms in most modules           #
                #                                                       #
                #        Max Planck Institute fuer Kohlenforschung      #
                #                Kaiser Wilhelm Platz 1                 #
                #                 D-45470 Muelheim/Ruhr                 #
                #                      Germany                          #
                #                                                       #
                #                  All rights reserved                  #
                #                        -***-                          #
                #########################################################


                         Program Version 6.0.1  -  RELEASE   -


 With contributions from (in alphabetic order):
[Max-Planck-Institut fuer Kohlenforschung]                               
  Daniel Aravena         : Magnetic Suceptibility                        
  Michael Atanasov       : Ab Initio Ligand Field Theory (pilot matlab implementation)
  Alexander A. Auer      : GIAO ZORA, VPT2 properties, NMR spectrum      
  Ute Becker             : All parallelization in ORCA, NUMFREQ, NUMCALC 
  Giovanni Bistoni       : ED, misc. LED, open-shell LED, HFLD           
  Martin Brehm           : Molecular dynamics                            
  Dmytro Bykov           : pre 5.0 version of the SCF Hessian            
  Marcos Casanova-Páez   : Triplet and SCS-CIS(D). UHF-(DLPNO)-IP/EA/STEOM-CCSD. UHF-CVS-IP/STEOM-CCSD   
  Vijay G. Chilkuri      : MRCI spin determinant printing, contributions to CSF-ICE 
  Pauline Colinet        : FMM embedding                                 
  Dipayan Datta          : RHF DLPNO-CCSD density                        
  Achintya Kumar Dutta   : EOM-CC, STEOM-CC                              
  Nicolas Foglia         : Exact transition moments, OPA infrastructure, MCD improvements    
  Dmitry Ganyushin       : Spin-Orbit,Spin-Spin,Magnetic field MRCI      
  Miquel Garcia-Rates    : C-PCM and meta-GGA Hessian, CCSD/C-PCM, Gaussian charge scheme 
  Tiago L. C. Gouveia    : GS-ROHF, GS-ROCIS                             
  Yang Guo               : DLPNO-NEVPT2, F12-NEVPT2, CIM, IAO-localization        
  Andreas Hansen         : Spin unrestricted coupled pair/coupled cluster methods 
  Ingolf Harden          : AUTO-CI MPn and infrastructure                
  Benjamin Helmich-Paris : MC-RPA, TRAH-(SCF,CASSCF), AVAS, COSX integrals, SCF dyn. polar. 
  Lee Huntington         : MR-EOM, pCC                                   
  Robert Izsak           : Overlap fitted RIJCOSX, COSX-SCS-MP3, EOM     
  Riya Kayal             : Wick's Theorem for AUTO-CI, AUTO-CI UHF-CCSDT 
  Emily Kempfer          : AUTO-CI, RHF CISDT and CCSDT                  
  Christian Kollmar      : KDIIS, OOCD, Brueckner-CCSD(T), CCSD density, CASPT2, CASPT2-K, improved NEVPT2 
  Axel Koslowski         : Symmetry handling                             
  Simone Kossmann        : meta-GGA functionals, TD-DFT gradient, OOMP2, (MP2 Hessian; deprecated post 5.0) 
  Lucas Lang             : DCDCAS                                        
  Marvin Lechner         : AUTO-CI (C++ implementation), FIC-MRCC        
  Spencer Leger          : CASSCF response                               
  Dagmar Lenk            : GEPOL surface, SMD, ORCA-2-JSON               
  Dimitrios Liakos       : Extrapolation schemes; Compound Job, initial MDCI parallelization 
  Dimitrios Manganas     : Further ROCIS development; embedding schemes. LFT, Crystal Embedding 
  Dimitrios Pantazis     : SARC Basis sets                               
  Anastasios Papadopoulos: AUTO-CI, single reference methods and gradients 
  Taras Petrenko         : pre 6.0 DFT Hessian and TD-DFT gradient, (ASA, deprecated), ECA, 1-Electron XAS/XES, NRVS 
  Peter Pinski           : DLPNO-MP2, DLPNO-MP2 Gradient                 
  Christoph Reimann      : Effective Core Potentials                     
  Marius Retegan         : Local ZFS, SOC                                
  Christoph Riplinger    : Optimizer, TS searches, QM/MM, DLPNO-CCSD(T), (RO)-DLPNO pert. Triples 
  Michael Roemelt        : Original ROCIS implementation                 
  Masaaki Saitow         : Open-shell DLPNO-CCSD energy and density      
  Barbara Sandhoefer     : DKH picture change effects                    
  Kantharuban Sivalingam : CASSCF convergence/infrastructure, NEVPT2 and variants, FIC-MRCI 
  Bernardo de Souza      : ESD, SOC TD-DFT                               
  Georgi L. Stoychev     : AutoAux, RI-MP2 NMR, DLPNO-MP2 response, X2C  
  Van Anh Tran           : RI-MP2 g-tensors                              
  Willem Van den Heuvel  : Paramagnetic NMR                              
  Zikuan Wang            : NOTCH, Electric field optimization            
  Frank Wennmohs         : Technical directorship and infrastructure     
  Hang Xu                : AUTO-CI-Response properties                   
                                                                         
[FACCTs GmbH]                                                            
  Markus Bursch, Miquel Garcia-Rates, Christoph Riplinger, Bernardo de Souza, Georgi L. Stoychev 
                                                                 
  APM, Basis sets (HGBS, AHGBS, def-TZVP (Ac-Lr), def2-XVPD (La-Lu)), CI-OPT, improved COSX, DLPNO-Multilevel,           
  DOCKER, DRACO, updates on ESD, GOAT, IRC, LR-CPCM, MBIS, meta-GGA TD-DFT gradient, ML-optimized integration grids, 
  MM, NACMEs, nearIR, NEB, NEB-TS, NL-DFT gradient (VV10), 2- and 3-layer-ONIOM, interface openCOSMO-RS, QMMM,   
  Crystal-QMMM, SF, symmetry and pop. for TD-DFT, r2SCAN hybrids, SOLVATOR                                   
                                                                         
[Other institutions]                                                     
  V. Asgeirsson          : NEB                                           
  Christoph Bannwarth    : sTDA-DFT, sTD-DFT, PBEh-3c, B97-3c, D3        
  Sebastian Ehlert       : rSCAN, r2SCAN, r2SCAN-3c, D4, dhf basis sets  
  Marvin Friede          : D4 for Fr, Ra, Ac-Lr                          
  Lars Goerigk           : TD-DFT with DH, B97 family of functionals     
  Stefan Grimme          : VdW corrections, initial TS optimization, DFT functionals, gCP, sTDA/sTD-DF 
  Waldemar Hujo          : DFT-NL                                        
  H. Jonsson             : NEB                                           
  Holger Kruse           : gCP                                           
  Marcel Mueller         : wB97X-3c, vDZP basis set                      
  Hagen Neugebauer       : wr2SCAN                                       
  Tobias Risthaus        : range-separated hybrid DFT                    
  Lukas Wittmann         : regularized MP2, r2SCAN double-hybrids, wr2SCAN        
                                                                         
We gratefully acknowledge several colleagues who have allowed us to      
interface, adapt or use parts of their codes:                            
  Ed Valeev, F. Pavosevic, A. Kumar             : LibInt (2-el integral package), F12 methods 
  Garnet Chan, S. Sharma, J. Yang, R. Olivares  : DMRG                   
  Ulf Ekstrom                                   : XCFun DFT Library      
  Mihaly Kallay                                 : mrcc  (arbitrary order and MRCC methods)
  Frank Weinhold                                : gennbo (NPA and NBO analysis)           
  Simon Mueller                                 : openCOSMO-RS                            
  Christopher J. Cramer and Donald G. Truhlar   : smd solvation model                     
  S Lehtola, MJT Oliveira, MAL Marques          : LibXC Library                           
  Liviu Ungur et al                             : ANISO software                          


 Your calculation uses the libint2 library for the computation of 2-el integrals
 For citations please refer to: http://libint.valeyev.net

 Your ORCA version has been built with support for libXC version: 6.2.2
 For citations please refer to: https://libxc.gitlab.io

 This ORCA versions uses:
   CBLAS   interface :  Fast vector & matrix operations
   LAPACKE interface :  Fast linear algebra routines
   SCALAPACK package :  Parallel linear algebra routines
   Shared memory     :  Shared parallel matrices
   BLAS/LAPACK       :  OpenBLAS 0.3.27  USE64BITINT DYNAMIC_ARCH NO_AFFINITY Zen SINGLE_THREADED
        Core in use  :  Zen
   Copyright (c) 2011-2014, The OpenBLAS Project




***************************************
The coordinates will be read from file: xtb_opt.xyz
***************************************


Your calculation utilizes the geometrical counterpoise correction gCP
Please cite in your paper:
H.Kruse, S. Grimme J.Chem.Phys., 136, (2012), 154101 
   

Your calculation utilizes the atom-pairwise dispersion correction
based on EEQ partial charges (D4)


================================================================================

----- Orbital basis set information -----
Your calculation utilizes the basis: def2-mTZVPP
   Stefan Grimme, Andreas Hansen, Sebastian Ehlert, and Jan-Michael Mewes 
   J. Chem. Phys. 154, 064103 (2021). DOI: 10.1063/5.0040021

----- AuxJ basis set information -----
Your calculation utilizes the auxiliary basis: def2/J
   F. Weigend, Phys. Chem. Chem. Phys. 8, 1057 (2006).

================================================================================
                                        WARNINGS
                       Please study these warnings very carefully!
================================================================================

WARNING: Old DensityContainer found on disk!
         Will remove this file - 
         If you want to keep old densities, please start your calculation with a different basename. 



WARNING: SCAN, rSCAN, or r2SCAN functional requested.
  ===> : libXC variant has now been activated.



================================================================================
                                       INPUT FILE
================================================================================
NAME = xtb_opt.inp
|  1> ! r2scan-3c def2/J RI DEFGRID2 scfconv7 ENGRAD tightSCF miniprint
|  2> * xyzfile 0 1 xtb_opt.xyz
|  3> 
|  4>                          ****END OF INPUT****
================================================================================

                     *******************************
                     * Energy+Gradient Calculation *
                     *******************************

---------------------------------
CARTESIAN COORDINATES (ANGSTROEM)
---------------------------------
  C      0.631331    1.453902   -0.034641
  C      1.514672    0.196556    0.054755
  H      2.413011    0.294048   -0.569023
  C      0.724883   -1.034485   -0.436938
  H      1.201122   -1.943472   -0.047440
  C     -0.717588   -0.963945    0.073958
  H     -1.275376   -1.843138   -0.264087
  C     -1.406695    0.314883   -0.502241
  H     -1.977610    0.078602   -1.406199
  O     -0.421474    1.254049   -0.977551
  O     -2.260938    0.885100    0.432880
  O     -0.763829   -0.966283    1.506696
  O      0.765962   -1.139260   -1.853721
  O      1.883450    0.062458    1.445585
  H      1.197764    2.323464   -0.374188
  H      0.222242    1.681999    0.960056
  H     -2.021645    0.494368    1.292016
  H      0.081482   -0.619401    1.839583
  H      0.421827   -0.301806   -2.198385
  H      2.578086   -0.603914    1.511874

----------------------------
CARTESIAN COORDINATES (A.U.)
----------------------------
  NO LB      ZA    FRAG     MASS         X           Y           Z
   0 C     6.0000    0    12.011    1.193043    2.747477   -0.065461
   1 C     6.0000    0    12.011    2.862314    0.371437    0.103473
   2 H     1.0000    0     1.008    4.559930    0.555670   -1.075298
   3 C     6.0000    0    12.011    1.369831   -1.954893   -0.825693
   4 H     1.0000    0     1.008    2.269792   -3.672630   -0.089649
   5 C     6.0000    0    12.011   -1.356045   -1.821592    0.139761
   6 H     1.0000    0     1.008   -2.410112   -3.483026   -0.499052
   7 C     6.0000    0    12.011   -2.658268    0.595042   -0.949098
   8 H     1.0000    0     1.008   -3.737141    0.148536   -2.657332
   9 O     8.0000    0    15.999   -0.796471    2.369809   -1.847304
  10 O     8.0000    0    15.999   -4.272553    1.672597    0.818024
  11 O     8.0000    0    15.999   -1.443428   -1.826009    2.847243
  12 O     8.0000    0    15.999    1.447458   -2.152890   -3.503025
  13 O     8.0000    0    15.999    3.559204    0.118028    2.731759
  14 H     1.0000    0     1.008    2.263446    4.390710   -0.707113
  15 H     1.0000    0     1.008    0.419977    3.178517    1.814242
  16 H     1.0000    0     1.008   -3.820355    0.934220    2.441557
  17 H     1.0000    0     1.008    0.153980   -1.170499    3.476308
  18 H     1.0000    0     1.008    0.797138   -0.570331   -4.154346
  19 H     1.0000    0     1.008    4.871877   -1.141231    2.857028

------------------------------------------------------------------------------
                   ___                                                        
                  /   \      - P O W E R E D   B Y -                         
                 /     \                                                     
                 |  |  |   _    _      __       _____    __    __             
                 |  |  |  | |  | |    /  \     |  _  \  |  |  /  |          
                  \  \/   | |  | |   /    \    | | | |  |  | /  /          
                 / \  \   | |__| |  /  /\  \   | |_| |  |  |/  /          
                |  |  |   |  __  | /  /__\  \  |    /   |      \           
                |  |  |   | |  | | |   __   |  |    \   |  |\   \          
                \     /   | |  | | |  |  |  |  | |\  \  |  | \   \       
                 \___/    |_|  |_| |__|  |__|  |_| \__\ |__|  \__/        
                                                                              
                      - O R C A' S   B I G   F R I E N D -                    
                                      &                                       
                       - I N T E G R A L  F E E D E R -                       
                                                                              
 v1 FN, 2020, v2 2021, v3 2022-2024                                           
------------------------------------------------------------------------------


----------------------
SHARK INTEGRAL PACKAGE
----------------------

Number of atoms                             ...     20
Number of basis functions                   ...    265
Number of shells                            ...    125
Maximum angular momentum                    ...      2
Integral batch strategy                     ... SHARK/LIBINT Hybrid
RI-J (if used) integral strategy            ... SPLIT-RIJ (Revised 2003 algorithm where possible)
Printlevel                                  ...      1
Contraction scheme used                     ... SEGMENTED contraction
Prescreening option                         ... SCHWARTZ
   Thresh                                   ... 3.000e-11
   Tcut                                     ... 1.000e-12
   Tpresel                                  ... 1.000e-12 
Coulomb Range Separation                    ... NOT USED
Exchange Range Separation                   ... NOT USED
Multipole approximations                    ... NOT USED
Finite Nucleus Model                        ... NOT USED
CABS basis                                  ... NOT available
Auxiliary Coulomb fitting basis             ... AVAILABLE
   # of basis functions in Aux-J            ...    600
   # of shells in Aux-J                     ...    200
   Maximum angular momentum in Aux-J        ...      4
Auxiliary J/K fitting basis                 ... NOT available
Auxiliary Correlation fitting basis         ... NOT available
Auxiliary 'external' fitting basis          ... NOT available

Checking pre-screening integrals            ... done (  0.0 sec) Dimension = 125
Check shell pair data                       ... done (  0.0 sec)
Shell pair information
Shell pair cut-off parameter TPreSel        ...   1.0e-12
Total number of shell pairs                 ...      7875
Shell pairs after pre-screening             ...      7283
Total number of primitive shell pairs       ...     27980
Primitive shell pairs kept                  ...     18357
          la=0 lb=0:   2204 shell pairs
          la=1 lb=0:   2594 shell pairs
          la=1 lb=1:    785 shell pairs
          la=2 lb=0:    996 shell pairs
          la=2 lb=1:    586 shell pairs
          la=2 lb=2:    118 shell pairs

Calculating one electron integrals          ... done (  0.1 sec)
Calculating RI/J V-Matrix + Cholesky decomp.... done (  0.0 sec)
Calculating Nuclear repulsion               ... done (  0.0 sec) ENN=    637.295775705096 Eh

Diagonalization of the overlap matrix:
Smallest eigenvalue                        ... 4.098e-05
Time for diagonalization                   ...    0.009 sec
Threshold for overlap eigenvalues          ... 1.000e-07
Number of eigenvalues below threshold      ... 0
Time for construction of square roots      ...    0.002 sec
Total time needed                          ...    0.012 sec

-------------------
DFT GRID GENERATION
-------------------

General Integration Accuracy     IntAcc      ... 4.388
Radial Grid Type                 RadialGrid  ... OptM3 with GC (2021)
Angular Grid (max. ang.)         AngularGrid ... 4 (Lebedev-302)
Angular grid pruning method      GridPruning ... 4 (adaptive)
Weight generation scheme         WeightScheme... mBecke (2022)
Basis function cutoff            BFCut       ... 1.0000e-11
Integration weight cutoff        WCut        ... 1.0000e-14
Partially contracted basis set               ... off
Rotationally invariant grid construction     ... off
Angular grids for H and He will be reduced by one unit
Diffuse basis detected: some atoms will have their outermost
                        angular grid increased by 1.

Total number of grid points                  ...    93317
Total number of batches                      ...     1468
Average number of points per batch           ...       63
Average number of grid points per atom       ...     4666
Initializing property integral containers    ... done (  0.0 sec)

SHARK setup successfully completed in   1.2 seconds

Maximum memory used throughout the entire STARTUP-calculation: 46.2 MB
Occupation numbers will be reassigned to an Aufbau configuration
             **** ENERGY FILE WAS UPDATED (xtb_opt.en.tmp) ****
Finished Guess after   0.1 sec
Maximum memory used throughout the entire GUESS-calculation: 21.2 MB
----------------------------------------D-I-I-S--------------------------------------------
Iteration    Energy (Eh)           Delta-E    RMSDP     MaxDP     DIISErr   Damp  Time(sec)
-------------------------------------------------------------------------------------------
               ***  Starting incremental Fock matrix formation  ***
                              *** Initializing SOSCF ***
---------------------------------------S-O-S-C-F--------------------------------------
Iteration    Energy (Eh)           Delta-E    RMSDP     MaxDP     MaxGrad    Time(sec)
--------------------------------------------------------------------------------------
    1    -572.5726356990141994     0.00e+00  2.92e-05  1.28e-03  3.53e-05     3.6
               *** Restarting incremental Fock matrix formation ***
    2    -572.5726390573199751    -3.36e-06  9.17e-06  1.61e-04  3.00e-05     3.3
    3    -572.5726391394443908    -8.21e-08  7.10e-06  3.69e-04  3.86e-05     2.4
                 **** Energy Check signals convergence ****

               *****************************************************
               *                     SUCCESS                       *
               *           SCF CONVERGED AFTER   3 CYCLES          *
               *****************************************************

             **** ENERGY FILE WAS UPDATED (xtb_opt.en.tmp) ****

----------------
TOTAL SCF ENERGY
----------------

Total Energy       :       -572.57263913944439 Eh          -15580.49361 eV

Components:
Nuclear Repulsion  :        637.29577570509605 Eh           17341.69969 eV
Electronic Energy  :      -1209.86841484454044 Eh          -32922.19330 eV
One Electron Energy:      -2049.29089982776077 Eh          -55764.04037 eV
Two Electron Energy:        839.42248498322033 Eh           22841.84707 eV

Virial components:
Potential Energy   :      -1142.76788764768412 Eh          -31096.29513 eV
Kinetic Energy     :        570.19524850823973 Eh           15515.80152 eV
Virial Ratio       :          2.00416943255389

DFT components:
N(Alpha)           :       39.999959129055 electrons
N(Beta)            :       39.999959129055 electrons
N(Total)           :       79.999918258110 electrons
E(X)               :      -71.019101759664 Eh       
E(C)               :       -2.663804239487 Eh       
E(XC)              :      -73.682905999152 Eh       

---------------
SCF CONVERGENCE
---------------

  Last Energy change         ...    8.2124e-08  Tolerance :   1.0000e-07
  Last MAX-Density change    ...    3.6907e-04  Tolerance :   1.0000e-07
  Last RMS-Density change    ...    7.0964e-06  Tolerance :   5.0000e-09
  Last DIIS Error            ...    5.8849e-04  Tolerance :   1.0000e-07
  Last Orbital Gradient      ...    3.8638e-05  Tolerance :   1.0000e-04
  Last Orbital Rotation      ...    2.9423e-05  Tolerance :   1.0000e-04


----------------
ORBITAL ENERGIES
----------------

  NO   OCC          E(Eh)            E(eV) 
   0   2.0000     -18.991603      -516.7878 
   1   2.0000     -18.973353      -516.2912 
   2   2.0000     -18.971297      -516.2352 
   3   2.0000     -18.963752      -516.0299 
   4   2.0000     -18.957371      -515.8563 
   5   2.0000     -10.138223      -275.8751 
   6   2.0000     -10.110179      -275.1120 
   7   2.0000     -10.105501      -274.9847 
   8   2.0000     -10.101140      -274.8660 
   9   2.0000     -10.095147      -274.7029 
  10   2.0000      -1.046737       -28.4832 
  11   2.0000      -1.021034       -27.7837 
  12   2.0000      -1.001282       -27.2463 
  13   2.0000      -1.000077       -27.2135 
  14   2.0000      -0.972977       -26.4761 
  15   2.0000      -0.752017       -20.4634 
  16   2.0000      -0.728707       -19.8291 
  17   2.0000      -0.635335       -17.2884 
  18   2.0000      -0.623388       -16.9632 
  19   2.0000      -0.557132       -15.1603 
  20   2.0000      -0.533748       -14.5240 
  21   2.0000      -0.515862       -14.0373 
  22   2.0000      -0.489778       -13.3275 
  23   2.0000      -0.484998       -13.1975 
  24   2.0000      -0.458626       -12.4799 
  25   2.0000      -0.440618       -11.9898 
  26   2.0000      -0.429843       -11.6966 
  27   2.0000      -0.407988       -11.1019 
  28   2.0000      -0.390737       -10.6325 
  29   2.0000      -0.375010       -10.2045 
  30   2.0000      -0.367840       -10.0094 
  31   2.0000      -0.351532        -9.5657 
  32   2.0000      -0.331720        -9.0266 
  33   2.0000      -0.315647        -8.5892 
  34   2.0000      -0.307870        -8.3776 
  35   2.0000      -0.293243        -7.9795 
  36   2.0000      -0.281380        -7.6567 
  37   2.0000      -0.260785        -7.0963 
  38   2.0000      -0.243754        -6.6329 
  39   2.0000      -0.241646        -6.5755 
  40   0.0000       0.014660         0.3989 
  41   0.0000       0.044591         1.2134 
  42   0.0000       0.049246         1.3400 
  43   0.0000       0.085391         2.3236 
  44   0.0000       0.097057         2.6411 
  45   0.0000       0.099707         2.7132 
  46   0.0000       0.111920         3.0455 
  47   0.0000       0.126914         3.4535 
  48   0.0000       0.134750         3.6667 
  49   0.0000       0.147420         4.0115 
  50   0.0000       0.150657         4.0996 
*Only the first 10 virtual orbitals were printed.
Total SCF time: 0 days 0 hours 0 min 9 sec 
Finished LeanSCF after   9.5 sec

Maximum memory used throughout the entire LEANSCF-calculation: 32.1 MB


-------------------------------------------------------------------------------
                          DFT DISPERSION CORRECTION                            
                                                                               
                                DFTD4 V3.4.0                                   
-------------------------------------------------------------------------------
-------------------------   ----------------
Dispersion correction           -0.006596344
-------------------------   ----------------

------------------   -----------------
gCP correction             0.018106379
------------------   -----------------

-------------------------   --------------------
FINAL SINGLE POINT ENERGY      -572.561129104689
-------------------------   --------------------

------------------------------------------------------------------------------
                         ORCA SCF GRADIENT CALCULATION
------------------------------------------------------------------------------

Nuc. rep. gradient        (SHARK) ... done (  0.0 sec)
HCore & Overlap gradient  (SHARK) ... done (  0.5 sec)
Split-RIJ-J gradient      (SHARK) ... done (  2.4 sec)
XC gradient                       ... done ( 13.2 sec)
Dispersion correction             ... done (  0.0 sec)

-------------------
DISPERSION GRADIENT
-------------------

   1   C   :    0.000009524    0.000055248   -0.000004404
   2   C   :    0.000063777    0.000007533    0.000000256
   3   H   :    0.000043339    0.000006043   -0.000005217
   4   C   :    0.000026544   -0.000038052   -0.000015896
   5   H   :    0.000021517   -0.000038129   -0.000007508
   6   C   :   -0.000040499   -0.000029168   -0.000004930
   7   H   :   -0.000027308   -0.000037909    0.000000714
   8   C   :   -0.000035325    0.000018394   -0.000015228
   9   H   :   -0.000041156    0.000010547   -0.000016857
  10   O   :   -0.000029703    0.000055379   -0.000042188
  11   O   :   -0.000099836    0.000025635    0.000036896
  12   O   :   -0.000024010   -0.000040374    0.000080379
  13   O   :    0.000023278   -0.000035675   -0.000098600
  14   O   :    0.000102193   -0.000010283    0.000066668
  15   H   :    0.000022475    0.000053043   -0.000008457
  16   H   :    0.000005418    0.000036466    0.000011212
  17   H   :   -0.000048927    0.000015434   -0.000000434
  18   H   :   -0.000022277   -0.000025005    0.000027628
  19   H   :    0.000018127   -0.000033279   -0.000033569
  20   H   :    0.000032850    0.000004153    0.000029535

Difference to translation invariance:
           :   -0.0000000000   -0.0000000000   -0.0000000000

Difference to rotation invariance:
           :    0.0000000000   -0.0000000000    0.0000000000

Norm of the Dispersion gradient    ...    0.0002984108
RMS gradient                       ...    0.0000385247
MAX gradient                       ...    0.0001021926
gCP correction                   ... done

------------------
CARTESIAN GRADIENT
------------------

   1   C   :   -0.000079492   -0.000021216   -0.000028861
   2   C   :    0.000114839    0.000031811   -0.000057530
   3   H   :    0.000020492   -0.000015752    0.000033925
   4   C   :   -0.000049789    0.000018163   -0.000007691
   5   H   :   -0.000017506    0.000004119   -0.000011716
   6   C   :   -0.000030626   -0.000112183    0.000055684
   7   H   :   -0.000018556    0.000006389    0.000011800
   8   C   :   -0.000169195    0.000001422    0.000044769
   9   H   :    0.000009606    0.000007664    0.000000179
  10   O   :    0.000120837    0.000028192   -0.000029146
  11   O   :    0.000081238    0.000055391   -0.000064472
  12   O   :   -0.000085498    0.000067243   -0.000097943
  13   O   :    0.000016509    0.000022790    0.000109509
  14   O   :   -0.000099883   -0.000059245   -0.000027440
  15   H   :    0.000038495    0.000001207   -0.000000913
  16   H   :   -0.000025650   -0.000000194   -0.000001504
  17   H   :    0.000048082   -0.000038902    0.000034167
  18   H   :    0.000059824   -0.000031093    0.000033577
  19   H   :   -0.000006374   -0.000012921   -0.000022135
  20   H   :    0.000072647    0.000047114    0.000025741

Difference to translation invariance:
           :   -0.0000000000    0.0000000000    0.0000000000

Difference to rotation invariance:
           :   -0.0003022877   -0.0002429250   -0.0005684582

Norm of the Cartesian gradient     ...    0.0004223477
RMS gradient                       ...    0.0000545249
[...]
  Last Orbital Rotation      ...    1.9075e-05  Tolerance :   1.0000e-04


----------------
ORBITAL ENERGIES
----------------

  NO   OCC          E(Eh)            E(eV) 
   0   2.0000     -18.991671      -516.7896 
   1   2.0000     -18.973433      -516.2934 
   2   2.0000     -18.971409      -516.2383 
   3   2.0000     -18.963965      -516.0357 
   4   2.0000     -18.957441      -515.8582 
   5   2.0000     -10.138133      -275.8726 
   6   2.0000     -10.110005      -275.1072 
   7   2.0000     -10.105371      -274.9811 
   8   2.0000     -10.101029      -274.8630 
   9   2.0000     -10.095169      -274.7035 
  10   2.0000      -1.046738       -28.4832 
  11   2.0000      -1.021033       -27.7837 
  12   2.0000      -1.001314       -27.2471 
  13   2.0000      -1.000104       -27.2142 
  14   2.0000      -0.972996       -26.4766 
  15   2.0000      -0.751969       -20.4621 
  16   2.0000      -0.728674       -19.8282 
  17   2.0000      -0.635305       -17.2875 
  18   2.0000      -0.623365       -16.9626 
  19   2.0000      -0.557128       -15.1602 
  20   2.0000      -0.533723       -14.5233 
  21   2.0000      -0.515843       -14.0368 
  22   2.0000      -0.489778       -13.3275 
  23   2.0000      -0.484985       -13.1971 
  24   2.0000      -0.458623       -12.4798 
  25   2.0000      -0.440596       -11.9892 
  26   2.0000      -0.429818       -11.6959 
  27   2.0000      -0.407974       -11.1015 
  28   2.0000      -0.390738       -10.6325 
  29   2.0000      -0.375014       -10.2046 
  30   2.0000      -0.367849       -10.0097 
  31   2.0000      -0.351527        -9.5655 
  32   2.0000      -0.331727        -9.0267 
  33   2.0000      -0.315664        -8.5897 
  34   2.0000      -0.307876        -8.3777 
  35   2.0000      -0.293268        -7.9802 
  36   2.0000      -0.281389        -7.6570 
  37   2.0000      -0.260803        -7.0968 
  38   2.0000      -0.243765        -6.6332 
  39   2.0000      -0.241648        -6.5756 
  40   0.0000       0.014674         0.3993 
  41   0.0000       0.044604         1.2137 
  42   0.0000       0.049260         1.3404 
  43   0.0000       0.085409         2.3241 
  44   0.0000       0.097080         2.6417 
  45   0.0000       0.099726         2.7137 
  46   0.0000       0.111933         3.0459 
  47   0.0000       0.126926         3.4538 
  48   0.0000       0.134760         3.6670 
  49   0.0000       0.147434         4.0119 
  50   0.0000       0.150667         4.0999 
*Only the first 10 virtual orbitals were printed.
Total SCF time: 0 days 0 hours 0 min 7 sec 
Finished LeanSCF after   7.2 sec

Maximum memory used throughout the entire LEANSCF-calculation: 32.1 MB


-------------------------------------------------------------------------------
                          DFT DISPERSION CORRECTION                            
                                                                               
                                DFTD4 V3.4.0                                   
-------------------------------------------------------------------------------
-------------------------   ----------------
Dispersion correction           -0.006596344
-------------------------   ----------------

------------------   -----------------
gCP correction             0.018106379
------------------   -----------------

-------------------------   --------------------
FINAL SINGLE POINT ENERGY      -572.561129225611
-------------------------   --------------------

------------------------------------------------------------------------------
                         ORCA SCF GRADIENT CALCULATION
------------------------------------------------------------------------------

Nuc. rep. gradient        (SHARK) ... done (  0.0 sec)
HCore & Overlap gradient  (SHARK) ... done (  0.7 sec)
Split-RIJ-J gradient      (SHARK) ... done (  3.0 sec)
XC gradient                       ... done ( 11.5 sec)
Dispersion correction             ... done (  0.0 sec)

-------------------
DISPERSION GRADIENT
-------------------

   1   C   :    0.000009524    0.000055248   -0.000004404
   2   C   :    0.000063777    0.000007533    0.000000256
   3   H   :    0.000043339    0.000006043   -0.000005217
   4   C   :    0.000026544   -0.000038052   -0.000015896
   5   H   :    0.000021517   -0.000038129   -0.000007508
   6   C   :   -0.000040499   -0.000029168   -0.000004930
   7   H   :   -0.000027308   -0.000037909    0.000000714
   8   C   :   -0.000035325    0.000018394   -0.000015228
   9   H   :   -0.000041156    0.000010547   -0.000016857
  10   O   :   -0.000029703    0.000055379   -0.000042188
  11   O   :   -0.000099836    0.000025635    0.000036896
  12   O   :   -0.000024010   -0.000040374    0.000080379
  13   O   :    0.000023278   -0.000035675   -0.000098600
  14   O   :    0.000102193   -0.000010283    0.000066668
  15   H   :    0.000022475    0.000053043   -0.000008457
  16   H   :    0.000005418    0.000036466    0.000011212
  17   H   :   -0.000048927    0.000015434   -0.000000434
  18   H   :   -0.000022277   -0.000025005    0.000027628
  19   H   :    0.000018127   -0.000033279   -0.000033569
  20   H   :    0.000032850    0.000004153    0.000029535

Difference to translation invariance:
           :   -0.0000000000   -0.0000000000   -0.0000000000

Difference to rotation invariance:
           :    0.0000000000   -0.0000000000    0.0000000000

Norm of the Dispersion gradient    ...    0.0002984108
RMS gradient                       ...    0.0000385247
MAX gradient                       ...    0.0001021926
gCP correction                   ... done

------------------
CARTESIAN GRADIENT
------------------

   1   C   :   -0.000091663   -0.000019202   -0.000032661
   2   C   :    0.000121754    0.000040327   -0.000045378
   3   H   :    0.000019971   -0.000017267    0.000026266
   4   C   :   -0.000059641    0.000025404   -0.000036048
   5   H   :   -0.000013505   -0.000001621   -0.000005141
   6   C   :   -0.000031266   -0.000104372    0.000083199
   7   H   :   -0.000018934    0.000002350    0.000005934
   8   C   :   -0.000142078    0.000015085    0.000038053
   9   H   :    0.000008930    0.000004644   -0.000005154
  10   O   :    0.000114852    0.000028572   -0.000013054
  11   O   :    0.000060897    0.000038574   -0.000069986
  12   O   :   -0.000085420    0.000038974   -0.000096667
  13   O   :    0.000012826    0.000025398    0.000109294
  14   O   :   -0.000075381   -0.000047241   -0.000026098
  15   H   :    0.000039794    0.000000835   -0.000005345
  16   H   :   -0.000022066    0.000000757    0.000001824
  17   H   :    0.000047204   -0.000031268    0.000033315
  18   H   :    0.000057560   -0.000013691    0.000030551
  19   H   :   -0.000000850   -0.000017935   -0.000016486
  20   H   :    0.000057015    0.000031678    0.000023583

Difference to translation invariance:
           :   -0.0000000000    0.0000000000    0.0000000000

Difference to rotation invariance:
           :   -0.0002769944   -0.0002420098   -0.0005128796

Norm of the Cartesian gradient     ...    0.0003958148
RMS gradient                       ...    0.0000510995
MAX gradient                       ...    0.0001420775

-------
TIMINGS
-------

Total SCF gradient time     ....       15.175 sec

Densities                   ....       0.001 sec  (  0.0%)
One electron gradient       ....       0.665 sec  (  4.4%)
RI-J Coulomb gradient       ....       3.002 sec  ( 19.8%)
XC gradient                 ....      11.480 sec  ( 75.7%)

Maximum memory used throughout the entire SCFGRAD-calculation: 41.5 MB

------------------------------------------------------------------------------
                              ORCA PROPERTY CALCULATIONS
------------------------------------------------------------------------------

GBWName                                 ... xtb_opt.gbw
Number of atoms                         ...     20
Number of basis functions               ...    265
Max core memory                         ...   1024 MB

Electric properties:
Dipole moment                           ... YES
Quadrupole moment                       ...  NO
Static polarizability (Dipole/Dipole)   ...  NO
Static polarizability (Dipole/Quad.)    ...  NO
Static polarizability (Quad./Quad.)     ...  NO
Static polarizability (Velocity)        ...  NO

Atomic electric properties:
Dipole moment                           ...  NO
Quadrupole moment                       ...  NO
Static polarizability                   ...  NO

Choice of electric origin               ... Center of mass
Position of electric origin             ...    -0.011547     0.008770    -0.006781

General magnetic properties:
Magnetizability                         ...  NO

EPR properties:
g-Tensor (aka g-matrix)                 ...  NO
Zero-Field splitting spin-orbit         ...  NO
Zero-field splitting spin-spin          ...  NO
Hyperfine couplings                     ...  NO (   0 nuclei)
Quadrupole couplings                    ...  NO (   0 nuclei)
Contact density                         ...  NO (   0 nuclei)

NMR properties:
Chemical shifts                         ...  NO (   0 nuclei)
Spin-rotation constants                 ...  NO (   0 nuclei)
Spin-spin couplings                     ...  NO (   0 nuclei,    0 pairs)

Choice of magnetic origin               ... GIAO
Position of magnetic origin             ...     0.000000     0.000000     0.000000

Properties with geometric perturbations:
SCF Hessian                             ...  NO
IR spectrum                             ...  NO
VCD spectrum                            ...  NO
X-ray spectroscopy properties:
SCF XES/XAS/RIXS spectra                ...  NO


-------------
DIPOLE MOMENT
-------------

Method             : SCF
Type of density    : Electron Density
Multiplicity       :   1
Irrep              :   0
Energy             :  -572.5726392603662589 Eh
Relativity type    : 
Basis              : AO
                                X                 Y                 Z
Electronic contribution:     -1.541099970       0.175470358      -0.464429350
Nuclear contribution   :      2.711265646      -0.454556708       0.740320109
                        -----------------------------------------
Total Dipole Moment    :      1.170165676      -0.279086351       0.275890759
                        -----------------------------------------
Magnitude (a.u.)       :      1.234217409
Magnitude (Debye)      :      3.137131341



--------------------
Rotational spectrum 
--------------------
 
Rotational constants in cm-1:             0.056687             0.042644             0.039539 
Rotational constants in MHz :          1699.418827          1278.448426          1185.354559 

Dipole components along the rotational axes: 
x,y,z [a.u.] :     1.202433    -0.277981     0.013206 
x,y,z [Debye]:     3.056342    -0.706570     0.033567 

 

Dipole moment calculation done in   0.0 sec 

Maximum memory used throughout the entire PROP-calculation: 20.3 MB

--------------------------------
SUGGESTED CITATIONS FOR THIS RUN
--------------------------------

Below you find a list of papers that are relevant to this ORCA run
We neither can nor want to force you to cite these papers, but we appreciate if you do
You receive ORCA, which is the product of decades of hard work by many enthusiastic individuals, for free
The only thing we kindly ask in return is that you cite our papers,
We deeply appreciate it, if you show your appreciation for ORCA by not just citing the generic ORCA reference.

Please note that relegating all ORCA citations to the supporting information does *not* help us.
SI sections are not indexed - citations you put there will not count into any citation statistics
But we need these citations in order to attract the funding resources that allow us to do what we are doing

Therefore, if you are a happy ORCA user, please consider citing a few of the papers listed below in the main body of your paper

In addition to the list printed below, the program has created the file xtb_opt.bibtex that contains the list in bibtex format
You can import this file easily into all common literature databanks and citation aid programs


List of essential papers. We consider these as the minimum necessary citations

  1. Neese,F.
     Software update: the ORCA program system, version 5.0
     WIRES Comput. Molec. Sci., 2022 12(1)e1606
     doi.org/10.1002/wcms.1606
  2. Grimme,S.; Hansen,A.; Ehlert,S.; Mewes,J.
     r2SCAN-3c: A 'Swiss army knife' composite electronic-structure method
     J. Chem. Phys., 2021 154 064103
     doi.org/10.1063/5.0040021

List of papers to cite with high priority. The work reported in these papers was absolutely
necessary for this run to complete.
Our perspective: the developers of density functionals and basis sets usually get cited in chemistry papers
Good! But without the algorithms to do something with them, the functionals or basis sets would not do anything.
Hence, in our opinion, the algorithm design and method developments papers are equally worthy of getting cited

  1. Neese,F.
     An improvement of the resolution of the identity approximation for the formation of the Coulomb matrix
     J. Comp. Chem., 2003 24(14)1740-1747
     doi.org/10.1002/jcc.10318
  2. Neese,F.
     The SHARK Integral Generation and Digestion System
     J. Comp. Chem., 2022  1-16
     doi.org/10.1002/jcc.26942
  3. Lehtola,S.; Steigemann,C.; Oliveira,M.; Marques,M.
     Recent developments in Libxc - A comprehensive library of functionals for density functional theory
     Software X, 2018 7 
     doi.org/10.1016/j.softx.2017.11.002
  4. Caldeweyher,E.; Bannwarth,C.; Grimme,S.
     Extension of the D3 dispersion coefficient model
     J. Chem. Phys., 2017 147 034112
     doi.org/10.1063/1.4993215
  5. Caldeweyher,E.; Ehlert,S.; Hansen,A.; Neugebauer,H.; Spicher,S.; Bannwarth,C.; Grimme,S.
     A generally applicable atomic-charge dependent London dispersion correction
     J. Chem. Phys., 2019 150 154122
     doi.org/10.1063/1.5090222
  6. Caldeweyher,E.; Mewes,J.; Ehlert,S.; Grimme,S.
     Extension and evaluation of the D4 London-dispersion model for periodic systems
     Phys. Chem. Chem. Phys., 2020 22(16)8499-8512
     doi.org/10.1039/D0CP00502A
  7. Wittmann,L.; Gordiy,I.; Friede,M.; Helmich-Paris,B.; Grimme,S.; Hansen,A.; Bursch,M.
     Extension of the D3 and D4 London Dispersion Corrections to the full Actinides Series
     Phys. Chem. Chem. Phys., 2024 26(32)21379-21394
     doi.org/https://doi.org/10.1039/D4CP01514B 

List of suggested additional citations. These are papers that are important in the 'surrounding' of 
of this run, or papers that preceded the highly important papers. If you like your results we are grateful for a citation.

  1. Neese,F.
     The ORCA program system
     WIRES Comput. Molec. Sci., 2012 2(1)73-78
     doi.org/10.1002/wcms.81
  2. Neese,F.
     Software update: the ORCA program system, version 4.0
     WIRES Comput. Molec. Sci., 2018 8(1)1-6
     doi.org/10.1002/wcms.1327
  3. Neese,F.; Wennmohs,F.; Becker,U.; Riplinger,C.
     The ORCA quantum chemistry program package
     J. Chem. Phys., 2020 152 Art. No. L224108
     doi.org/10.1063/5.0004608

List of optional additional citations

  1. Neese,F.
     Approximate second-order SCF convergence for spin unrestricted wavefunctions
     Chem. Phys. Lett., 2000 325(1-3)93-98
     doi.org/10.1016/s0009-2614(00)00662-x

Timings for individual modules:

Sum of individual times          ...       23.576 sec (=   0.393 min)
Startup calculation              ...        0.983 sec (=   0.016 min)   4.2 %
SCF iterations                   ...        7.296 sec (=   0.122 min)  30.9 %
Property calculations            ...        0.050 sec (=   0.001 min)   0.2 %
SCF Gradient evaluation          ...       15.247 sec (=   0.254 min)  64.7 %
                             ****ORCA TERMINATED NORMALLY****
TOTAL RUN TIME: 0 days 0 hours 0 minutes 23 seconds 681 msec
  ------------------------------------------------------------------------
          * successful ORCA run, taking over control again...

         :::::::::::::::::::::::::::::::::::::::::::::::::::::
         ::                  ORCA SUMMARY                   ::
         :::::::::::::::::::::::::::::::::::::::::::::::::::::
         :: total energy            -572.561129225611 Eh    ::
         :: gradient norm              0.000395814813 Eh/a0 ::
         :: HOMO-LUMO gap              0.000000000000 eV    ::
         :::::::::::::::::::::::::::::::::::::::::::::::::::::

           -------------------------------------------------
          |                Property Printout                |
           -------------------------------------------------
           -------------------------------------------------
          |                Geometry Summary                 |
           -------------------------------------------------

      molecular mass/u    :      150.1301116
   center of mass at/Å    :       -0.0061152       0.0046413      -0.0035858
  moments of inertia/u·Å² :        0.2973856E+03   0.3953078E+03   0.4263572E+03
rotational constants/cm⁻¹ :        0.5668612E-01   0.4264432E-01   0.3953875E-01

 * 18 selected distances

     #   Z          #   Z                                           value/Å
     1   6          2   6                                         1.5392214 (max)
     2   6          3   1                                         1.0980066
     4   6          5   1                                         1.0976204
     4   6          6   6                                         1.5318992
     6   6          7   1                                         1.0947067
     8   6          9   1                                         1.0949493
     1   6         10   8                                         1.4273824
     8   6         10   8                                         1.4417396
     8   6         11   8                                         1.3890032
     6   6         12   8                                         1.4334856
     4   6         13   8                                         1.4212459
     2   6         14   8                                         1.4451250
     1   6         15   1                                         1.0919139
     1   6         16   1                                         1.0994554
    11   8         17   1                                         0.9736778
    12   8         18   1                                         0.9724670
    13   8         19   1                                         0.9687889
    14   8         20   1                                         0.9648654 (min)

 * 4 distinct bonds (by element types)

   Z      Z             #   av. dist./Å        max./Å        min./Å
   1 H    6 C           6     1.0961087     1.0994554     1.0919139
   6 C    6 C           2     1.5355603     1.5392214     1.5318992
   1 H    8 O           4     0.9699498     0.9736778     0.9648654
   6 C    8 O           6     1.4263303     1.4451250     1.3890032


optimized geometry written to: xtbopt.coord


           -------------------------------------------------
          | TOTAL ENERGY             -572.561129225611 Eh   |
          | GRADIENT NORM               0.000395814813 Eh/α |
           -------------------------------------------------

------------------------------------------------------------------------
 * finished run on 2025/04/09 at 02:31:37.862     
------------------------------------------------------------------------
 total:
 * wall-time:     0 d,  0 h,  1 min, 19.065 sec
 *  cpu-time:     0 d,  0 h,  0 min,  0.461 sec
 * ratio c/w:     0.006 speedup
 SCF:
 * wall-time:     0 d,  0 h,  0 min, 27.661 sec
 *  cpu-time:     0 d,  0 h,  0 min,  0.061 sec
 * ratio c/w:     0.002 speedup
 ANC optimizer:
 * wall-time:     0 d,  0 h,  0 min, 51.096 sec
 *  cpu-time:     0 d,  0 h,  0 min,  0.019 sec
 * ratio c/w:     0.000 speedup

