      -----------------------------------------------------------      
     |                   =====================                   |     
     |                           x T B                           |     
     |                   =====================                   |     
     |                         S. Grimme                         |     
     |          Mulliken Center for Theoretical Chemistry        |     
     |                    University of Bonn                     |     
      -----------------------------------------------------------      

   * xtb version 6.7.1 (41059b4) compiled by 'michael@archlinux' on 2025-03-24

   xtb is free software: you can redistribute it and/or modify it under
   the terms of the GNU Lesser General Public License as published by
   the Free Software Foundation, either version 3 of the License, or
   (at your option) any later version.
   
   xtb is distributed in the hope that it will be useful,
   but WITHOUT ANY WARRANTY; without even the implied warranty of
   MERCHANTABILITY or FITNESS FOR A PARTICULAR PURPOSE.  See the
   GNU Lesser General Public License for more details.
   
   Cite this work as:
   * C. Bannwarth, E. Caldeweyher, S. Ehlert, A. Hansen, P. Pracht,
     J. Seibert, S. Spicher, S. Grimme, WIREs Comput. Mol. Sci., 2020, 11,
     e01493. DOI: 10.1002/wcms.1493
   
   for GFN2-xTB:
   * C. Bannwarth, S. Ehlert and S. Grimme., J. Chem. Theory Comput., 2019,
     15, 1652-1671. DOI: 10.1021/acs.jctc.8b01176
   for GFN1-xTB:
   * S. Grimme, C. Bannwarth, P. Shushkov, J. Chem. Theory Comput., 2017,
     13, 1989-2009. DOI: 10.1021/acs.jctc.7b00118
   for GFN0-xTB:
   * P. Pracht, E. Caldeweyher, S. Ehlert, S. Grimme, ChemRxiv, 2019, preprint.
     DOI: 10.26434/chemrxiv.8326202.v1
   for GFN-FF:
   * S. Spicher and S. Grimme, Angew. Chem. Int. Ed., 2020, 59, 15665-15673.
     DOI: 10.1002/anie.202004239
   
   for ALPB and GBSA implicit solvation:
   * S. Ehlert, M. Stahn, S. Spicher, S. Grimme, J. Chem. Theory Comput.,
     2021, 17, 4250-4261. DOI: 10.1021/acs.jctc.1c00471
   
   for ddCOSMO and CPCM-X implicit solvation:
   * M. Stahn, S. Ehlert, S. Grimme, J. Phys. Chem. A,
     2023, XX, XXXX-XXXX. DOI: 10.1021/acs.jpca.3c04382
   
   for DFT-D4:
   * E. Caldeweyher, C. Bannwarth and S. Grimme, J. Chem. Phys., 2017,
     147, 034112. DOI: 10.1063/1.4993215
   * E. Caldeweyher, S. Ehlert, A. Hansen, H. Neugebauer, S. Spicher,
     C. Bannwarth and S. Grimme, J. Chem. Phys., 2019, 150, 154122.
     DOI: 10.1063/1.5090222
   * E. Caldeweyher, J.-M. Mewes, S. Ehlert and S. Grimme, Phys. Chem. Chem. Phys.
     2020, 22, 8499-8512. DOI: 10.1039/D0CP00502A
   
   for sTDA-xTB:
   * S. Grimme and C. Bannwarth, J. Chem. Phys., 2016, 145, 054103.
     DOI: 10.1063/1.4959605
   
   in the mass-spec context:
   * V. Asgeirsson, C. Bauer and S. Grimme, Chem. Sci., 2017, 8, 4879.
     DOI: 10.1039/c7sc00601b
   * J. Koopman and S. Grimme, ACS Omega 2019, 4, 12, 15120-15133.
     DOI: 10.1021/acsomega.9b02011
   
   for metadynamics refer to:
   * S. Grimme, J. Chem. Theory Comput., 2019, 155, 2847-2862
     DOI: 10.1021/acs.jctc.9b00143
   
   for SPH calculations refer to:
   * S. Spicher and S. Grimme, J. Chem. Theory Comput., 2021, 17, 1701-1714
     DOI: 10.1021/acs.jctc.0c01306
   
   for ONIOM refer to:
   * C. Plett, A. Katbashev, S. Ehlert, S. Grimme, M. Bursch,
     Phys. Chem. Chem. Phys., 2023, 25, 17860-17868. DOI: 10.1039/D3CP02178E
   
   for DIPRO refer to:
   * J. Kohn, N. Gildemeister, S. Grimme, D. Fazzi, A. Hansen,
     J. Chem. Phys., 2023, just accepted.
   
   for PTB refer to:
   * S. Grimme, M. Mueller, A. Hansen, J. Chem. Phys., 2023, 158, 124111.
     DOI: 10.1063/5.0137838
   
   with help from (in alphabetical order)
   P. Atkinson, C. Bannwarth, F. Bohle, G. Brandenburg, E. Caldeweyher
   M. Checinski, S. Dohm, S. Ehlert, S. Ehrlich, I. Gerasimov, C. Hölzer
   A. Katbashev, J. Kohn, J. Koopman, C. Lavigne, S. Lehtola, F. März, M. Müller,
   F. Musil, H. Neugebauer, J. Pisarek, C. Plett, P. Pracht, F. Pultar,
   J. Seibert, P. Shushkov, S. Spicher, M. Stahn, M. Steiner, T. Strunk,
   J. Stückrath, T. Rose, and J. Unsleber
   
 * started run on 2025/04/09 at 02:30:18.676     
   ID    Z sym.   atoms
    1    6 C      1, 2, 4, 6, 8
    2    1 H      3, 5, 7, 9, 15-20
    3    8 O      10-14

           -------------------------------------------------
          |                Calculation Setup                |
           -------------------------------------------------

          program call               : /usr/bin/xtb xtb_opt.coord --opt normal --orca -I xtb_opt-xcontrol-inp
          coordinate file            : xtb_opt.coord
          omp threads                :                    16

           -------------------------------------------------
          |                   Orca driver                   |
           -------------------------------------------------
orca executable           : /home/michael/Documents/CHEM4561/orca_avx2/orca
orca input file           : xtb_opt.inp
orca input line           : 
orca parallel             : true
orca number of threads    : 16
                         * ORCA takes the control...
  ------------------------------------------------------------------------

                                 *****************
                                 * O   R   C   A *
                                 *****************

                                            #,                                       
                                            ###                                      
                                            ####                                     
                                            #####                                    
                                            ######                                   
                                           ########,                                 
                                     ,,################,,,,,                         
                               ,,#################################,,                 
                          ,,##########################################,,             
                       ,#########################################, ''#####,          
                    ,#############################################,,   '####,        
                  ,##################################################,,,,####,       
                ,###########''''           ''''###############################       
              ,#####''   ,,,,##########,,,,          '''####'''          '####       
            ,##' ,,,,###########################,,,                        '##       
           ' ,,###''''                  '''############,,,                           
         ,,##''                                '''############,,,,        ,,,,,,###''
      ,#''                                            '''#######################'''  
     '                                                          ''''####''''         
             ,#######,   #######,   ,#######,      ##                                
            ,#'     '#,  ##    ##  ,#'     '#,    #''#        ,####,   ,####,        
            ##       ##  ##   ,#'  ##            #'  '#       #'       #'  '#        
            ##       ##  #######   ##           ,######,      #####,   #    #        
            '#,     ,#'  ##    ##  '#,     ,#' ,#      #,     #,   #   #,  ,#        
             '#######'   ##     ##  '#######'  #'      '#     '####' # '####'        



                #########################################################
                #                        -***-                          #
                #          Department of theory and spectroscopy        #
                #                                                       #
                #                      Frank Neese                      #
                #                                                       #
                #     Directorship, Architecture, Infrastructure        #
                #                    SHARK, DRIVERS                     #
                #        Core code/Algorithms in most modules           #
                #                                                       #
                #        Max Planck Institute fuer Kohlenforschung      #
                #                Kaiser Wilhelm Platz 1                 #
                #                 D-45470 Muelheim/Ruhr                 #
                #                      Germany                          #
                #                                                       #
                #                  All rights reserved                  #
                #                        -***-                          #
                #########################################################


                         Program Version 6.0.1  -  RELEASE   -


 With contributions from (in alphabetic order):
[Max-Planck-Institut fuer Kohlenforschung]                               
  Daniel Aravena         : Magnetic Suceptibility                        
  Michael Atanasov       : Ab Initio Ligand Field Theory (pilot matlab implementation)
  Alexander A. Auer      : GIAO ZORA, VPT2 properties, NMR spectrum      
  Ute Becker             : All parallelization in ORCA, NUMFREQ, NUMCALC 
  Giovanni Bistoni       : ED, misc. LED, open-shell LED, HFLD           
  Martin Brehm           : Molecular dynamics                            
  Dmytro Bykov           : pre 5.0 version of the SCF Hessian            
  Marcos Casanova-Páez   : Triplet and SCS-CIS(D). UHF-(DLPNO)-IP/EA/STEOM-CCSD. UHF-CVS-IP/STEOM-CCSD   
  Vijay G. Chilkuri      : MRCI spin determinant printing, contributions to CSF-ICE 
  Pauline Colinet        : FMM embedding                                 
  Dipayan Datta          : RHF DLPNO-CCSD density                        
  Achintya Kumar Dutta   : EOM-CC, STEOM-CC                              
  Nicolas Foglia         : Exact transition moments, OPA infrastructure, MCD improvements    
  Dmitry Ganyushin       : Spin-Orbit,Spin-Spin,Magnetic field MRCI      
  Miquel Garcia-Rates    : C-PCM and meta-GGA Hessian, CCSD/C-PCM, Gaussian charge scheme 
  Tiago L. C. Gouveia    : GS-ROHF, GS-ROCIS                             
  Yang Guo               : DLPNO-NEVPT2, F12-NEVPT2, CIM, IAO-localization        
  Andreas Hansen         : Spin unrestricted coupled pair/coupled cluster methods 
  Ingolf Harden          : AUTO-CI MPn and infrastructure                
  Benjamin Helmich-Paris : MC-RPA, TRAH-(SCF,CASSCF), AVAS, COSX integrals, SCF dyn. polar. 
  Lee Huntington         : MR-EOM, pCC                                   
  Robert Izsak           : Overlap fitted RIJCOSX, COSX-SCS-MP3, EOM     
  Riya Kayal             : Wick's Theorem for AUTO-CI, AUTO-CI UHF-CCSDT 
  Emily Kempfer          : AUTO-CI, RHF CISDT and CCSDT                  
  Christian Kollmar      : KDIIS, OOCD, Brueckner-CCSD(T), CCSD density, CASPT2, CASPT2-K, improved NEVPT2 
  Axel Koslowski         : Symmetry handling                             
  Simone Kossmann        : meta-GGA functionals, TD-DFT gradient, OOMP2, (MP2 Hessian; deprecated post 5.0) 
  Lucas Lang             : DCDCAS                                        
  Marvin Lechner         : AUTO-CI (C++ implementation), FIC-MRCC        
  Spencer Leger          : CASSCF response                               
  Dagmar Lenk            : GEPOL surface, SMD, ORCA-2-JSON               
  Dimitrios Liakos       : Extrapolation schemes; Compound Job, initial MDCI parallelization 
  Dimitrios Manganas     : Further ROCIS development; embedding schemes. LFT, Crystal Embedding 
  Dimitrios Pantazis     : SARC Basis sets                               
  Anastasios Papadopoulos: AUTO-CI, single reference methods and gradients 
  Taras Petrenko         : pre 6.0 DFT Hessian and TD-DFT gradient, (ASA, deprecated), ECA, 1-Electron XAS/XES, NRVS 
  Peter Pinski           : DLPNO-MP2, DLPNO-MP2 Gradient                 
  Christoph Reimann      : Effective Core Potentials                     
  Marius Retegan         : Local ZFS, SOC                                
  Christoph Riplinger    : Optimizer, TS searches, QM/MM, DLPNO-CCSD(T), (RO)-DLPNO pert. Triples 
  Michael Roemelt        : Original ROCIS implementation                 
  Masaaki Saitow         : Open-shell DLPNO-CCSD energy and density      
  Barbara Sandhoefer     : DKH picture change effects                    
  Kantharuban Sivalingam : CASSCF convergence/infrastructure, NEVPT2 and variants, FIC-MRCI 
  Bernardo de Souza      : ESD, SOC TD-DFT                               
  Georgi L. Stoychev     : AutoAux, RI-MP2 NMR, DLPNO-MP2 response, X2C  
  Van Anh Tran           : RI-MP2 g-tensors                              
  Willem Van den Heuvel  : Paramagnetic NMR                              
  Zikuan Wang            : NOTCH, Electric field optimization            
  Frank Wennmohs         : Technical directorship and infrastructure     
  Hang Xu                : AUTO-CI-Response properties                   
                                                                         
[FACCTs GmbH]                                                            
  Markus Bursch, Miquel Garcia-Rates, Christoph Riplinger, Bernardo de Souza, Georgi L. Stoychev 
                                                                 
  APM, Basis sets (HGBS, AHGBS, def-TZVP (Ac-Lr), def2-XVPD (La-Lu)), CI-OPT, improved COSX, DLPNO-Multilevel,           
  DOCKER, DRACO, updates on ESD, GOAT, IRC, LR-CPCM, MBIS, meta-GGA TD-DFT gradient, ML-optimized integration grids, 
  MM, NACMEs, nearIR, NEB, NEB-TS, NL-DFT gradient (VV10), 2- and 3-layer-ONIOM, interface openCOSMO-RS, QMMM,   
  Crystal-QMMM, SF, symmetry and pop. for TD-DFT, r2SCAN hybrids, SOLVATOR                                   
                                                                         
[Other institutions]                                                     
  V. Asgeirsson          : NEB                                           
  Christoph Bannwarth    : sTDA-DFT, sTD-DFT, PBEh-3c, B97-3c, D3        
  Sebastian Ehlert       : rSCAN, r2SCAN, r2SCAN-3c, D4, dhf basis sets  
  Marvin Friede          : D4 for Fr, Ra, Ac-Lr                          
  Lars Goerigk           : TD-DFT with DH, B97 family of functionals     
  Stefan Grimme          : VdW corrections, initial TS optimization, DFT functionals, gCP, sTDA/sTD-DF 
  Waldemar Hujo          : DFT-NL                                        
  H. Jonsson             : NEB                                           
  Holger Kruse           : gCP                                           
  Marcel Mueller         : wB97X-3c, vDZP basis set                      
  Hagen Neugebauer       : wr2SCAN                                       
  Tobias Risthaus        : range-separated hybrid DFT                    
  Lukas Wittmann         : regularized MP2, r2SCAN double-hybrids, wr2SCAN        
                                                                         
We gratefully acknowledge several colleagues who have allowed us to      
interface, adapt or use parts of their codes:                            
  Ed Valeev, F. Pavosevic, A. Kumar             : LibInt (2-el integral package), F12 methods 
  Garnet Chan, S. Sharma, J. Yang, R. Olivares  : DMRG                   
  Ulf Ekstrom                                   : XCFun DFT Library      
  Mihaly Kallay                                 : mrcc  (arbitrary order and MRCC methods)
  Frank Weinhold                                : gennbo (NPA and NBO analysis)           
  Simon Mueller                                 : openCOSMO-RS                            
  Christopher J. Cramer and Donald G. Truhlar   : smd solvation model                     
  S Lehtola, MJT Oliveira, MAL Marques          : LibXC Library                           
  Liviu Ungur et al                             : ANISO software                          


 Your calculation uses the libint2 library for the computation of 2-el integrals
 For citations please refer to: http://libint.valeyev.net

 Your ORCA version has been built with support for libXC version: 6.2.2
 For citations please refer to: https://libxc.gitlab.io

 This ORCA versions uses:
   CBLAS   interface :  Fast vector & matrix operations
   LAPACKE interface :  Fast linear algebra routines
   SCALAPACK package :  Parallel linear algebra routines
   Shared memory     :  Shared parallel matrices
   BLAS/LAPACK       :  OpenBLAS 0.3.27  USE64BITINT DYNAMIC_ARCH NO_AFFINITY Zen SINGLE_THREADED
        Core in use  :  Zen
   Copyright (c) 2011-2014, The OpenBLAS Project




***************************************
The coordinates will be read from file: xtb_opt.xyz
***************************************


Your calculation utilizes the geometrical counterpoise correction gCP
Please cite in your paper:
H.Kruse, S. Grimme J.Chem.Phys., 136, (2012), 154101 
   

Your calculation utilizes the atom-pairwise dispersion correction
based on EEQ partial charges (D4)


================================================================================

----- Orbital basis set information -----
Your calculation utilizes the basis: def2-mTZVPP
   Stefan Grimme, Andreas Hansen, Sebastian Ehlert, and Jan-Michael Mewes 
   J. Chem. Phys. 154, 064103 (2021). DOI: 10.1063/5.0040021

----- AuxJ basis set information -----
Your calculation utilizes the auxiliary basis: def2/J
   F. Weigend, Phys. Chem. Chem. Phys. 8, 1057 (2006).

================================================================================
                                        WARNINGS
                       Please study these warnings very carefully!
================================================================================

WARNING: Old DensityContainer found on disk!
         Will remove this file - 
         If you want to keep old densities, please start your calculation with a different basename. 



WARNING: SCAN, rSCAN, or r2SCAN functional requested.
  ===> : libXC variant has now been activated.



================================================================================
                                       INPUT FILE
================================================================================
NAME = xtb_opt.inp
|  1> ! r2scan-3c def2/J RI DEFGRID2 scfconv7 ENGRAD tightSCF miniprint
|  2> * xyzfile 0 1 xtb_opt.xyz
|  3> 
|  4>                          ****END OF INPUT****
================================================================================

                     *******************************
                     * Energy+Gradient Calculation *
                     *******************************

---------------------------------
CARTESIAN COORDINATES (ANGSTROEM)
---------------------------------
  C      0.671242    1.683441   -0.017806
  C      1.408268    0.378516   -0.284306
  H      1.579266    0.268929   -1.368829
  C      0.542292   -0.776546    0.187329
  H      0.400619   -0.683696    1.277575
  C     -0.815560   -0.720498   -0.508057
  H     -0.665896   -0.871172   -1.583417
  C     -1.464069    0.651426   -0.304970
  H     -2.347466    0.761500   -0.947443
  O     -0.599265    1.695659   -0.691730
  O     -1.830279    0.716682    1.069076
  O     -1.661311   -1.781959   -0.069893
  O      1.227995   -1.988668   -0.123681
  O      2.644339    0.437937    0.417840
  H      1.231485    2.531033   -0.417616
  H      0.540737    1.820311    1.063964
  H     -2.388112    1.493753    1.195709
  H     -1.997630   -1.520171    0.798590
  H      0.617543   -2.713238    0.066168
  H      3.032793   -0.444487    0.373444

----------------------------
CARTESIAN COORDINATES (A.U.)
----------------------------
  NO LB      ZA    FRAG     MASS         X           Y           Z
   0 C     6.0000    0    12.011    1.268463    3.181243   -0.033649
   1 C     6.0000    0    12.011    2.661241    0.715291   -0.537260
   2 H     1.0000    0     1.008    2.984381    0.508202   -2.586712
   3 C     6.0000    0    12.011    1.024783   -1.467459    0.354001
   4 H     1.0000    0     1.008    0.757060   -1.291997    2.414266
   5 C     6.0000    0    12.011   -1.541185   -1.361543   -0.960088
   6 H     1.0000    0     1.008   -1.258361   -1.646277   -2.992224
   7 C     6.0000    0    12.011   -2.766690    1.231017   -0.576310
   8 H     1.0000    0     1.008   -4.436067    1.439027   -1.790408
   9 O     8.0000    0    15.999   -1.132447    3.204330   -1.307180
  10 O     8.0000    0    15.999   -3.458726    1.354333    2.020261
  11 O     8.0000    0    15.999   -3.139423   -3.367415   -0.132079
  12 O     8.0000    0    15.999    2.320575   -3.758039   -0.233723
  13 O     8.0000    0    15.999    4.997077    0.827581    0.789603
  14 H     1.0000    0     1.008    2.327169    4.782959   -0.789180
  15 H     1.0000    0     1.008    1.021845    3.439890    2.010601
  16 H     1.0000    0     1.008   -4.512877    2.822785    2.259563
  17 H     1.0000    0     1.008   -3.774973   -2.872708    1.509116
  18 H     1.0000    0     1.008    1.166988   -5.127276    0.125040
  19 H     1.0000    0     1.008    5.731149   -0.839959    0.705707

------------------------------------------------------------------------------
                   ___                                                        
                  /   \      - P O W E R E D   B Y -                         
                 /     \                                                     
                 |  |  |   _    _      __       _____    __    __             
                 |  |  |  | |  | |    /  \     |  _  \  |  |  /  |          
                  \  \/   | |  | |   /    \    | | | |  |  | /  /          
                 / \  \   | |__| |  /  /\  \   | |_| |  |  |/  /          
                |  |  |   |  __  | /  /__\  \  |    /   |      \           
                |  |  |   | |  | | |   __   |  |    \   |  |\   \          
                \     /   | |  | | |  |  |  |  | |\  \  |  | \   \       
                 \___/    |_|  |_| |__|  |__|  |_| \__\ |__|  \__/        
                                                                              
                      - O R C A' S   B I G   F R I E N D -                    
                                      &                                       
                       - I N T E G R A L  F E E D E R -                       
                                                                              
 v1 FN, 2020, v2 2021, v3 2022-2024                                           
------------------------------------------------------------------------------


----------------------
SHARK INTEGRAL PACKAGE
----------------------

Number of atoms                             ...     20
Number of basis functions                   ...    265
Number of shells                            ...    125
Maximum angular momentum                    ...      2
Integral batch strategy                     ... SHARK/LIBINT Hybrid
RI-J (if used) integral strategy            ... SPLIT-RIJ (Revised 2003 algorithm where possible)
Printlevel                                  ...      1
Contraction scheme used                     ... SEGMENTED contraction
Prescreening option                         ... SCHWARTZ
   Thresh                                   ... 3.000e-11
   Tcut                                     ... 1.000e-12
   Tpresel                                  ... 1.000e-12 
Coulomb Range Separation                    ... NOT USED
Exchange Range Separation                   ... NOT USED
Multipole approximations                    ... NOT USED
Finite Nucleus Model                        ... NOT USED
CABS basis                                  ... NOT available
Auxiliary Coulomb fitting basis             ... AVAILABLE
   # of basis functions in Aux-J            ...    600
   # of shells in Aux-J                     ...    200
   Maximum angular momentum in Aux-J        ...      4
Auxiliary J/K fitting basis                 ... NOT available
Auxiliary Correlation fitting basis         ... NOT available
Auxiliary 'external' fitting basis          ... NOT available

Checking pre-screening integrals            ... done (  0.0 sec) Dimension = 125
Check shell pair data                       ... done (  0.0 sec)
Shell pair information
Shell pair cut-off parameter TPreSel        ...   1.0e-12
Total number of shell pairs                 ...      7875
Shell pairs after pre-screening             ...      7153
Total number of primitive shell pairs       ...     27980
Primitive shell pairs kept                  ...     17941
          la=0 lb=0:   2164 shell pairs
          la=1 lb=0:   2553 shell pairs
          la=1 lb=1:    773 shell pairs
          la=2 lb=0:    971 shell pairs
          la=2 lb=1:    576 shell pairs
          la=2 lb=2:    116 shell pairs

Calculating one electron integrals          ... done (  0.0 sec)
Calculating RI/J V-Matrix + Cholesky decomp.... done (  0.0 sec)
Calculating Nuclear repulsion               ... done (  0.0 sec) ENN=    622.585982822078 Eh

Diagonalization of the overlap matrix:
Smallest eigenvalue                        ... 4.352e-05
Time for diagonalization                   ...    0.009 sec
Threshold for overlap eigenvalues          ... 1.000e-07
Number of eigenvalues below threshold      ... 0
Time for construction of square roots      ...    0.003 sec
Total time needed                          ...    0.014 sec

-------------------
DFT GRID GENERATION
-------------------

General Integration Accuracy     IntAcc      ... 4.388
Radial Grid Type                 RadialGrid  ... OptM3 with GC (2021)
Angular Grid (max. ang.)         AngularGrid ... 4 (Lebedev-302)
Angular grid pruning method      GridPruning ... 4 (adaptive)
Weight generation scheme         WeightScheme... mBecke (2022)
Basis function cutoff            BFCut       ... 1.0000e-11
Integration weight cutoff        WCut        ... 1.0000e-14
Partially contracted basis set               ... off
Rotationally invariant grid construction     ... off
Angular grids for H and He will be reduced by one unit
Diffuse basis detected: some atoms will have their outermost
                        angular grid increased by 1.

Total number of grid points                  ...    93497
Total number of batches                      ...     1471
Average number of points per batch           ...       63
Average number of grid points per atom       ...     4675
Initializing property integral containers    ... done (  0.0 sec)

SHARK setup successfully completed in   0.9 seconds

Maximum memory used throughout the entire STARTUP-calculation: 46.1 MB
Occupation numbers will be reassigned to an Aufbau configuration
             **** ENERGY FILE WAS UPDATED (xtb_opt.en.tmp) ****
Finished Guess after   0.1 sec
Maximum memory used throughout the entire GUESS-calculation: 20.9 MB
----------------------------------------D-I-I-S--------------------------------------------
Iteration    Energy (Eh)           Delta-E    RMSDP     MaxDP     DIISErr   Damp  Time(sec)
-------------------------------------------------------------------------------------------
               ***  Starting incremental Fock matrix formation  ***
                              *** Initializing SOSCF ***
---------------------------------------S-O-S-C-F--------------------------------------
Iteration    Energy (Eh)           Delta-E    RMSDP     MaxDP     MaxGrad    Time(sec)
--------------------------------------------------------------------------------------
    1    -572.5791488833024232     0.00e+00  4.61e-06  1.91e-04  6.45e-06     3.1
               *** Restarting incremental Fock matrix formation ***
    2    -572.5791488621050576     2.12e-08  8.23e-06  4.19e-04  2.97e-05     3.0
    3    -572.5791486705302304     1.92e-07  6.46e-06  3.42e-04  5.61e-05     2.5
    4    -572.5791489370001273    -2.66e-07  7.87e-07  4.47e-05  1.46e-06     2.4
                  *** Gradient check signals convergence ***

               *****************************************************
               *                     SUCCESS                       *
               *           SCF CONVERGED AFTER   4 CYCLES          *
               *****************************************************

             **** ENERGY FILE WAS UPDATED (xtb_opt.en.tmp) ****

----------------
TOTAL SCF ENERGY
----------------

Total Energy       :       -572.57914893700013 Eh          -15580.67075 eV

Components:
Nuclear Repulsion  :        622.58598282207777 Eh           16941.42588 eV
Electronic Energy  :      -1195.16513175907812 Eh          -32522.09663 eV
One Electron Energy:      -2020.28236763028940 Eh          -54974.67808 eV
Two Electron Energy:        825.11723587121139 Eh           22452.58146 eV

Virial components:
Potential Energy   :      -1142.80903720270953 Eh          -31097.41486 eV
Kinetic Energy     :        570.22988826570941 Eh           15516.74412 eV
Virial Ratio       :          2.00411984836227

DFT components:
N(Alpha)           :       40.000063624354 electrons
N(Beta)            :       40.000063624354 electrons
N(Total)           :       80.000127248708 electrons
E(X)               :      -71.032981263316 Eh       
E(C)               :       -2.657786552098 Eh       
E(XC)              :      -73.690767815414 Eh       

---------------
SCF CONVERGENCE
---------------

  Last Energy change         ...    2.6647e-07  Tolerance :   1.0000e-07
  Last MAX-Density change    ...    4.4679e-05  Tolerance :   1.0000e-07
  Last RMS-Density change    ...    7.8710e-07  Tolerance :   5.0000e-09
  Last DIIS Error            ...    1.3334e-04  Tolerance :   1.0000e-07
  Last Orbital Gradient      ...    1.4562e-06  Tolerance :   1.0000e-04
  Last Orbital Rotation      ...    2.8840e-06  Tolerance :   1.0000e-04


----------------
ORBITAL ENERGIES
----------------

  NO   OCC          E(Eh)            E(eV) 
   0   2.0000     -18.982114      -516.5296 
   1   2.0000     -18.976554      -516.3783 
   2   2.0000     -18.966395      -516.1018 
   3   2.0000     -18.960196      -515.9332 
   4   2.0000     -18.954159      -515.7689 
   5   2.0000     -10.148349      -276.1506 
   6   2.0000     -10.096442      -274.7381 
   7   2.0000     -10.089774      -274.5567 
   8   2.0000     -10.089329      -274.5446 
   9   2.0000     -10.085913      -274.4516 
  10   2.0000      -1.050887       -28.5961 
  11   2.0000      -1.009137       -27.4600 
  12   2.0000      -0.998750       -27.1774 
  13   2.0000      -0.982840       -26.7444 
  14   2.0000      -0.979415       -26.6512 
  15   2.0000      -0.754839       -20.5402 
  16   2.0000      -0.729861       -19.8605 
  17   2.0000      -0.625252       -17.0140 
  18   2.0000      -0.611275       -16.6337 
  19   2.0000      -0.567304       -15.4371 
  20   2.0000      -0.515571       -14.0294 
  21   2.0000      -0.511037       -13.9060 
  22   2.0000      -0.491755       -13.3813 
  23   2.0000      -0.468276       -12.7424 
  24   2.0000      -0.453561       -12.3420 
  25   2.0000      -0.449781       -12.2392 
  26   2.0000      -0.413820       -11.2606 
  27   2.0000      -0.397871       -10.8266 
  28   2.0000      -0.392930       -10.6922 
  29   2.0000      -0.377137       -10.2624 
  30   2.0000      -0.361228        -9.8295 
  31   2.0000      -0.337048        -9.1715 
  32   2.0000      -0.330727        -8.9995 
  33   2.0000      -0.318210        -8.6589 
  34   2.0000      -0.294030        -8.0010 
  35   2.0000      -0.285463        -7.7678 
  36   2.0000      -0.276204        -7.5159 
  37   2.0000      -0.257150        -6.9974 
  38   2.0000      -0.243903        -6.6369 
  39   2.0000      -0.232622        -6.3300 
  40   0.0000       0.030593         0.8325 
  41   0.0000       0.037136         1.0105 
  42   0.0000       0.074743         2.0339 
  43   0.0000       0.088856         2.4179 
  44   0.0000       0.093425         2.5422 
  45   0.0000       0.108929         2.9641 
  46   0.0000       0.119568         3.2536 
  47   0.0000       0.122632         3.3370 
  48   0.0000       0.135388         3.6841 
  49   0.0000       0.144606         3.9349 
  50   0.0000       0.156961         4.2711 
*Only the first 10 virtual orbitals were printed.
Total SCF time: 0 days 0 hours 0 min 11 sec 
Finished LeanSCF after  11.2 sec

Maximum memory used throughout the entire LEANSCF-calculation: 31.7 MB


-------------------------------------------------------------------------------
                          DFT DISPERSION CORRECTION                            
                                                                               
                                DFTD4 V3.4.0                                   
-------------------------------------------------------------------------------
-------------------------   ----------------
Dispersion correction           -0.006281913
-------------------------   ----------------

------------------   -----------------
gCP correction             0.016220615
------------------   -----------------

-------------------------   --------------------
FINAL SINGLE POINT ENERGY      -572.569210235104
-------------------------   --------------------

------------------------------------------------------------------------------
                         ORCA SCF GRADIENT CALCULATION
------------------------------------------------------------------------------

Nuc. rep. gradient        (SHARK) ... done (  0.0 sec)
HCore & Overlap gradient  (SHARK) ... done (  0.6 sec)
Split-RIJ-J gradient      (SHARK) ... done (  3.5 sec)
XC gradient                       ... done ( 12.2 sec)
Dispersion correction             ... done (  0.0 sec)

-------------------
DISPERSION GRADIENT
-------------------

   1   C   :    0.000016527    0.000063432   -0.000000982
   2   C   :    0.000063920    0.000016940   -0.000013180
   3   H   :    0.000038435    0.000006919   -0.000016030
   4   C   :    0.000021272   -0.000029218    0.000003573
   5   H   :    0.000013706   -0.000023016    0.000017550
   6   C   :   -0.000039248   -0.000028279   -0.000018909
   7   H   :   -0.000020280   -0.000027376   -0.000026098
   8   C   :   -0.000045635    0.000031012   -0.000007225
   9   H   :   -0.000036186    0.000013755   -0.000008985
  10   O   :   -0.000028611    0.000073757   -0.000026632
  11   O   :   -0.000094067    0.000042348    0.000041761
  12   O   :   -0.000072563   -0.000072461    0.000015029
  13   O   :    0.000040747   -0.000103649    0.000002614
  14   O   :    0.000110184   -0.000000521    0.000015282
  15   H   :    0.000021108    0.000043685   -0.000007723
  16   H   :    0.000011951    0.000038579    0.000012632
  17   H   :   -0.000030893    0.000012543    0.000020300
  18   H   :   -0.000027380   -0.000033138   -0.000008320
  19   H   :    0.000020664   -0.000034819   -0.000003007
  20   H   :    0.000036349    0.000009508    0.000008350

Difference to translation invariance:
           :   -0.0000000000   -0.0000000000    0.0000000000

Difference to rotation invariance:
           :   -0.0000000000    0.0000000000   -0.0000000000

Norm of the Dispersion gradient    ...    0.0002963809
RMS gradient                       ...    0.0000382626
MAX gradient                       ...    0.0001101840
gCP correction                   ... done

------------------
CARTESIAN GRADIENT
------------------

   1   C   :   -0.000039392    0.000020929    0.000000992
   2   C   :    0.000009545   -0.000118359   -0.000031107
   3   H   :   -0.000000050    0.000001387   -0.000028254
   4   C   :   -0.000040298    0.000036484    0.000008585
   5   H   :   -0.000006799    0.000047544    0.000041366
   6   C   :   -0.000047314   -0.000095914    0.000042455
   7   H   :   -0.000006660    0.000019445   -0.000019915
   8   C   :   -0.000005082    0.000004341   -0.000068005
   9   H   :    0.000010203   -0.000015982   -0.000021163
  10   O   :    0.000033260   -0.000045761    0.000013240
  11   O   :    0.000548392   -0.000584292   -0.000151984
  12   O   :   -0.000013072   -0.000013425    0.000005817
  13   O   :    0.000324543    0.000420732   -0.000172432
  14   O   :    0.000009124   -0.000073949    0.000097519
  15   H   :    0.000010436    0.000032523   -0.000003415
  16   H   :    0.000014934    0.000039348    0.000033331
  17   H   :   -0.000538059    0.000603836    0.000109857
  18   H   :    0.000020807   -0.000026373   -0.000004199
  19   H   :   -0.000293236   -0.000379923    0.000182212
  20   H   :    0.000008717    0.000127408   -0.000034901

Difference to translation invariance:
           :   -0.0000000000   -0.0000000000    0.0000000000

Difference to rotation invariance:
           :   -0.0005693326   -0.0004342705    0.0007369644

Norm of the Cartesian gradient     ...    0.0014117460
RMS gradient                       ...    0.0001822556
MAX gradient                       ...    0.0006038357

-------
TIMINGS
-------

Total SCF gradient time     ....       16.252 sec

Densities                   ....       0.001 sec  (  0.0%)
One electron gradient       ....       0.618 sec  (  3.8%)
RI-J Coulomb gradient       ....       3.451 sec  ( 21.2%)
XC gradient                 ....      12.159 sec  ( 74.8%)

Maximum memory used throughout the entire SCFGRAD-calculation: 41.2 MB

------------------------------------------------------------------------------
                              ORCA PROPERTY CALCULATIONS
------------------------------------------------------------------------------

GBWName                                 ... xtb_opt.gbw
Number of atoms                         ...     20
Number of basis functions               ...    265
Max core memory                         ...   1024 MB

Electric properties:
Dipole moment                           ... YES
Quadrupole moment                       ...  NO
Static polarizability (Dipole/Dipole)   ...  NO
Static polarizability (Dipole/Quad.)    ...  NO
Static polarizability (Quad./Quad.)     ...  NO
Static polarizability (Velocity)        ...  NO

Atomic electric properties:
Dipole moment                           ...  NO
Quadrupole moment                       ...  NO
Static polarizability                   ...  NO

Choice of electric origin               ... Center of mass
Position of electric origin             ...     0.007768     0.006705    -0.013304

General magnetic properties:
Magnetizability                         ...  NO

EPR properties:
g-Tensor (aka g-matrix)                 ...  NO
Zero-Field splitting spin-orbit         ...  NO
Zero-field splitting spin-spin          ...  NO
Hyperfine couplings                     ...  NO (   0 nuclei)
Quadrupole couplings                    ...  NO (   0 nuclei)
Contact density                         ...  NO (   0 nuclei)

NMR properties:
Chemical shifts                         ...  NO (   0 nuclei)
Spin-rotation constants                 ...  NO (   0 nuclei)
Spin-spin couplings                     ...  NO (   0 nuclei,    0 pairs)

Choice of magnetic origin               ... GIAO
Position of magnetic origin             ...     0.000000     0.000000     0.000000

Properties with geometric perturbations:
SCF Hessian                             ...  NO
IR spectrum                             ...  NO
VCD spectrum                            ...  NO
X-ray spectroscopy properties:
SCF XES/XAS/RIXS spectra                ...  NO


-------------
DIPOLE MOMENT
-------------

Method             : SCF
Type of density    : Electron Density
Multiplicity       :   1
Irrep              :   0
Energy             :  -572.5791489370001273 Eh
Relativity type    : 
Basis              : AO
                                X                 Y                 Z
Electronic contribution:     -0.710848197      -0.384756094      -0.220121885
Nuclear contribution   :     -0.038964534       0.555863274       0.505288145
                        -----------------------------------------
Total Dipole Moment    :     -0.749812731       0.171107180       0.285166261
                        -----------------------------------------
Magnitude (a.u.)       :      0.820253982
Magnitude (Debye)      :      2.084919931



--------------------
Rotational spectrum 
--------------------
 
Rotational constants in cm-1:             0.057196             0.044236             0.028790 
Rotational constants in MHz :          1714.687040          1326.149807           863.100348 

Dipole components along the rotational axes: 
x,y,z [a.u.] :     0.753147     0.169352     0.277320 
x,y,z [Debye]:     1.914348     0.430457     0.704891 

 

Dipole moment calculation done in   0.0 sec 

Maximum memory used throughout the entire PROP-calculation: 19.9 MB

--------------------------------
SUGGESTED CITATIONS FOR THIS RUN
--------------------------------

Below you find a list of papers that are relevant to this ORCA run
We neither can nor want to force you to cite these papers, but we appreciate if you do
You receive ORCA, which is the product of decades of hard work by many enthusiastic individuals, for free
The only thing we kindly ask in return is that you cite our papers,
We deeply appreciate it, if you show your appreciation for ORCA by not just citing the generic ORCA reference.

Please note that relegating all ORCA citations to the supporting information does *not* help us.
SI sections are not indexed - citations you put there will not count into any citation statistics
But we need these citations in order to attract the funding resources that allow us to do what we are doing

Therefore, if you are a happy ORCA user, please consider citing a few of the papers listed below in the main body of your paper

In addition to the list printed below, the program has created the file xtb_opt.bibtex that contains the list in bibtex format
You can import this file easily into all common literature databanks and citation aid programs


List of essential papers. We consider these as the minimum necessary citations

  1. Neese,F.
     Software update: the ORCA program system, version 5.0
     WIRES Comput. Molec. Sci., 2022 12(1)e1606
     doi.org/10.1002/wcms.1606
  2. Grimme,S.; Hansen,A.; Ehlert,S.; Mewes,J.
     r2SCAN-3c: A 'Swiss army knife' composite electronic-structure method
     J. Chem. Phys., 2021 154 064103
     doi.org/10.1063/5.0040021

List of papers to cite with high priority. The work reported in these papers was absolutely
necessary for this run to complete.
Our perspective: the developers of density functionals and basis sets usually get cited in chemistry papers
Good! But without the algorithms to do something with them, the functionals or basis sets would not do anything.
Hence, in our opinion, the algorithm design and method developments papers are equally worthy of getting cited

  1. Neese,F.
     An improvement of the resolution of the identity approximation for the formation of the Coulomb matrix
     J. Comp. Chem., 2003 24(14)1740-1747
     doi.org/10.1002/jcc.10318
  2. Neese,F.
     The SHARK Integral Generation and Digestion System
     J. Comp. Chem., 2022  1-16
     doi.org/10.1002/jcc.26942
  3. Lehtola,S.; Steigemann,C.; Oliveira,M.; Marques,M.
     Recent developments in Libxc - A comprehensive library of functionals for density functional theory
     Software X, 2018 7 
     doi.org/10.1016/j.softx.2017.11.002
  4. Caldeweyher,E.; Bannwarth,C.; Grimme,S.
     Extension of the D3 dispersion coefficient model
     J. Chem. Phys., 2017 147 034112
     doi.org/10.1063/1.4993215
  5. Caldeweyher,E.; Ehlert,S.; Hansen,A.; Neugebauer,H.; Spicher,S.; Bannwarth,C.; Grimme,S.
     A generally applicable atomic-charge dependent London dispersion correction
     J. Chem. Phys., 2019 150 154122
     doi.org/10.1063/1.5090222
  6. Caldeweyher,E.; Mewes,J.; Ehlert,S.; Grimme,S.
     Extension and evaluation of the D4 London-dispersion model for periodic systems
     Phys. Chem. Chem. Phys., 2020 22(16)8499-8512
     doi.org/10.1039/D0CP00502A
  7. Wittmann,L.; Gordiy,I.; Friede,M.; Helmich-Paris,B.; Grimme,S.; Hansen,A.; Bursch,M.
     Extension of the D3 and D4 London Dispersion Corrections to the full Actinides Series
     Phys. Chem. Chem. Phys., 2024 26(32)21379-21394
     doi.org/https://doi.org/10.1039/D4CP01514B 

List of suggested additional citations. These are papers that are important in the 'surrounding' of 
of this run, or papers that preceded the highly important papers. If you like your results we are grateful for a citation.

  1. Neese,F.
     The ORCA program system
     WIRES Comput. Molec. Sci., 2012 2(1)73-78
     doi.org/10.1002/wcms.81
  2. Neese,F.
     Software update: the ORCA program system, version 4.0
     WIRES Comput. Molec. Sci., 2018 8(1)1-6
     doi.org/10.1002/wcms.1327
  3. Neese,F.; Wennmohs,F.; Becker,U.; Riplinger,C.
     The ORCA quantum chemistry program package
     J. Chem. Phys., 2020 152 Art. No. L224108
     doi.org/10.1063/5.0004608

List of optional additional citations

  1. Neese,F.
     Approximate second-order SCF convergence for spin unrestricted wavefunctions
     Chem. Phys. Lett., 2000 325(1-3)93-98
     doi.org/10.1016/s0009-2614(00)00662-x

Timings for individual modules:

Sum of individual times          ...       28.528 sec (=   0.475 min)
Startup calculation              ...        0.879 sec (=   0.015 min)   3.1 %
SCF iterations                   ...       11.249 sec (=   0.187 min)  39.4 %
Property calculations            ...        0.078 sec (=   0.001 min)   0.3 %
SCF Gradient evaluation          ...       16.322 sec (=   0.272 min)  57.2 %
                             ****ORCA TERMINATED NORMALLY****
TOTAL RUN TIME: 0 days 0 hours 0 minutes 28 seconds 654 msec
  ------------------------------------------------------------------------
          * successful ORCA run, taking over control again...

         :::::::::::::::::::::::::::::::::::::::::::::::::::::
         ::                  ORCA SUMMARY                   ::
         :::::::::::::::::::::::::::::::::::::::::::::::::::::
         :: total energy            -572.569210235104 Eh    ::
         :: gradient norm              0.001411746008 Eh/a0 ::
         :: HOMO-LUMO gap              0.000000000000 eV    ::
         :::::::::::::::::::::::::::::::::::::::::::::::::::::

      ----------------------------------------------------------- 
     |                       L-ANC optimizer                     |
      ----------------------------------------------------------- 
          low memory version by Sebastian Ehlert

          ...................................................
          :                      SETUP                      :
          :.................................................:
          :   energy convergence        0.5000000E-05 Eh    :
          :   grad. convergence         0.1000000E-02 Eh/a0 :
          :   optimization log               true           :
          :   writing optlog all                1     steps :
          :   Hessian reset                     8     steps :
          :   maximium step len.        1.0000000     a0    :
          :   LBFGS images                      8           :
          ...................................................
 * calculating model hessian...
Using Lindh-Hessian (1995)
 Shifting diagonal of input Hessian by    1.0000000000000000E-002
 Lowest  eigenvalues of input Hessian
    0.000000    0.000000    0.000000    0.000000    0.000000    0.000000
    0.015196    0.015865    0.021485    0.022106    0.023960    0.026417
    0.031484    0.036341    0.042196    0.043500    0.045358    0.055404
 Highest eigenvalues
    1.329830    1.417473    1.451039    1.469341    1.491126    1.600741


........................................................................
.............................. CYCLE    1 ..............................
........................................................................
                         * ORCA takes the control...
  ------------------------------------------------------------------------

                                 *****************
                                 * O   R   C   A *
                                 *****************

                                            #,                                       
                                            ###                                      
                                            ####                                     
                                            #####                                    
                                            ######                                   
                                           ########,                                 
                                     ,,################,,,,,                         
                               ,,#################################,,                 
                          ,,##########################################,,             
                       ,#########################################, ''#####,          
                    ,#############################################,,   '####,        
                  ,##################################################,,,,####,       
                ,###########''''           ''''###############################       
              ,#####''   ,,,,##########,,,,          '''####'''          '####       
            ,##' ,,,,###########################,,,                        '##       
           ' ,,###''''                  '''############,,,                           
         ,,##''                                '''############,,,,        ,,,,,,###''
      ,#''                                            '''#######################'''  
     '                                                          ''''####''''         
             ,#######,   #######,   ,#######,      ##                                
            ,#'     '#,  ##    ##  ,#'     '#,    #''#        ,####,   ,####,        
            ##       ##  ##   ,#'  ##            #'  '#       #'       #'  '#        
            ##       ##  #######   ##           ,######,      #####,   #    #        
            '#,     ,#'  ##    ##  '#,     ,#' ,#      #,     #,   #   #,  ,#        
             '#######'   ##     ##  '#######'  #'      '#     '####' # '####'        



                #########################################################
                #                        -***-                          #
                #          Department of theory and spectroscopy        #
                #                                                       #
                #                      Frank Neese                      #
                #                                                       #
                #     Directorship, Architecture, Infrastructure        #
                #                    SHARK, DRIVERS                     #
                #        Core code/Algorithms in most modules           #
                #                                                       #
                #        Max Planck Institute fuer Kohlenforschung      #
                #                Kaiser Wilhelm Platz 1                 #
                #                 D-45470 Muelheim/Ruhr                 #
                #                      Germany                          #
                #                                                       #
                #                  All rights reserved                  #
                #                        -***-                          #
                #########################################################


                         Program Version 6.0.1  -  RELEASE   -


 With contributions from (in alphabetic order):
[Max-Planck-Institut fuer Kohlenforschung]                               
  Daniel Aravena         : Magnetic Suceptibility                        
  Michael Atanasov       : Ab Initio Ligand Field Theory (pilot matlab implementation)
  Alexander A. Auer      : GIAO ZORA, VPT2 properties, NMR spectrum      
  Ute Becker             : All parallelization in ORCA, NUMFREQ, NUMCALC 
  Giovanni Bistoni       : ED, misc. LED, open-shell LED, HFLD           
  Martin Brehm           : Molecular dynamics                            
  Dmytro Bykov           : pre 5.0 version of the SCF Hessian            
  Marcos Casanova-Páez   : Triplet and SCS-CIS(D). UHF-(DLPNO)-IP/EA/STEOM-CCSD. UHF-CVS-IP/STEOM-CCSD   
  Vijay G. Chilkuri      : MRCI spin determinant printing, contributions to CSF-ICE 
  Pauline Colinet        : FMM embedding                                 
  Dipayan Datta          : RHF DLPNO-CCSD density                        
  Achintya Kumar Dutta   : EOM-CC, STEOM-CC                              
  Nicolas Foglia         : Exact transition moments, OPA infrastructure, MCD improvements    
  Dmitry Ganyushin       : Spin-Orbit,Spin-Spin,Magnetic field MRCI      
  Miquel Garcia-Rates    : C-PCM and meta-GGA Hessian, CCSD/C-PCM, Gaussian charge scheme 
  Tiago L. C. Gouveia    : GS-ROHF, GS-ROCIS                             
  Yang Guo               : DLPNO-NEVPT2, F12-NEVPT2, CIM, IAO-localization        
  Andreas Hansen         : Spin unrestricted coupled pair/coupled cluster methods 
  Ingolf Harden          : AUTO-CI MPn and infrastructure                
  Benjamin Helmich-Paris : MC-RPA, TRAH-(SCF,CASSCF), AVAS, COSX integrals, SCF dyn. polar. 
  Lee Huntington         : MR-EOM, pCC                                   
  Robert Izsak           : Overlap fitted RIJCOSX, COSX-SCS-MP3, EOM     
  Riya Kayal             : Wick's Theorem for AUTO-CI, AUTO-CI UHF-CCSDT 
  Emily Kempfer          : AUTO-CI, RHF CISDT and CCSDT                  
  Christian Kollmar      : KDIIS, OOCD, Brueckner-CCSD(T), CCSD density, CASPT2, CASPT2-K, improved NEVPT2 
  Axel Koslowski         : Symmetry handling                             
  Simone Kossmann        : meta-GGA functionals, TD-DFT gradient, OOMP2, (MP2 Hessian; deprecated post 5.0) 
  Lucas Lang             : DCDCAS                                        
  Marvin Lechner         : AUTO-CI (C++ implementation), FIC-MRCC        
  Spencer Leger          : CASSCF response                               
  Dagmar Lenk            : GEPOL surface, SMD, ORCA-2-JSON               
  Dimitrios Liakos       : Extrapolation schemes; Compound Job, initial MDCI parallelization 
  Dimitrios Manganas     : Further ROCIS development; embedding schemes. LFT, Crystal Embedding 
  Dimitrios Pantazis     : SARC Basis sets                               
  Anastasios Papadopoulos: AUTO-CI, single reference methods and gradients 
  Taras Petrenko         : pre 6.0 DFT Hessian and TD-DFT gradient, (ASA, deprecated), ECA, 1-Electron XAS/XES, NRVS 
  Peter Pinski           : DLPNO-MP2, DLPNO-MP2 Gradient                 
  Christoph Reimann      : Effective Core Potentials                     
  Marius Retegan         : Local ZFS, SOC                                
  Christoph Riplinger    : Optimizer, TS searches, QM/MM, DLPNO-CCSD(T), (RO)-DLPNO pert. Triples 
  Michael Roemelt        : Original ROCIS implementation                 
  Masaaki Saitow         : Open-shell DLPNO-CCSD energy and density      
  Barbara Sandhoefer     : DKH picture change effects                    
  Kantharuban Sivalingam : CASSCF convergence/infrastructure, NEVPT2 and variants, FIC-MRCI 
  Bernardo de Souza      : ESD, SOC TD-DFT                               
  Georgi L. Stoychev     : AutoAux, RI-MP2 NMR, DLPNO-MP2 response, X2C  
  Van Anh Tran           : RI-MP2 g-tensors                              
  Willem Van den Heuvel  : Paramagnetic NMR                              
  Zikuan Wang            : NOTCH, Electric field optimization            
  Frank Wennmohs         : Technical directorship and infrastructure     
  Hang Xu                : AUTO-CI-Response properties                   
                                                                         
[FACCTs GmbH]                                                            
  Markus Bursch, Miquel Garcia-Rates, Christoph Riplinger, Bernardo de Souza, Georgi L. Stoychev 
                                                                 
  APM, Basis sets (HGBS, AHGBS, def-TZVP (Ac-Lr), def2-XVPD (La-Lu)), CI-OPT, improved COSX, DLPNO-Multilevel,           
  DOCKER, DRACO, updates on ESD, GOAT, IRC, LR-CPCM, MBIS, meta-GGA TD-DFT gradient, ML-optimized integration grids, 
  MM, NACMEs, nearIR, NEB, NEB-TS, NL-DFT gradient (VV10), 2- and 3-layer-ONIOM, interface openCOSMO-RS, QMMM,   
  Crystal-QMMM, SF, symmetry and pop. for TD-DFT, r2SCAN hybrids, SOLVATOR                                   
                                                                         
[Other institutions]                                                     
  V. Asgeirsson          : NEB                                           
  Christoph Bannwarth    : sTDA-DFT, sTD-DFT, PBEh-3c, B97-3c, D3        
  Sebastian Ehlert       : rSCAN, r2SCAN, r2SCAN-3c, D4, dhf basis sets  
  Marvin Friede          : D4 for Fr, Ra, Ac-Lr                          
  Lars Goerigk           : TD-DFT with DH, B97 family of functionals     
  Stefan Grimme          : VdW corrections, initial TS optimization, DFT functionals, gCP, sTDA/sTD-DF 
  Waldemar Hujo          : DFT-NL                                        
  H. Jonsson             : NEB                                           
  Holger Kruse           : gCP                                           
  Marcel Mueller         : wB97X-3c, vDZP basis set                      
  Hagen Neugebauer       : wr2SCAN                                       
  Tobias Risthaus        : range-separated hybrid DFT                    
  Lukas Wittmann         : regularized MP2, r2SCAN double-hybrids, wr2SCAN        
                                                                         
We gratefully acknowledge several colleagues who have allowed us to      
interface, adapt or use parts of their codes:                            
  Ed Valeev, F. Pavosevic, A. Kumar             : LibInt (2-el integral package), F12 methods 
  Garnet Chan, S. Sharma, J. Yang, R. Olivares  : DMRG                   
  Ulf Ekstrom                                   : XCFun DFT Library      
  Mihaly Kallay                                 : mrcc  (arbitrary order and MRCC methods)
  Frank Weinhold                                : gennbo (NPA and NBO analysis)           
  Simon Mueller                                 : openCOSMO-RS                            
  Christopher J. Cramer and Donald G. Truhlar   : smd solvation model                     
  S Lehtola, MJT Oliveira, MAL Marques          : LibXC Library                           
  Liviu Ungur et al                             : ANISO software                          


 Your calculation uses the libint2 library for the computation of 2-el integrals
 For citations please refer to: http://libint.valeyev.net

 Your ORCA version has been built with support for libXC version: 6.2.2
 For citations please refer to: https://libxc.gitlab.io

 This ORCA versions uses:
   CBLAS   interface :  Fast vector & matrix operations
   LAPACKE interface :  Fast linear algebra routines
   SCALAPACK package :  Parallel linear algebra routines
   Shared memory     :  Shared parallel matrices
   BLAS/LAPACK       :  OpenBLAS 0.3.27  USE64BITINT DYNAMIC_ARCH NO_AFFINITY Zen SINGLE_THREADED
        Core in use  :  Zen
   Copyright (c) 2011-2014, The OpenBLAS Project




***************************************
The coordinates will be read from file: xtb_opt.xyz
***************************************


Your calculation utilizes the geometrical counterpoise correction gCP
Please cite in your paper:
H.Kruse, S. Grimme J.Chem.Phys., 136, (2012), 154101 
   

Your calculation utilizes the atom-pairwise dispersion correction
based on EEQ partial charges (D4)


================================================================================

----- Orbital basis set information -----
Your calculation utilizes the basis: def2-mTZVPP
   Stefan Grimme, Andreas Hansen, Sebastian Ehlert, and Jan-Michael Mewes 
   J. Chem. Phys. 154, 064103 (2021). DOI: 10.1063/5.0040021

----- AuxJ basis set information -----
Your calculation utilizes the auxiliary basis: def2/J
   F. Weigend, Phys. Chem. Chem. Phys. 8, 1057 (2006).

================================================================================
                                        WARNINGS
                       Please study these warnings very carefully!
================================================================================

WARNING: Old DensityContainer found on disk!
         Will remove this file - 
         If you want to keep old densities, please start your calculation with a different basename. 



WARNING: SCAN, rSCAN, or r2SCAN functional requested.
  ===> : libXC variant has now been activated.



================================================================================
                                       INPUT FILE
================================================================================
NAME = xtb_opt.inp
|  1> ! r2scan-3c def2/J RI DEFGRID2 scfconv7 ENGRAD tightSCF miniprint
|  2> * xyzfile 0 1 xtb_opt.xyz
|  3> 
|  4>                          ****END OF INPUT****
================================================================================

                     *******************************
                     * Energy+Gradient Calculation *
                     *******************************

---------------------------------
CARTESIAN COORDINATES (ANGSTROEM)
---------------------------------
  C      0.670978    1.683460   -0.018083
  C      1.408272    0.378727   -0.284298
  H      1.579177    0.268798   -1.368744
  C      0.542650   -0.776604    0.187475
  H      0.400734   -0.684034    1.277637
  C     -0.815148   -0.720283   -0.507973
  H     -0.665312   -0.871351   -1.583226
  C     -1.464235    0.651342   -0.304755
  H     -2.347638    0.761284   -0.947258
  O     -0.599692    1.695727   -0.691722
  O     -1.830874    0.716501    1.069221
  O     -1.660910   -1.781675   -0.069684
  O      1.228186   -1.988933   -0.123199
  O      2.644572    0.438130    0.417327
  H      1.231082    2.531027   -0.417993
  H      0.540342    1.820150    1.063623
  H     -2.386680    1.493779    1.195757
  H     -1.997767   -1.519415    0.798473
  H      0.617375   -2.712854    0.064659
  H      3.031880   -0.445023    0.374712

----------------------------
CARTESIAN COORDINATES (A.U.)
----------------------------
  NO LB      ZA    FRAG     MASS         X           Y           Z
   0 C     6.0000    0    12.011    1.267965    3.181278   -0.034172
   1 C     6.0000    0    12.011    2.661249    0.715691   -0.537246
   2 H     1.0000    0     1.008    2.984212    0.507954   -2.586552
   3 C     6.0000    0    12.011    1.025461   -1.467569    0.354276
   4 H     1.0000    0     1.008    0.757277   -1.292637    2.414384
   5 C     6.0000    0    12.011   -1.540407   -1.361138   -0.959929
   6 H     1.0000    0     1.008   -1.257257   -1.646615   -2.991863
   7 C     6.0000    0    12.011   -2.767003    1.230858   -0.575904
   8 H     1.0000    0     1.008   -4.436392    1.438619   -1.790059
   9 O     8.0000    0    15.999   -1.133254    3.204459   -1.307166
  10 O     8.0000    0    15.999   -3.459851    1.353991    2.020534
  11 O     8.0000    0    15.999   -3.138664   -3.366878   -0.131683
  12 O     8.0000    0    15.999    2.320935   -3.758538   -0.232812
  13 O     8.0000    0    15.999    4.997517    0.827946    0.788634
  14 H     1.0000    0     1.008    2.326409    4.782947   -0.789893
  15 H     1.0000    0     1.008    1.021098    3.439584    2.009957
  16 H     1.0000    0     1.008   -4.510171    2.822833    2.259654
  17 H     1.0000    0     1.008   -3.775232   -2.871278    1.508895
  18 H     1.0000    0     1.008    1.166669   -5.126551    0.122187
  19 H     1.0000    0     1.008    5.729423   -0.840971    0.708102

------------------------------------------------------------------------------
                   ___                                                        
                  /   \      - P O W E R E D   B Y -                         
                 /     \                                                     
                 |  |  |   _    _      __       _____    __    __             
                 |  |  |  | |  | |    /  \     |  _  \  |  |  /  |          
                  \  \/   | |  | |   /    \    | | | |  |  | /  /          
                 / \  \   | |__| |  /  /\  \   | |_| |  |  |/  /          
                |  |  |   |  __  | /  /__\  \  |    /   |      \           
                |  |  |   | |  | | |   __   |  |    \   |  |\   \          
                \     /   | |  | | |  |  |  |  | |\  \  |  | \   \       
                 \___/    |_|  |_| |__|  |__|  |_| \__\ |__|  \__/        
                                                                              
                      - O R C A' S   B I G   F R I E N D -                    
                                      &                                       
                       - I N T E G R A L  F E E D E R -                       
                                                                              
 v1 FN, 2020, v2 2021, v3 2022-2024                                           
------------------------------------------------------------------------------


----------------------
SHARK INTEGRAL PACKAGE
----------------------

Number of atoms                             ...     20
Number of basis functions                   ...    265
Number of shells                            ...    125
Maximum angular momentum                    ...      2
Integral batch strategy                     ... SHARK/LIBINT Hybrid
RI-J (if used) integral strategy            ... SPLIT-RIJ (Revised 2003 algorithm where possible)
Printlevel                                  ...      1
Contraction scheme used                     ... SEGMENTED contraction
Prescreening option                         ... SCHWARTZ
   Thresh                                   ... 3.000e-11
   Tcut                                     ... 1.000e-12
   Tpresel                                  ... 1.000e-12 
Coulomb Range Separation                    ... NOT USED
Exchange Range Separation                   ... NOT USED
Multipole approximations                    ... NOT USED
Finite Nucleus Model                        ... NOT USED
CABS basis                                  ... NOT available
Auxiliary Coulomb fitting basis             ... AVAILABLE
   # of basis functions in Aux-J            ...    600
   # of shells in Aux-J                     ...    200
   Maximum angular momentum in Aux-J        ...      4
Auxiliary J/K fitting basis                 ... NOT available
Auxiliary Correlation fitting basis         ... NOT available
Auxiliary 'external' fitting basis          ... NOT available

Checking pre-screening integrals            ... done (  0.0 sec) Dimension = 125
Check shell pair data                       ... done (  0.0 sec)
Shell pair information
Shell pair cut-off parameter TPreSel        ...   1.0e-12
Total number of shell pairs                 ...      7875
Shell pairs after pre-screening             ...      7153
Total number of primitive shell pairs       ...     27980
Primitive shell pairs kept                  ...     17941
          la=0 lb=0:   2164 shell pairs
          la=1 lb=0:   2553 shell pairs
          la=1 lb=1:    773 shell pairs
          la=2 lb=0:    971 shell pairs
          la=2 lb=1:    576 shell pairs
          la=2 lb=2:    116 shell pairs

Calculating one electron integrals          ... done (  0.1 sec)
Calculating RI/J V-Matrix + Cholesky decomp.... done (  0.0 sec)
Calculating Nuclear repulsion               ... done (  0.0 sec) ENN=    622.592535064303 Eh

Diagonalization of the overlap matrix:
Smallest eigenvalue                        ... 4.352e-05
Time for diagonalization                   ...    0.008 sec
Threshold for overlap eigenvalues          ... 1.000e-07
Number of eigenvalues below threshold      ... 0
Time for construction of square roots      ...    0.004 sec
Total time needed                          ...    0.013 sec

-------------------
DFT GRID GENERATION
-------------------

General Integration Accuracy     IntAcc      ... 4.388
Radial Grid Type                 RadialGrid  ... OptM3 with GC (2021)
Angular Grid (max. ang.)         AngularGrid ... 4 (Lebedev-302)
Angular grid pruning method      GridPruning ... 4 (adaptive)
Weight generation scheme         WeightScheme... mBecke (2022)
Basis function cutoff            BFCut       ... 1.0000e-11
Integration weight cutoff        WCut        ... 1.0000e-14
Partially contracted basis set               ... off
Rotationally invariant grid construction     ... off
Angular grids for H and He will be reduced by one unit
Diffuse basis detected: some atoms will have their outermost
                        angular grid increased by 1.

Total number of grid points                  ...    93497
Total number of batches                      ...     1471
Average number of points per batch           ...       63
Average number of grid points per atom       ...     4675
Initializing property integral containers    ... done (  0.0 sec)

SHARK setup successfully completed in   1.1 seconds

Maximum memory used throughout the entire STARTUP-calculation: 46.1 MB
Occupation numbers will be reassigned to an Aufbau configuration
             **** ENERGY FILE WAS UPDATED (xtb_opt.en.tmp) ****
Finished Guess after   0.1 sec
Maximum memory used throughout the entire GUESS-calculation: 20.9 MB
----------------------------------------D-I-I-S--------------------------------------------
Iteration    Energy (Eh)           Delta-E    RMSDP     MaxDP     DIISErr   Damp  Time(sec)
-------------------------------------------------------------------------------------------
               ***  Starting incremental Fock matrix formation  ***
                              *** Initializing SOSCF ***
---------------------------------------S-O-S-C-F--------------------------------------
Iteration    Energy (Eh)           Delta-E    RMSDP     MaxDP     MaxGrad    Time(sec)
--------------------------------------------------------------------------------------
    1    -572.5791484684509669     0.00e+00  2.98e-05  1.35e-03  2.95e-05     3.2
               *** Restarting incremental Fock matrix formation ***
    2    -572.5791507762025958    -2.31e-06  8.88e-06  2.54e-04  3.82e-05     4.1
    3    -572.5791507520973482     2.41e-08  6.47e-06  2.96e-04  6.20e-05     2.7
                 **** Energy Check signals convergence ****

               *****************************************************
               *                     SUCCESS                       *
               *           SCF CONVERGED AFTER   3 CYCLES          *
               *****************************************************

             **** ENERGY FILE WAS UPDATED (xtb_opt.en.tmp) ****

----------------
TOTAL SCF ENERGY
----------------

Total Energy       :       -572.57915075209735 Eh          -15580.67080 eV

Components:
Nuclear Repulsion  :        622.59253506430309 Eh           16941.60417 eV
Electronic Energy  :      -1195.17168581640044 Eh          -32522.27497 eV
One Electron Energy:      -2020.28843382393188 Eh          -54974.84315 eV
Two Electron Energy:        825.11674800753144 Eh           22452.56818 eV

Virial components:
Potential Energy   :      -1142.81177592177437 Eh          -31097.48939 eV
Kinetic Energy     :        570.23262516967702 Eh           15516.81859 eV
Virial Ratio       :          2.00411503214451

DFT components:
N(Alpha)           :       40.000063940967 electrons
N(Beta)            :       40.000063940967 electrons
N(Total)           :       80.000127881933 electrons
E(X)               :      -71.033517541556 Eh       
E(C)               :       -2.657805714591 Eh       
E(XC)              :      -73.691323256147 Eh       

---------------
SCF CONVERGENCE
---------------

  Last Energy change         ...   -2.4105e-08  Tolerance :   1.0000e-07
  Last MAX-Density change    ...    2.9648e-04  Tolerance :   1.0000e-07
  Last RMS-Density change    ...    6.4743e-06  Tolerance :   5.0000e-09
  Last DIIS Error            ...    4.9870e-04  Tolerance :   1.0000e-07
  Last Orbital Gradient      ...    6.1975e-05  Tolerance :   1.0000e-04
  Last Orbital Rotation      ...    4.0258e-05  Tolerance :   1.0000e-04


----------------
ORBITAL ENERGIES
----------------

  NO   OCC          E(Eh)            E(eV) 
   0   2.0000     -18.982658      -516.5444 
   1   2.0000     -18.976402      -516.3741 
   2   2.0000     -18.966267      -516.0984 
   3   2.0000     -18.960521      -515.9420 
   4   2.0000     -18.954120      -515.7678 
   5   2.0000     -10.148353      -276.1507 
   6   2.0000     -10.096503      -274.7398 
   7   2.0000     -10.089817      -274.5579 
   8   2.0000     -10.089371      -274.5457 
   9   2.0000     -10.085964      -274.4530 
  10   2.0000      -1.051052       -28.6006 
  11   2.0000      -1.009263       -27.4634 
  12   2.0000      -0.998790       -27.1784 
  13   2.0000      -0.983056       -26.7503 
  14   2.0000      -0.979544       -26.6547 
  15   2.0000      -0.754911       -20.5422 
  16   2.0000      -0.729908       -19.8618 
  17   2.0000      -0.625387       -17.0176 
  18   2.0000      -0.611321       -16.6349 
  19   2.0000      -0.567454       -15.4412 
  20   2.0000      -0.515642       -14.0313 
  21   2.0000      -0.511148       -13.9091 
  22   2.0000      -0.491830       -13.3834 
  23   2.0000      -0.468320       -12.7436 
  24   2.0000      -0.453642       -12.3442 
  25   2.0000      -0.449805       -12.2398 
  26   2.0000      -0.413919       -11.2633 
  27   2.0000      -0.397906       -10.8276 
  28   2.0000      -0.393042       -10.6952 
  29   2.0000      -0.377228       -10.2649 
  30   2.0000      -0.361406        -9.8344 
  31   2.0000      -0.337112        -9.1733 
  32   2.0000      -0.330795        -9.0014 
  33   2.0000      -0.318296        -8.6613 
  34   2.0000      -0.294087        -8.0025 
  35   2.0000      -0.285643        -7.7727 
  36   2.0000      -0.276178        -7.5152 
  37   2.0000      -0.257228        -6.9995 
  38   2.0000      -0.243926        -6.6376 
  39   2.0000      -0.232649        -6.3307 
  40   0.0000       0.030581         0.8322 
  41   0.0000       0.037274         1.0143 
  42   0.0000       0.074751         2.0341 
  43   0.0000       0.088897         2.4190 
  44   0.0000       0.093477         2.5436 
  45   0.0000       0.108954         2.9648 
  46   0.0000       0.119548         3.2531 
  47   0.0000       0.122631         3.3370 
  48   0.0000       0.135348         3.6830 
  49   0.0000       0.144626         3.9355 
  50   0.0000       0.156943         4.2706 
*Only the first 10 virtual orbitals were printed.
Total SCF time: 0 days 0 hours 0 min 10 sec 
Finished LeanSCF after  10.2 sec

Maximum memory used throughout the entire LEANSCF-calculation: 31.8 MB


-------------------------------------------------------------------------------
                          DFT DISPERSION CORRECTION                            
                                                                               
                                DFTD4 V3.4.0                                   
-------------------------------------------------------------------------------
-------------------------   ----------------
Dispersion correction           -0.006282028
-------------------------   ----------------

------------------   -----------------
gCP correction             0.016221092
------------------   -----------------

-------------------------   --------------------
FINAL SINGLE POINT ENERGY      -572.569211687652
-------------------------   --------------------

------------------------------------------------------------------------------
                         ORCA SCF GRADIENT CALCULATION
------------------------------------------------------------------------------

Nuc. rep. gradient        (SHARK) ... done (  0.0 sec)
HCore & Overlap gradient  (SHARK) ... done (  0.6 sec)
Split-RIJ-J gradient      (SHARK) ... done (  3.4 sec)
XC gradient                       ... done (  9.9 sec)
Dispersion correction             ... done (  0.0 sec)

-------------------
DISPERSION GRADIENT
-------------------

   1   C   :    0.000016485    0.000063435   -0.000001000
   2   C   :    0.000063909    0.000016932   -0.000013182
   3   H   :    0.000038443    0.000006921   -0.000016032
   4   C   :    0.000021316   -0.000029247    0.000003574
   5   H   :    0.000013709   -0.000023037    0.000017555
   6   C   :   -0.000039219   -0.000028266   -0.000018901
   7   H   :   -0.000020269   -0.000027382   -0.000026097
   8   C   :   -0.000045645    0.000031040   -0.000007218
   9   H   :   -0.000036187    0.000013748   -0.000008975
  10   O   :   -0.000028633    0.000073760   -0.000026627
  11   O   :   -0.000094034    0.000042305    0.000041762
  12   O   :   -0.000072569   -0.000072448    0.000015027
  13   O   :    0.000040758   -0.000103629    0.000002589
  14   O   :    0.000110174   -0.000000543    0.000015302
  15   H   :    0.000021108    0.000043693   -0.000007734
  16   H   :    0.000011939    0.000038585    0.000012629
  17   H   :   -0.000030927    0.000012569    0.000020296
  18   H   :   -0.000027374   -0.000033130   -0.000008312
  19   H   :    0.000020652   -0.000034833   -0.000002983
  20   H   :    0.000036365    0.000009525    0.000008329

Difference to translation invariance:
           :    0.0000000000    0.0000000000   -0.0000000000

Difference to rotation invariance:
           :   -0.0000000000   -0.0000000000   -0.0000000000

Norm of the Dispersion gradient    ...    0.0002963658
RMS gradient                       ...    0.0000382607
MAX gradient                       ...    0.0001101742
gCP correction                   ... done

------------------
CARTESIAN GRADIENT
------------------

   1   C   :    0.000005085   -0.000001079   -0.000027891
   2   C   :   -0.000021611    0.000073200    0.000011534
   3   H   :    0.000014721   -0.000009054    0.000023124
   4   C   :    0.000038951   -0.000057387    0.000013125
   5   H   :   -0.000016117    0.000006858   -0.000008576
   6   C   :    0.000044159    0.000021196   -0.000039535
   7   H   :    0.000017755   -0.000032926    0.000003801
   8   C   :   -0.000114348   -0.000035688    0.000152702
   9   H   :    0.000005859    0.000017053   -0.000033658
  10   O   :    0.000031599   -0.000008626   -0.000056567
  11   O   :   -0.000100580    0.000213103   -0.000006362
  12   O   :    0.000020555    0.000041950   -0.000017198
  13   O   :   -0.000091044   -0.000115373    0.000004035
  14   O   :   -0.000058335   -0.000020031    0.000054134
  15   H   :   -0.000010813    0.000003847   -0.000016976
  16   H   :   -0.000018395   -0.000001533   -0.000022418
  17   H   :    0.000073297   -0.000214378   -0.000054448
  18   H   :    0.000009248    0.000002014    0.000014604
  19   H   :    0.000118695    0.000103632    0.000042931
  20   H   :    0.000051317    0.000013221   -0.000036361

Difference to translation invariance:
           :   -0.0000000000    0.0000000000   -0.0000000000

Difference to rotation invariance:
           :   -0.0005660486   -0.0004059757    0.0007271710

Norm of the Cartesian gradient     ...    0.0004845565
RMS gradient                       ...    0.0000625560
[...]
ORBITAL ENERGIES
----------------

  NO   OCC          E(Eh)            E(eV) 
   0   2.0000     -18.982146      -516.5304 
   1   2.0000     -18.976503      -516.3769 
   2   2.0000     -18.966381      -516.1015 
   3   2.0000     -18.960195      -515.9331 
   4   2.0000     -18.954182      -515.7695 
   5   2.0000     -10.148396      -276.1519 
   6   2.0000     -10.096472      -274.7390 
   7   2.0000     -10.089790      -274.5572 
   8   2.0000     -10.089363      -274.5455 
   9   2.0000     -10.085934      -274.4522 
  10   2.0000      -1.050989       -28.5989 
  11   2.0000      -1.009218       -27.4622 
  12   2.0000      -0.998790       -27.1785 
  13   2.0000      -0.982982       -26.7483 
  14   2.0000      -0.979497       -26.6535 
  15   2.0000      -0.754895       -20.5417 
  16   2.0000      -0.729902       -19.8617 
  17   2.0000      -0.625354       -17.0167 
  18   2.0000      -0.611319       -16.6348 
  19   2.0000      -0.567409       -15.4400 
  20   2.0000      -0.515617       -14.0306 
  21   2.0000      -0.511104       -13.9079 
  22   2.0000      -0.491805       -13.3827 
  23   2.0000      -0.468313       -12.7435 
  24   2.0000      -0.453610       -12.3434 
  25   2.0000      -0.449786       -12.2393 
  26   2.0000      -0.413899       -11.2628 
  27   2.0000      -0.397899       -10.8274 
  28   2.0000      -0.392993       -10.6939 
  29   2.0000      -0.377196       -10.2640 
  30   2.0000      -0.361325        -9.8322 
  31   2.0000      -0.337113        -9.1733 
  32   2.0000      -0.330781        -9.0010 
  33   2.0000      -0.318262        -8.6603 
  34   2.0000      -0.294014        -8.0005 
  35   2.0000      -0.285559        -7.7704 
  36   2.0000      -0.276168        -7.5149 
  37   2.0000      -0.257198        -6.9987 
  38   2.0000      -0.243916        -6.6373 
  39   2.0000      -0.232639        -6.3304 
  40   0.0000       0.030594         0.8325 
  41   0.0000       0.037314         1.0154 
  42   0.0000       0.074756         2.0342 
  43   0.0000       0.088908         2.4193 
  44   0.0000       0.093493         2.5441 
  45   0.0000       0.108975         2.9654 
  46   0.0000       0.119558         3.2533 
  47   0.0000       0.122634         3.3370 
  48   0.0000       0.135358         3.6833 
  49   0.0000       0.144642         3.9359 
  50   0.0000       0.156959         4.2711 
*Only the first 10 virtual orbitals were printed.
Total SCF time: 0 days 0 hours 0 min 7 sec 
Finished LeanSCF after   7.8 sec

Maximum memory used throughout the entire LEANSCF-calculation: 31.8 MB


-------------------------------------------------------------------------------
                          DFT DISPERSION CORRECTION                            
                                                                               
                                DFTD4 V3.4.0                                   
-------------------------------------------------------------------------------
-------------------------   ----------------
Dispersion correction           -0.006282028
-------------------------   ----------------

------------------   -----------------
gCP correction             0.016221092
------------------   -----------------

-------------------------   --------------------
FINAL SINGLE POINT ENERGY      -572.569211868294
-------------------------   --------------------

------------------------------------------------------------------------------
                         ORCA SCF GRADIENT CALCULATION
------------------------------------------------------------------------------

Nuc. rep. gradient        (SHARK) ... done (  0.0 sec)
HCore & Overlap gradient  (SHARK) ... done (  0.4 sec)
Split-RIJ-J gradient      (SHARK) ... done (  2.6 sec)
XC gradient                       ... done (  8.7 sec)
Dispersion correction             ... done (  0.0 sec)

-------------------
DISPERSION GRADIENT
-------------------

   1   C   :    0.000016485    0.000063435   -0.000001000
   2   C   :    0.000063909    0.000016932   -0.000013182
   3   H   :    0.000038443    0.000006921   -0.000016032
   4   C   :    0.000021316   -0.000029247    0.000003574
   5   H   :    0.000013709   -0.000023037    0.000017555
   6   C   :   -0.000039219   -0.000028266   -0.000018901
   7   H   :   -0.000020269   -0.000027382   -0.000026097
   8   C   :   -0.000045645    0.000031040   -0.000007218
   9   H   :   -0.000036187    0.000013748   -0.000008975
  10   O   :   -0.000028633    0.000073760   -0.000026627
  11   O   :   -0.000094034    0.000042305    0.000041762
  12   O   :   -0.000072569   -0.000072448    0.000015027
  13   O   :    0.000040758   -0.000103629    0.000002589
  14   O   :    0.000110174   -0.000000543    0.000015302
  15   H   :    0.000021108    0.000043693   -0.000007734
  16   H   :    0.000011939    0.000038585    0.000012629
  17   H   :   -0.000030927    0.000012569    0.000020296
  18   H   :   -0.000027374   -0.000033130   -0.000008312
  19   H   :    0.000020652   -0.000034833   -0.000002983
  20   H   :    0.000036365    0.000009525    0.000008329

Difference to translation invariance:
           :    0.0000000000    0.0000000000   -0.0000000000

Difference to rotation invariance:
           :   -0.0000000000   -0.0000000000   -0.0000000000

Norm of the Dispersion gradient    ...    0.0002963658
RMS gradient                       ...    0.0000382607
MAX gradient                       ...    0.0001101742
gCP correction                   ... done

------------------
CARTESIAN GRADIENT
------------------

   1   C   :   -0.000000144   -0.000000461   -0.000038650
   2   C   :   -0.000010177    0.000075284    0.000027148
   3   H   :    0.000012035   -0.000010034    0.000020140
   4   C   :    0.000027276   -0.000030135    0.000005221
   5   H   :   -0.000013319    0.000000787   -0.000006781
   6   C   :    0.000036877    0.000008025   -0.000027385
   7   H   :    0.000018511   -0.000030592    0.000005710
   8   C   :   -0.000085271   -0.000022504    0.000074248
   9   H   :    0.000006868    0.000014200   -0.000019777
  10   O   :    0.000013936   -0.000016129   -0.000034492
  11   O   :   -0.000107144    0.000195961    0.000012719
  12   O   :    0.000023950    0.000044695   -0.000008598
  13   O   :   -0.000076139   -0.000121943    0.000015904
  14   O   :   -0.000051917   -0.000017108    0.000038287
  15   H   :   -0.000011089    0.000002258   -0.000015666
  16   H   :   -0.000016243   -0.000000959   -0.000018430
  17   H   :    0.000069226   -0.000193574   -0.000043568
  18   H   :    0.000009237   -0.000003018    0.000007687
  19   H   :    0.000108555    0.000093623    0.000032268
  20   H   :    0.000044973    0.000011625   -0.000025988

Difference to translation invariance:
           :    0.0000000000    0.0000000000    0.0000000000

Difference to rotation invariance:
           :   -0.0005689197   -0.0004237489    0.0007333220

Norm of the Cartesian gradient     ...    0.0004211823
RMS gradient                       ...    0.0000543744
MAX gradient                       ...    0.0001959613

-------
TIMINGS
-------

Total SCF gradient time     ....       11.730 sec

Densities                   ....       0.001 sec  (  0.0%)
One electron gradient       ....       0.408 sec  (  3.5%)
RI-J Coulomb gradient       ....       2.605 sec  ( 22.2%)
XC gradient                 ....       8.674 sec  ( 73.9%)

Maximum memory used throughout the entire SCFGRAD-calculation: 41.2 MB

------------------------------------------------------------------------------
                              ORCA PROPERTY CALCULATIONS
------------------------------------------------------------------------------

GBWName                                 ... xtb_opt.gbw
Number of atoms                         ...     20
Number of basis functions               ...    265
Max core memory                         ...   1024 MB

Electric properties:
Dipole moment                           ... YES
Quadrupole moment                       ...  NO
Static polarizability (Dipole/Dipole)   ...  NO
Static polarizability (Dipole/Quad.)    ...  NO
Static polarizability (Quad./Quad.)     ...  NO
Static polarizability (Velocity)        ...  NO

Atomic electric properties:
Dipole moment                           ...  NO
Quadrupole moment                       ...  NO
Static polarizability                   ...  NO

Choice of electric origin               ... Center of mass
Position of electric origin             ...     0.007778     0.006766    -0.013217

General magnetic properties:
Magnetizability                         ...  NO

EPR properties:
g-Tensor (aka g-matrix)                 ...  NO
Zero-Field splitting spin-orbit         ...  NO
Zero-field splitting spin-spin          ...  NO
Hyperfine couplings                     ...  NO (   0 nuclei)
Quadrupole couplings                    ...  NO (   0 nuclei)
Contact density                         ...  NO (   0 nuclei)

NMR properties:
Chemical shifts                         ...  NO (   0 nuclei)
Spin-rotation constants                 ...  NO (   0 nuclei)
Spin-spin couplings                     ...  NO (   0 nuclei,    0 pairs)

Choice of magnetic origin               ... GIAO
Position of magnetic origin             ...     0.000000     0.000000     0.000000

Properties with geometric perturbations:
SCF Hessian                             ...  NO
IR spectrum                             ...  NO
VCD spectrum                            ...  NO
X-ray spectroscopy properties:
SCF XES/XAS/RIXS spectra                ...  NO


-------------
DIPOLE MOMENT
-------------

Method             : SCF
Type of density    : Electron Density
Multiplicity       :   1
Irrep              :   0
Energy             :  -572.5791509327389122 Eh
Relativity type    : 
Basis              : AO
                                X                 Y                 Z
Electronic contribution:     -0.710848235      -0.383280635      -0.220057209
Nuclear contribution   :     -0.039157476       0.555182652       0.504382640
                        -----------------------------------------
Total Dipole Moment    :     -0.750005711       0.171902017       0.284325431
                        -----------------------------------------
Magnitude (a.u.)       :      0.820304712
Magnitude (Debye)      :      2.085048877



--------------------
Rotational spectrum 
--------------------
 
Rotational constants in cm-1:             0.057198             0.044232             0.028788 
Rotational constants in MHz :          1714.748326          1326.054128           863.054419 

Dipole components along the rotational axes: 
x,y,z [a.u.] :     0.753457     0.169689     0.276419 
x,y,z [Debye]:     1.915136     0.431315     0.702601 

 

Dipole moment calculation done in   0.0 sec 

Maximum memory used throughout the entire PROP-calculation: 19.9 MB

--------------------------------
SUGGESTED CITATIONS FOR THIS RUN
--------------------------------

Below you find a list of papers that are relevant to this ORCA run
We neither can nor want to force you to cite these papers, but we appreciate if you do
You receive ORCA, which is the product of decades of hard work by many enthusiastic individuals, for free
The only thing we kindly ask in return is that you cite our papers,
We deeply appreciate it, if you show your appreciation for ORCA by not just citing the generic ORCA reference.

Please note that relegating all ORCA citations to the supporting information does *not* help us.
SI sections are not indexed - citations you put there will not count into any citation statistics
But we need these citations in order to attract the funding resources that allow us to do what we are doing

Therefore, if you are a happy ORCA user, please consider citing a few of the papers listed below in the main body of your paper

In addition to the list printed below, the program has created the file xtb_opt.bibtex that contains the list in bibtex format
You can import this file easily into all common literature databanks and citation aid programs


List of essential papers. We consider these as the minimum necessary citations

  1. Neese,F.
     Software update: the ORCA program system, version 5.0
     WIRES Comput. Molec. Sci., 2022 12(1)e1606
     doi.org/10.1002/wcms.1606
  2. Grimme,S.; Hansen,A.; Ehlert,S.; Mewes,J.
     r2SCAN-3c: A 'Swiss army knife' composite electronic-structure method
     J. Chem. Phys., 2021 154 064103
     doi.org/10.1063/5.0040021

List of papers to cite with high priority. The work reported in these papers was absolutely
necessary for this run to complete.
Our perspective: the developers of density functionals and basis sets usually get cited in chemistry papers
Good! But without the algorithms to do something with them, the functionals or basis sets would not do anything.
Hence, in our opinion, the algorithm design and method developments papers are equally worthy of getting cited

  1. Neese,F.
     An improvement of the resolution of the identity approximation for the formation of the Coulomb matrix
     J. Comp. Chem., 2003 24(14)1740-1747
     doi.org/10.1002/jcc.10318
  2. Neese,F.
     The SHARK Integral Generation and Digestion System
     J. Comp. Chem., 2022  1-16
     doi.org/10.1002/jcc.26942
  3. Lehtola,S.; Steigemann,C.; Oliveira,M.; Marques,M.
     Recent developments in Libxc - A comprehensive library of functionals for density functional theory
     Software X, 2018 7 
     doi.org/10.1016/j.softx.2017.11.002
  4. Caldeweyher,E.; Bannwarth,C.; Grimme,S.
     Extension of the D3 dispersion coefficient model
     J. Chem. Phys., 2017 147 034112
     doi.org/10.1063/1.4993215
  5. Caldeweyher,E.; Ehlert,S.; Hansen,A.; Neugebauer,H.; Spicher,S.; Bannwarth,C.; Grimme,S.
     A generally applicable atomic-charge dependent London dispersion correction
     J. Chem. Phys., 2019 150 154122
     doi.org/10.1063/1.5090222
  6. Caldeweyher,E.; Mewes,J.; Ehlert,S.; Grimme,S.
     Extension and evaluation of the D4 London-dispersion model for periodic systems
     Phys. Chem. Chem. Phys., 2020 22(16)8499-8512
     doi.org/10.1039/D0CP00502A
  7. Wittmann,L.; Gordiy,I.; Friede,M.; Helmich-Paris,B.; Grimme,S.; Hansen,A.; Bursch,M.
     Extension of the D3 and D4 London Dispersion Corrections to the full Actinides Series
     Phys. Chem. Chem. Phys., 2024 26(32)21379-21394
     doi.org/https://doi.org/10.1039/D4CP01514B 

List of suggested additional citations. These are papers that are important in the 'surrounding' of 
of this run, or papers that preceded the highly important papers. If you like your results we are grateful for a citation.

  1. Neese,F.
     The ORCA program system
     WIRES Comput. Molec. Sci., 2012 2(1)73-78
     doi.org/10.1002/wcms.81
  2. Neese,F.
     Software update: the ORCA program system, version 4.0
     WIRES Comput. Molec. Sci., 2018 8(1)1-6
     doi.org/10.1002/wcms.1327
  3. Neese,F.; Wennmohs,F.; Becker,U.; Riplinger,C.
     The ORCA quantum chemistry program package
     J. Chem. Phys., 2020 152 Art. No. L224108
     doi.org/10.1063/5.0004608

List of optional additional citations

  1. Neese,F.
     Approximate second-order SCF convergence for spin unrestricted wavefunctions
     Chem. Phys. Lett., 2000 325(1-3)93-98
     doi.org/10.1016/s0009-2614(00)00662-x

Timings for individual modules:

Sum of individual times          ...       20.922 sec (=   0.349 min)
Startup calculation              ...        1.109 sec (=   0.018 min)   5.3 %
SCF iterations                   ...        7.901 sec (=   0.132 min)  37.8 %
Property calculations            ...        0.100 sec (=   0.002 min)   0.5 %
SCF Gradient evaluation          ...       11.813 sec (=   0.197 min)  56.5 %
                             ****ORCA TERMINATED NORMALLY****
TOTAL RUN TIME: 0 days 0 hours 0 minutes 21 seconds 39 msec
  ------------------------------------------------------------------------
          * successful ORCA run, taking over control again...

         :::::::::::::::::::::::::::::::::::::::::::::::::::::
         ::                  ORCA SUMMARY                   ::
         :::::::::::::::::::::::::::::::::::::::::::::::::::::
         :: total energy            -572.569211868294 Eh    ::
         :: gradient norm              0.000421182347 Eh/a0 ::
         :: HOMO-LUMO gap              0.000000000000 eV    ::
         :::::::::::::::::::::::::::::::::::::::::::::::::::::

           -------------------------------------------------
          |                Property Printout                |
           -------------------------------------------------
           -------------------------------------------------
          |                Geometry Summary                 |
           -------------------------------------------------

      molecular mass/u    :      150.1301116
   center of mass at/Å    :        0.0041148       0.0035754      -0.0069910
  moments of inertia/u·Å² :        0.2947270E+03   0.3811182E+03   0.5855755E+03
rotational constants/cm⁻¹ :        0.5719746E-01   0.4423203E-01   0.2878814E-01

 * 20 selected distances

     #   Z          #   Z                                           value/Å
     1   6          2   6                                         1.5221039
     2   6          3   1                                         1.1033209
     2   6          4   6                                         1.5187700
     4   6          5   1                                         1.1032511
     4   6          6   6                                         1.5265770
     6   6          7   1                                         1.0961030
     6   6          8   6                                         1.5310021 (max)
     8   6          9   1                                         1.0978606
     1   6         10   8                                         1.4382433
     8   6         10   8                                         1.4099353
     8   6         11   8                                         1.4235450
     6   6         12   8                                         1.4261706
     4   6         13   8                                         1.4269612
     2   6         14   8                                         1.4227598
     1   6         15   1                                         1.0917941
     1   6         16   1                                         1.0981069
    11   8         17   1                                         0.9638938 (min)
    12   8         18   1                                         0.9674447
    13   8         19   1                                         0.9656308
    14   8         20   1                                         0.9652892

 * 4 distinct bonds (by element types)

   Z      Z             #   av. dist./Å        max./Å        min./Å
   1 H    6 C           6     1.0984061     1.1033209     1.0917941
   6 C    6 C           4     1.5246133     1.5310021     1.5187700
   1 H    8 O           4     0.9655646     0.9674447     0.9638938
   6 C    8 O           6     1.4246025     1.4382433     1.4099353


optimized geometry written to: xtbopt.coord


           -------------------------------------------------
          | TOTAL ENERGY             -572.569211868294 Eh   |
          | GRADIENT NORM               0.000421182347 Eh/α |
           -------------------------------------------------

------------------------------------------------------------------------
 * finished run on 2025/04/09 at 02:31:34.166     
------------------------------------------------------------------------
 total:
 * wall-time:     0 d,  0 h,  1 min, 15.490 sec
 *  cpu-time:     0 d,  0 h,  0 min,  0.478 sec
 * ratio c/w:     0.006 speedup
 SCF:
 * wall-time:     0 d,  0 h,  0 min, 28.672 sec
 *  cpu-time:     0 d,  0 h,  0 min,  0.043 sec
 * ratio c/w:     0.001 speedup
 ANC optimizer:
 * wall-time:     0 d,  0 h,  0 min, 46.610 sec
 *  cpu-time:     0 d,  0 h,  0 min,  0.013 sec
 * ratio c/w:     0.000 speedup

