20
 energy: -572.569210235104 gnorm: 0.001411746008 xtb: 6.7.1 (41059b4)
C            0.67124164524143        1.68344146875135       -0.01780639785348
C            1.40826832608654        0.37851560363014       -0.28430579954647
H            1.57926633045924        0.26892896836773       -1.36882908271217
C            0.54229165612496       -0.77654608818583        0.18732902903699
H            0.40061912864239       -0.68369553513932        1.27757480234900
C           -0.81555991205154       -0.72049751243267       -0.50805677269828
H           -0.66589588991135       -0.87117228788074       -1.58341658818371
C           -1.46406904800394        0.65142631239332       -0.30497027409221
H           -2.34746554411659        0.76150031919361       -0.94744307896405
O           -0.59926488624427        1.69565856764071       -0.69173009119923
O           -1.83027887959182        0.71668202461131        1.06907613749161
O           -1.66131099315933       -1.78195911489069       -0.06989295887950
O            1.22799549797975       -1.98866844770442       -0.12368096890806
O            2.64433918578145        0.43793682759845        0.41783991398273
H            1.23148453320154        2.53103311157898       -0.41761632298313
H            0.54073719285944        1.82031117196088        1.06396434353661
H           -2.38811184618298        1.49375324794332        1.19570948731353
H           -1.99762965996312       -1.52017142694483        0.79858999164283
H            0.61754321481689       -2.71323769777490        0.06616827746028
H            3.03279347788980       -0.44448734938038        0.37344422032544
20
 energy: -572.569211687652 gnorm: 0.000484556456 xtb: 6.7.1 (41059b4)
C            0.67097817308536        1.68345999327613       -0.01808320100512
C            1.40827215474501        0.37872746736630       -0.28429807572576
H            1.57917697760478        0.26879751320929       -1.36874431601038
C            0.54265042631140       -0.77660413894389        0.18747500393745
H            0.40073369883857       -0.68403400057073        1.27763704003444
C           -0.81514828597632       -0.72028340058118       -0.50797273731514
H           -0.66531156673257       -0.87135103769942       -1.58322580213545
C           -1.46423503364263        0.65134195959371       -0.30475528906816
H           -2.34763771279873        0.76128418568655       -0.94725828340414
O           -0.59969224943563        1.69572677492406       -0.69172225042274
O           -1.83087432086982        0.71650143145922        1.06922062399604
O           -1.66090959887930       -1.78167530862566       -0.06968381176113
O            1.22818594453654       -1.98893280525260       -0.12319866771286
O            2.64457233143309        0.43813036344647        0.41732735778068
H            1.23108244109169        2.53102663200849       -0.41799339060183
H            0.54034176684658        1.82014959875642        1.06362317019566
H           -2.38667960734366        1.49377871703057        1.19575734735872
H           -1.99776664900871       -1.51941504854161        0.79847278534803
H            0.61737455837861       -2.71285382756299        0.06465876992857
H            3.03188007847117       -0.44502287372410        0.37471161936231
20
 energy: -572.569211687652 gnorm: 0.000484556456 xtb: 6.7.1 (41059b4)
C            0.67097817308536        1.68345999327613       -0.01808320100512
C            1.40827215474501        0.37872746736630       -0.28429807572576
H            1.57917697760478        0.26879751320929       -1.36874431601038
C            0.54265042631140       -0.77660413894389        0.18747500393745
H            0.40073369883857       -0.68403400057073        1.27763704003444
C           -0.81514828597632       -0.72028340058118       -0.50797273731514
H           -0.66531156673257       -0.87135103769942       -1.58322580213545
C           -1.46423503364263        0.65134195959371       -0.30475528906816
H           -2.34763771279873        0.76128418568655       -0.94725828340414
O           -0.59969224943563        1.69572677492406       -0.69172225042274
O           -1.83087432086982        0.71650143145922        1.06922062399604
O           -1.66090959887930       -1.78167530862566       -0.06968381176113
O            1.22818594453654       -1.98893280525260       -0.12319866771286
O            2.64457233143309        0.43813036344647        0.41732735778068
H            1.23108244109169        2.53102663200849       -0.41799339060183
H            0.54034176684658        1.82014959875642        1.06362317019566
H           -2.38667960734366        1.49377871703057        1.19575734735872
H           -1.99776664900871       -1.51941504854161        0.79847278534803
H            0.61737455837861       -2.71285382756299        0.06465876992857
H            3.03188007847117       -0.44502287372410        0.37471161936231
