
                                 *****************
                                 * O   R   C   A *
                                 *****************

                                            #,                                       
                                            ###                                      
                                            ####                                     
                                            #####                                    
                                            ######                                   
                                           ########,                                 
                                     ,,################,,,,,                         
                               ,,#################################,,                 
                          ,,##########################################,,             
                       ,#########################################, ''#####,          
                    ,#############################################,,   '####,        
                  ,##################################################,,,,####,       
                ,###########''''           ''''###############################       
              ,#####''   ,,,,##########,,,,          '''####'''          '####       
            ,##' ,,,,###########################,,,                        '##       
           ' ,,###''''                  '''############,,,                           
         ,,##''                                '''############,,,,        ,,,,,,###''
      ,#''                                            '''#######################'''  
     '                                                          ''''####''''         
             ,#######,   #######,   ,#######,      ##                                
            ,#'     '#,  ##    ##  ,#'     '#,    #''#        ,####,   ,####,        
            ##       ##  ##   ,#'  ##            #'  '#       #'       #'  '#        
            ##       ##  #######   ##           ,######,      #####,   #    #        
            '#,     ,#'  ##    ##  '#,     ,#' ,#      #,     #,   #   #,  ,#        
             '#######'   ##     ##  '#######'  #'      '#     '####' # '####'        



                #########################################################
                #                        -***-                          #
                #          Department of theory and spectroscopy        #
                #                                                       #
                #                      Frank Neese                      #
                #                                                       #
                #     Directorship, Architecture, Infrastructure        #
                #                    SHARK, DRIVERS                     #
                #        Core code/Algorithms in most modules           #
                #                                                       #
                #        Max Planck Institute fuer Kohlenforschung      #
                #                Kaiser Wilhelm Platz 1                 #
                #                 D-45470 Muelheim/Ruhr                 #
                #                      Germany                          #
                #                                                       #
                #                  All rights reserved                  #
                #                        -***-                          #
                #########################################################


                         Program Version 6.0.1  -  RELEASE   -


 With contributions from (in alphabetic order):
[Max-Planck-Institut fuer Kohlenforschung]                               
  Daniel Aravena         : Magnetic Suceptibility                        
  Michael Atanasov       : Ab Initio Ligand Field Theory (pilot matlab implementation)
  Alexander A. Auer      : GIAO ZORA, VPT2 properties, NMR spectrum      
  Ute Becker             : All parallelization in ORCA, NUMFREQ, NUMCALC 
  Giovanni Bistoni       : ED, misc. LED, open-shell LED, HFLD           
  Martin Brehm           : Molecular dynamics                            
  Dmytro Bykov           : pre 5.0 version of the SCF Hessian            
  Marcos Casanova-Páez   : Triplet and SCS-CIS(D). UHF-(DLPNO)-IP/EA/STEOM-CCSD. UHF-CVS-IP/STEOM-CCSD   
  Vijay G. Chilkuri      : MRCI spin determinant printing, contributions to CSF-ICE 
  Pauline Colinet        : FMM embedding                                 
  Dipayan Datta          : RHF DLPNO-CCSD density                        
  Achintya Kumar Dutta   : EOM-CC, STEOM-CC                              
  Nicolas Foglia         : Exact transition moments, OPA infrastructure, MCD improvements    
  Dmitry Ganyushin       : Spin-Orbit,Spin-Spin,Magnetic field MRCI      
  Miquel Garcia-Rates    : C-PCM and meta-GGA Hessian, CCSD/C-PCM, Gaussian charge scheme 
  Tiago L. C. Gouveia    : GS-ROHF, GS-ROCIS                             
  Yang Guo               : DLPNO-NEVPT2, F12-NEVPT2, CIM, IAO-localization        
  Andreas Hansen         : Spin unrestricted coupled pair/coupled cluster methods 
  Ingolf Harden          : AUTO-CI MPn and infrastructure                
  Benjamin Helmich-Paris : MC-RPA, TRAH-(SCF,CASSCF), AVAS, COSX integrals, SCF dyn. polar. 
  Lee Huntington         : MR-EOM, pCC                                   
  Robert Izsak           : Overlap fitted RIJCOSX, COSX-SCS-MP3, EOM     
  Riya Kayal             : Wick's Theorem for AUTO-CI, AUTO-CI UHF-CCSDT 
  Emily Kempfer          : AUTO-CI, RHF CISDT and CCSDT                  
  Christian Kollmar      : KDIIS, OOCD, Brueckner-CCSD(T), CCSD density, CASPT2, CASPT2-K, improved NEVPT2 
  Axel Koslowski         : Symmetry handling                             
  Simone Kossmann        : meta-GGA functionals, TD-DFT gradient, OOMP2, (MP2 Hessian; deprecated post 5.0) 
  Lucas Lang             : DCDCAS                                        
  Marvin Lechner         : AUTO-CI (C++ implementation), FIC-MRCC        
  Spencer Leger          : CASSCF response                               
  Dagmar Lenk            : GEPOL surface, SMD, ORCA-2-JSON               
  Dimitrios Liakos       : Extrapolation schemes; Compound Job, initial MDCI parallelization 
  Dimitrios Manganas     : Further ROCIS development; embedding schemes. LFT, Crystal Embedding 
  Dimitrios Pantazis     : SARC Basis sets                               
  Anastasios Papadopoulos: AUTO-CI, single reference methods and gradients 
  Taras Petrenko         : pre 6.0 DFT Hessian and TD-DFT gradient, (ASA, deprecated), ECA, 1-Electron XAS/XES, NRVS 
  Peter Pinski           : DLPNO-MP2, DLPNO-MP2 Gradient                 
  Christoph Reimann      : Effective Core Potentials                     
  Marius Retegan         : Local ZFS, SOC                                
  Christoph Riplinger    : Optimizer, TS searches, QM/MM, DLPNO-CCSD(T), (RO)-DLPNO pert. Triples 
  Michael Roemelt        : Original ROCIS implementation                 
  Masaaki Saitow         : Open-shell DLPNO-CCSD energy and density      
  Barbara Sandhoefer     : DKH picture change effects                    
  Kantharuban Sivalingam : CASSCF convergence/infrastructure, NEVPT2 and variants, FIC-MRCI 
  Bernardo de Souza      : ESD, SOC TD-DFT                               
  Georgi L. Stoychev     : AutoAux, RI-MP2 NMR, DLPNO-MP2 response, X2C  
  Van Anh Tran           : RI-MP2 g-tensors                              
  Willem Van den Heuvel  : Paramagnetic NMR                              
  Zikuan Wang            : NOTCH, Electric field optimization            
  Frank Wennmohs         : Technical directorship and infrastructure     
  Hang Xu                : AUTO-CI-Response properties                   
                                                                         
[FACCTs GmbH]                                                            
  Markus Bursch, Miquel Garcia-Rates, Christoph Riplinger, Bernardo de Souza, Georgi L. Stoychev 
                                                                 
  APM, Basis sets (HGBS, AHGBS, def-TZVP (Ac-Lr), def2-XVPD (La-Lu)), CI-OPT, improved COSX, DLPNO-Multilevel,           
  DOCKER, DRACO, updates on ESD, GOAT, IRC, LR-CPCM, MBIS, meta-GGA TD-DFT gradient, ML-optimized integration grids, 
  MM, NACMEs, nearIR, NEB, NEB-TS, NL-DFT gradient (VV10), 2- and 3-layer-ONIOM, interface openCOSMO-RS, QMMM,   
  Crystal-QMMM, SF, symmetry and pop. for TD-DFT, r2SCAN hybrids, SOLVATOR                                   
                                                                         
[Other institutions]                                                     
  V. Asgeirsson          : NEB                                           
  Christoph Bannwarth    : sTDA-DFT, sTD-DFT, PBEh-3c, B97-3c, D3        
  Sebastian Ehlert       : rSCAN, r2SCAN, r2SCAN-3c, D4, dhf basis sets  
  Marvin Friede          : D4 for Fr, Ra, Ac-Lr                          
  Lars Goerigk           : TD-DFT with DH, B97 family of functionals     
  Stefan Grimme          : VdW corrections, initial TS optimization, DFT functionals, gCP, sTDA/sTD-DF 
  Waldemar Hujo          : DFT-NL                                        
  H. Jonsson             : NEB                                           
  Holger Kruse           : gCP                                           
  Marcel Mueller         : wB97X-3c, vDZP basis set                      
  Hagen Neugebauer       : wr2SCAN                                       
  Tobias Risthaus        : range-separated hybrid DFT                    
  Lukas Wittmann         : regularized MP2, r2SCAN double-hybrids, wr2SCAN        
                                                                         
We gratefully acknowledge several colleagues who have allowed us to      
interface, adapt or use parts of their codes:                            
  Ed Valeev, F. Pavosevic, A. Kumar             : LibInt (2-el integral package), F12 methods 
  Garnet Chan, S. Sharma, J. Yang, R. Olivares  : DMRG                   
  Ulf Ekstrom                                   : XCFun DFT Library      
  Mihaly Kallay                                 : mrcc  (arbitrary order and MRCC methods)
  Frank Weinhold                                : gennbo (NPA and NBO analysis)           
  Simon Mueller                                 : openCOSMO-RS                            
  Christopher J. Cramer and Donald G. Truhlar   : smd solvation model                     
  S Lehtola, MJT Oliveira, MAL Marques          : LibXC Library                           
  Liviu Ungur et al                             : ANISO software                          


 Your calculation uses the libint2 library for the computation of 2-el integrals
 For citations please refer to: http://libint.valeyev.net

 Your ORCA version has been built with support for libXC version: 6.2.2
 For citations please refer to: https://libxc.gitlab.io

 This ORCA versions uses:
   CBLAS   interface :  Fast vector & matrix operations
   LAPACKE interface :  Fast linear algebra routines
   SCALAPACK package :  Parallel linear algebra routines
   Shared memory     :  Shared parallel matrices
   BLAS/LAPACK       :  OpenBLAS 0.3.27  USE64BITINT DYNAMIC_ARCH NO_AFFINITY Zen SINGLE_THREADED
        Core in use  :  Zen
   Copyright (c) 2011-2014, The OpenBLAS Project


Your calculation utilizes the geometrical counterpoise correction gCP
Please cite in your paper:
H.Kruse, S. Grimme J.Chem.Phys., 136, (2012), 154101 
   

Your calculation utilizes the atom-pairwise dispersion correction
based on EEQ partial charges (D4)


================================================================================

----- Orbital basis set information -----
Your calculation utilizes the basis: def2-SV(P)
   F. Weigend and R. Ahlrichs, Phys. Chem. Chem. Phys. 7, 3297 (2005).

----- AuxJ basis set information -----
Your calculation utilizes the auxiliary basis: def2/J
   F. Weigend, Phys. Chem. Chem. Phys. 8, 1057 (2006).

================================================================================
                                        WARNINGS
                       Please study these warnings very carefully!
================================================================================

WARNING: Old DensityContainer found on disk!
         Will remove this file - 
         If you want to keep old densities, please start your calculation with a different basename. 


================================================================================
                                       INPUT FILE
================================================================================
NAME = sp.inp
|  1> ! pbe def2-sv(p) def2/J RI DEFGRID1 loosescf d4 GCP(DFT/SV(P)) printgap
|  2> %output
|  3>     printlevel normal
|  4> end
|  5> * xyz 0 1
|  6> C -2.2552821182 0.2891412165 -0.629335252
|  7> C -1.3000943935 0.5142216722 0.543712107
|  8> C 0.0070918848 -0.192575323 0.2706531711
|  9> O 0.1764594085 -1.381968861 0.310851587
| 10> O 0.9704051186 0.6799064887 -0.0527367049
| 11> C 2.2414294082 0.1267114265 -0.3654412028
| 12> H -2.4032004292 -0.7759604009 -0.7896740876
| 13> H -3.2177265309 0.7497440941 -0.421773269
| 14> H -1.8503121796 0.7257154566 -1.5394177899
| 15> H -1.7333374218 0.0939763023 1.4522540835
| 16> H -1.108681568 1.5774326664 0.6841479078
| 17> H 2.6188539633 -0.4543963116 0.4783109313
| 18> H 2.8971377337 0.9676300978 -0.5754817458
| 19> H 2.1655507049 -0.5282769132 -1.2357463265
| 20> *
| 21> 
| 22>                          ****END OF INPUT****
================================================================================

                       ****************************
                       * Single Point Calculation *
                       ****************************

---------------------------------
CARTESIAN COORDINATES (ANGSTROEM)
---------------------------------
  C     -2.255282    0.289141   -0.629335
  C     -1.300094    0.514222    0.543712
  C      0.007092   -0.192575    0.270653
  O      0.176459   -1.381969    0.310852
  O      0.970405    0.679906   -0.052737
  C      2.241429    0.126711   -0.365441
  H     -2.403200   -0.775960   -0.789674
  H     -3.217727    0.749744   -0.421773
  H     -1.850312    0.725715   -1.539418
  H     -1.733337    0.093976    1.452254
  H     -1.108682    1.577433    0.684148
  H      2.618854   -0.454396    0.478311
  H      2.897138    0.967630   -0.575482
  H      2.165551   -0.528277   -1.235746

----------------------------
CARTESIAN COORDINATES (A.U.)
----------------------------
  NO LB      ZA    FRAG     MASS         X           Y           Z
   0 C     6.0000    0    12.011   -4.261866    0.546398   -1.189271
   1 C     6.0000    0    12.011   -2.456822    0.971738    1.027467
   2 C     6.0000    0    12.011    0.013402   -0.363915    0.511460
   3 O     8.0000    0    15.999    0.333460   -2.611543    0.587424
   4 O     8.0000    0    15.999    1.833800    1.284837   -0.099658
   5 C     6.0000    0    12.011    4.235688    0.239450   -0.690584
   6 H     1.0000    0     1.008   -4.541391   -1.466353   -1.492268
   7 H     1.0000    0     1.008   -6.080622    1.416811   -0.797036
   8 H     1.0000    0     1.008   -3.496583    1.371403   -2.909078
   9 H     1.0000    0     1.008   -3.275533    0.177589    2.744362
  10 H     1.0000    0     1.008   -2.095105    2.980916    1.292852
  11 H     1.0000    0     1.008    4.948917   -0.858685    0.903877
  12 H     1.0000    0     1.008    5.474797    1.828556   -1.087503
  13 H     1.0000    0     1.008    4.092298   -0.998299   -2.335222

--------------------------------
INTERNAL COORDINATES (ANGSTROEM)
--------------------------------
 C      0   0   0     0.000000000000     0.00000000     0.00000000
 C      1   0   0     1.529406717460     0.00000000     0.00000000
 C      2   1   0     1.510913346646   109.44345214     0.00000000
 O      3   2   1     1.202064165908   125.36049957   286.98237598
 O      3   2   1     1.339319943128   111.17220406   105.81599414
 C      5   3   2     1.421024850100   116.28694447   181.53878981
 H      1   2   3     1.087211950044   110.01470274    57.10821087
 H      1   2   3     1.086984928680   110.13112547   177.07202319
 H      1   2   3     1.087588131638   110.49855535   297.08537694
 H      2   1   3     1.090758550531   109.51764413   241.42212411
 H      2   1   3     1.089393731440   110.62456078   120.28685981
 H      6   5   3     1.091811871098   110.26333832   301.38754194
 H      6   5   3     1.086836993102   106.31707838   181.40634070
 H      6   5   3     1.091878340794   110.28977834    61.45296065

---------------------------
INTERNAL COORDINATES (A.U.)
---------------------------
 C      0   0   0     0.000000000000     0.00000000     0.00000000
 C      1   0   0     2.890159843379     0.00000000     0.00000000
 C      2   1   0     2.855212437248   109.44345214     0.00000000
 O      3   2   1     2.271572068968   125.36049957   286.98237598
 O      3   2   1     2.530947898211   111.17220406   105.81599414
 C      5   3   2     2.685347796186   116.28694447   181.53878981
 H      1   2   3     2.054532835110   110.01470274    57.10821087
 H      1   2   3     2.054103826905   110.13112547   177.07202319
 H      1   2   3     2.055243715298   110.49855535   297.08537694
 H      2   1   3     2.061234938736   109.51764413   241.42212411
 H      2   1   3     2.058655804431   110.62456078   120.28685981
 H      6   5   3     2.063225426139   110.26333832   301.38754194
 H      6   5   3     2.053824269177   106.31707838   181.40634070
 H      6   5   3     2.063351035662   110.28977834    61.45296065

---------------------
BASIS SET INFORMATION
---------------------
There are 3 groups of distinct atoms

 Group   1 Type C   : 7s4p1d contracted to 3s2p1d pattern {511/31/1}
 Group   2 Type O   : 7s4p1d contracted to 3s2p1d pattern {511/31/1}
 Group   3 Type H   : 4s contracted to 2s pattern {31}

Atom   0C    basis set group =>   1
Atom   1C    basis set group =>   1
Atom   2C    basis set group =>   1
Atom   3O    basis set group =>   2
Atom   4O    basis set group =>   2
Atom   5C    basis set group =>   1
Atom   6H    basis set group =>   3
Atom   7H    basis set group =>   3
Atom   8H    basis set group =>   3
Atom   9H    basis set group =>   3
Atom  10H    basis set group =>   3
Atom  11H    basis set group =>   3
Atom  12H    basis set group =>   3
Atom  13H    basis set group =>   3
---------------------------------
AUXILIARY/J BASIS SET INFORMATION
---------------------------------
There are 3 groups of distinct atoms

 Group   1 Type C   : 12s5p4d2f1g contracted to 6s4p3d1f1g pattern {711111/2111/211/2/1}
 Group   2 Type O   : 12s5p4d2f1g contracted to 6s4p3d1f1g pattern {711111/2111/211/2/1}
 Group   3 Type H   : 5s2p1d contracted to 3s1p1d pattern {311/2/1}

Atom   0C    basis set group =>   1
Atom   1C    basis set group =>   1
Atom   2C    basis set group =>   1
Atom   3O    basis set group =>   2
Atom   4O    basis set group =>   2
Atom   5C    basis set group =>   1
Atom   6H    basis set group =>   3
Atom   7H    basis set group =>   3
Atom   8H    basis set group =>   3
Atom   9H    basis set group =>   3
Atom  10H    basis set group =>   3
Atom  11H    basis set group =>   3
Atom  12H    basis set group =>   3
Atom  13H    basis set group =>   3

Checking for AutoStart:
The File: sp.gbw exists
Trying to determine its content:
     ... Fine, the file contains calculation information
     ... Fine, the calculation information was read
     ... Fine, the file contains a basis set
     ... Fine, the basis set was read
     ... Fine, the file contains a geometry
     ... Fine, the geometry was read
     ... Fine, the file contains a set of orbitals
     ... Fine, the orbitals can be read
     => possible old guess file was deleted
     => GBW file was renamed to GES file
     => GES file is set as startup file
     => Guess is set to MORead
     ... now leaving AutoStart

------------------------------------------------------------------------------
                             ORCA STARTUP CALCULATIONS
                           -- RI-GTO INTEGRALS CHOSEN --
------------------------------------------------------------------------------
------------------------------------------------------------------------------
                   ___                                                        
                  /   \      - P O W E R E D   B Y -                         
                 /     \                                                     
                 |  |  |   _    _      __       _____    __    __             
                 |  |  |  | |  | |    /  \     |  _  \  |  |  /  |          
                  \  \/   | |  | |   /    \    | | | |  |  | /  /          
                 / \  \   | |__| |  /  /\  \   | |_| |  |  |/  /          
                |  |  |   |  __  | /  /__\  \  |    /   |      \           
                |  |  |   | |  | | |   __   |  |    \   |  |\   \          
                \     /   | |  | | |  |  |  |  | |\  \  |  | \   \       
                 \___/    |_|  |_| |__|  |__|  |_| \__\ |__|  \__/        
                                                                              
                      - O R C A' S   B I G   F R I E N D -                    
                                      &                                       
                       - I N T E G R A L  F E E D E R -                       
                                                                              
 v1 FN, 2020, v2 2021, v3 2022-2024                                           
------------------------------------------------------------------------------


----------------------
SHARK INTEGRAL PACKAGE
----------------------

Number of atoms                             ...     14
Number of basis functions                   ...    100
Number of shells                            ...     52
Maximum angular momentum                    ...      2
Integral batch strategy                     ... SHARK/LIBINT Hybrid
RI-J (if used) integral strategy            ... SPLIT-RIJ (Revised 2003 algorithm where possible)
Printlevel                                  ...      1
Contraction scheme used                     ... SEGMENTED contraction
Prescreening option                         ... SCHWARTZ
   Thresh                                   ... 1.000e-09
   Tcut                                     ... 1.000e-10
   Tpresel                                  ... 1.000e-10 
Coulomb Range Separation                    ... NOT USED
Exchange Range Separation                   ... NOT USED
Multipole approximations                    ... NOT USED
Finite Nucleus Model                        ... NOT USED
CABS basis                                  ... NOT available
Auxiliary Coulomb fitting basis             ... AVAILABLE
   # of basis functions in Aux-J            ...    382
   # of shells in Aux-J                     ...    130
   Maximum angular momentum in Aux-J        ...      4
Auxiliary J/K fitting basis                 ... NOT available
Auxiliary Correlation fitting basis         ... NOT available
Auxiliary 'external' fitting basis          ... NOT available

Checking pre-screening integrals            ... done (  0.0 sec) Dimension = 52
Check shell pair data                       ... done (  0.0 sec)
Shell pair information
Shell pair cut-off parameter TPreSel        ...   1.0e-10
Total number of shell pairs                 ...      1378
Shell pairs after pre-screening             ...      1332
Total number of primitive shell pairs       ...      5562
Primitive shell pairs kept                  ...      3897
          la=0 lb=0:    564 shell pairs
          la=1 lb=0:    403 shell pairs
          la=1 lb=1:     78 shell pairs
          la=2 lb=0:    194 shell pairs
          la=2 lb=1:     72 shell pairs
          la=2 lb=2:     21 shell pairs

Calculating one electron integrals          ... done (  0.0 sec)
Calculating RI/J V-Matrix + Cholesky decomp.... done (  0.0 sec)
Calculating Nuclear repulsion               ... done (  0.0 sec) ENN=    246.918102465613 Eh

Diagonalization of the overlap matrix:
Smallest eigenvalue                        ... 2.282e-03
Time for diagonalization                   ...    0.001 sec
Threshold for overlap eigenvalues          ... 1.000e-07
Number of eigenvalues below threshold      ... 0
Time for construction of square roots      ...    0.001 sec
Total time needed                          ...    0.004 sec

-------------------
DFT GRID GENERATION
-------------------

General Integration Accuracy     IntAcc      ... 4.159
Radial Grid Type                 RadialGrid  ... OptM3 with GC (2021)
Angular Grid (max. ang.)         AngularGrid ... 3 (Lebedev-194)
Angular grid pruning method      GridPruning ... 4 (adaptive)
Weight generation scheme         WeightScheme... mBecke (2022)
Basis function cutoff            BFCut       ... 1.0000e-10
Integration weight cutoff        WCut        ... 1.0000e-14
Partially contracted basis set               ... off
Rotationally invariant grid construction     ... off
Angular grids for H and He will be reduced by one unit

Total number of grid points                  ...    31149
Total number of batches                      ...      494
Average number of points per batch           ...       63
Average number of grid points per atom       ...     2225
Initializing property integral containers    ... done (  0.0 sec)

SHARK setup successfully completed in   0.3 seconds

Maximum memory used throughout the entire STARTUP-calculation: 15.8 MB
-------------------------------------------------------------------------------
                                 ORCA GUESS
                   Start orbitals & Density for SCF / CASSCF
-------------------------------------------------------------------------------

------------
SCF SETTINGS
------------
Hamiltonian:
 Density Functional     Method          .... DFT(GTOs)
 Exchange Functional    Exchange        .... PBE
   PBE kappa parameter   XKappa         ....  0.804000
   PBE mue parameter    XMuePBE         ....  0.219520
 Correlation Functional Correlation     .... PBE
   PBE beta parameter  CBetaPBE         ....  0.066725
 LDA part of GGA corr.  LDAOpt          .... PW91-LDA
 Gradients option       PostSCFGGA      .... off
   NL short-range parameter             ....  6.400000
 RI-approximation to the Coulomb term is turned on
   Number of AuxJ basis functions       .... 382


General Settings:
 Integral files         IntName         .... sp
 Hartree-Fock type      HFTyp           .... RHF
 Total Charge           Charge          ....    0
 Multiplicity           Mult            ....    1
 Number of Electrons    NEL             ....   48
 Basis Dimension        Dim             ....  100
 Nuclear Repulsion      ENuc            ....    246.9181024656 Eh

Convergence Acceleration:
 AO-DIIS                CNVDIIS         .... on
   Start iteration      DIISMaxIt       ....    12
   Startup error        DIISStart       ....  0.200000
   # of expansion vecs  DIISMaxEq       ....     5
   Bias factor          DIISBfac        ....   1.050
   Max. coefficient     DIISMaxC        ....  10.000
 MO-DIIS                CNVKDIIS        .... off
 Trust-Rad. Augm. Hess. CNVTRAH         .... auto
   Auto Start mean grad. ratio tolernc. ....  1.125000
   Auto Start start iteration           ....     1
   Auto Start num. interpolation iter.  ....    10
   Max. Number of Micro iterations      ....    24
   Max. Number of Macro iterations      .... Maxiter - #DIIS iter
   Number of Davidson start vectors     ....     2
   Converg. threshold    (grad. norm)   ....   1.000e-04
   Grad. Scal. Fac. for Micro threshold ....   0.100
   Minimum threshold for Micro iter.    ....   1.000e-02
   NR start threshold (gradient norm)   ....   1.000e-04
   Initial trust radius                 ....   0.400
   Minimum AH scaling param. (alpha)    ....   1.000
   Maximum AH scaling param. (alpha)    .... 1000.000
   Quad. conv. algorithm                .... NR
   White noise on init. David. guess    .... on
   Maximum white noise                  ....   0.010
   Pseudo random numbers                .... off
   Inactive MOs                         .... canonical
   Orbital update algorithm             .... Taylor
   Preconditioner                       .... Diag
   Full preconditioner red. dimension   ....   250
 SOSCF                  CNVSOSCF        .... on
   Start iteration      SOSCFMaxIt      ....   150
   Startup grad/error   SOSCFStart      ....  0.003300
   Hessian update       SOSCFHessUp     .... L-BFGS
 Level Shifting         CNVShift        .... on
   Level shift para.    LevelShift      ....    0.2500
   Turn off err/grad.   ShiftErr        ....    0.0010
 Zerner damping         CNVZerner       .... off
 Static damping         CNVDamp         .... on
   Fraction old density DampFac         ....    0.7000
   Max. Damping (<1)    DampMax         ....    0.9800
   Min. Damping (>=0)   DampMin         ....    0.0000
   Turn off err/grad.   DampErr         ....    0.1000

SCF Procedure:
 Maximum # iterations   MaxIter         ....   125
 SCF integral mode      SCFMode         .... Direct
   Integral package                     .... SHARK and LIBINT hybrid scheme
 Reset frequency        DirectResetFreq ....    20
 Integral Threshold     Thresh          ....  1.000e-09 Eh
 Primitive CutOff       TCut            ....  1.000e-10 Eh

Convergence Tolerance:
 Convergence Check Mode ConvCheckMode   .... Total+1el-Energy
 Convergence forced     ConvForced      .... 0
 Energy Change          TolE            ....  1.000e-05 Eh
 1-El. energy change                    ....  1.000e-02 Eh
 Orbital Gradient       TolG            ....  1.000e-04
 Orbital Rotation angle TolX            ....  1.000e-04
 DIIS Error             TolErr          ....  5.000e-04

---------------------
INITIAL GUESS: MOREAD
---------------------
Guess MOs are being read from file: sp.ges
Input Geometry matches current geometry (good)
Input basis set matches current basis set (good)
Occupation numbers will be reassigned to an Aufbau configuration
MOs were renormalized
MOs were reorthogonalized (Cholesky)
                      ------------------
                      INITIAL GUESS DONE (   0.0 sec)
                      ------------------
             **** ENERGY FILE WAS UPDATED (sp.en.tmp) ****
Finished Guess after   0.0 sec
Maximum memory used throughout the entire GUESS-calculation: 8.1 MB

-------------------------------------------------------------------------------------------
                                      ORCA LEAN-SCF
                              memory conserving SCF solver
-------------------------------------------------------------------------------------------

----------------------------------------D-I-I-S--------------------------------------------
Iteration    Energy (Eh)           Delta-E    RMSDP     MaxDP     DIISErr   Damp  Time(sec)
-------------------------------------------------------------------------------------------
               ***  Starting incremental Fock matrix formation  ***
                              *** Initializing SOSCF ***
---------------------------------------S-O-S-C-F--------------------------------------
Iteration    Energy (Eh)           Delta-E    RMSDP     MaxDP     MaxGrad    Time(sec)
--------------------------------------------------------------------------------------
    1    -307.0809305130356961     0.00e+00  9.54e-06  1.45e-04  1.45e-05     0.3
               *** Restarting incremental Fock matrix formation ***
    2    -307.0809305186681968    -5.63e-09  1.23e-05  2.20e-04  6.05e-05     0.2
    3    -307.0809303817852651     1.37e-07  8.43e-06  1.70e-04  1.04e-04     0.2
                 **** Energy Check signals convergence ****

               *****************************************************
               *                     SUCCESS                       *
               *           SCF CONVERGED AFTER   3 CYCLES          *
               *****************************************************

             **** ENERGY FILE WAS UPDATED (sp.en.tmp) ****

----------------
TOTAL SCF ENERGY
----------------

Total Energy       :       -307.08093038178527 Eh           -8356.09693 eV

Components:
Nuclear Repulsion  :        246.91810246561329 Eh            6718.98315 eV
Electronic Energy  :       -553.99903284739855 Eh          -15075.08009 eV
One Electron Energy:       -906.73826353713082 Eh          -24673.60253 eV
Two Electron Energy:        352.73923068973227 Eh            9598.52245 eV

Virial components:
Potential Energy   :       -611.83186385176509 Eh          -16648.79142 eV
Kinetic Energy     :        304.75093346997988 Eh            8292.69449 eV
Virial Ratio       :          2.00764557760423

DFT components:
N(Alpha)           :       23.999965805085 electrons
N(Beta)            :       23.999965805085 electrons
N(Total)           :       47.999931610170 electrons
E(X)               :      -39.887235579225 Eh       
E(C)               :       -1.596042285425 Eh       
E(XC)              :      -41.483277864650 Eh       

---------------
SCF CONVERGENCE
---------------

  Last Energy change         ...   -1.3688e-07  Tolerance :   1.0000e-05
  Last MAX-Density change    ...    1.7045e-04  Tolerance :   1.0000e-03
  Last RMS-Density change    ...    8.4269e-06  Tolerance :   1.0000e-04
  Last DIIS Error            ...    1.1614e-04  Tolerance :   5.0000e-04
  Last Orbital Gradient      ...    1.0371e-04  Tolerance :   1.0000e-04
  Last Orbital Rotation      ...    8.5661e-05  Tolerance :   1.0000e-04


----------------
ORBITAL ENERGIES
----------------

  NO   OCC          E(Eh)            E(eV) 
   0   2.0000     -18.799864      -511.5703 
   1   2.0000     -18.735967      -509.8316 
   2   2.0000     -10.002604      -272.1847 
   3   2.0000      -9.938936      -270.4522 
   4   2.0000      -9.897679      -269.3296 
   5   2.0000      -9.886432      -269.0235 
   6   2.0000      -1.005679       -27.3659 
   7   2.0000      -0.914721       -24.8908 
   8   2.0000      -0.714069       -19.4308 
   9   2.0000      -0.655090       -17.8259 
  10   2.0000      -0.572935       -15.5904 
  11   2.0000      -0.505476       -13.7547 
  12   2.0000      -0.449467       -12.2306 
  13   2.0000      -0.432214       -11.7611 
  14   2.0000      -0.422924       -11.5083 
  15   2.0000      -0.393381       -10.7044 
  16   2.0000      -0.379451       -10.3254 
  17   2.0000      -0.362161        -9.8549 
  18   2.0000      -0.333195        -9.0667 
  19   2.0000      -0.319359        -8.6902 
  20   2.0000      -0.311665        -8.4808 
  21   2.0000      -0.300277        -8.1710 
  22   2.0000      -0.258842        -7.0434 
  23   2.0000      -0.220108        -5.9895 
  24   0.0000      -0.019913        -0.5419 
  25   0.0000       0.046793         1.2733 
  26   0.0000       0.064375         1.7517 
  27   0.0000       0.088329         2.4036 
  28   0.0000       0.091519         2.4904 
  29   0.0000       0.095746         2.6054 
  30   0.0000       0.104984         2.8568 
  31   0.0000       0.115986         3.1561 
  32   0.0000       0.122997         3.3469 
  33   0.0000       0.135349         3.6830 
  34   0.0000       0.171884         4.6772 
*Only the first 10 virtual orbitals were printed.

                    ********************************
                    * MULLIKEN POPULATION ANALYSIS *
                    ********************************

-----------------------
MULLIKEN ATOMIC CHARGES
-----------------------
   0 C :   -0.302799
   1 C :   -0.142379
   2 C :    0.092698
   3 O :   -0.200913
   4 O :   -0.243914
   5 C :   -0.113152
   6 H :    0.121592
   7 H :    0.115067
   8 H :    0.110213
   9 H :    0.109922
  10 H :    0.099437
  11 H :    0.117799
  12 H :    0.119907
  13 H :    0.116521
Sum of atomic charges:   -0.0000000

--------------------------------
MULLIKEN REDUCED ORBITAL CHARGES
--------------------------------
  0 C s       :     3.115326  s :     3.115326
      pz      :     1.029125  p :     3.157997
      px      :     1.039108
      py      :     1.089764
      dz2     :     0.007805  d :     0.029476
      dxz     :     0.005483
      dyz     :     0.004452
      dx2y2   :     0.007157
      dxy     :     0.004580

  1 C s       :     3.022224  s :     3.022224
      pz      :     1.057379  p :     3.086609
      px      :     1.006985
      py      :     1.022244
      dz2     :     0.008288  d :     0.033546
      dxz     :     0.006387
      dyz     :     0.005022
      dx2y2   :     0.007770
      dxy     :     0.006079

  2 C s       :     3.059337  s :     3.059337
      pz      :     0.853565  p :     2.717304
      px      :     0.942729
      py      :     0.921011
      dz2     :     0.008276  d :     0.130661
      dxz     :     0.010024
      dyz     :     0.028869
      dx2y2   :     0.029773
      dxy     :     0.053718

  3 O s       :     3.737968  s :     3.737968
      pz      :     1.413357  p :     4.444762
      px      :     1.705648
      py      :     1.325758
      dz2     :     0.002007  d :     0.018182
      dxz     :     0.000140
      dyz     :     0.005554
      dx2y2   :     0.006075
      dxy     :     0.004407

  4 O s       :     3.734120  s :     3.734120
      pz      :     1.675649  p :     4.493321
      px      :     1.223356
      py      :     1.594316
      dz2     :     0.002199  d :     0.016472
      dxz     :     0.002281
      dyz     :     0.002568
      dx2y2   :     0.003102
      dxy     :     0.006322

  5 C s       :     3.123745  s :     3.123745
      pz      :     1.091218  p :     2.937131
      px      :     0.813765
      py      :     1.032148
      dz2     :     0.007544  d :     0.052276
      dxz     :     0.009708
      dyz     :     0.010015
      dx2y2   :     0.010034
      dxy     :     0.014974

  6 H s       :     0.878408  s :     0.878408

  7 H s       :     0.884933  s :     0.884933

  8 H s       :     0.889787  s :     0.889787

  9 H s       :     0.890078  s :     0.890078

 10 H s       :     0.900563  s :     0.900563

 11 H s       :     0.882201  s :     0.882201

 12 H s       :     0.880093  s :     0.880093

 13 H s       :     0.883479  s :     0.883479


------------------------
MULLIKEN OVERLAP CHARGES
------------------------
B(  0-C ,  1-C ) :   0.8996 B(  0-C ,  2-C ) :  -0.0663 B(  0-C ,  6-H ) :   0.7522 
B(  0-C ,  7-H ) :   0.7554 B(  0-C ,  8-H ) :   0.7523 B(  1-C ,  2-C ) :   0.7092 
B(  1-C ,  3-O ) :  -0.1720 B(  1-C ,  4-O ) :  -0.2385 B(  1-C ,  6-H ) :  -0.0681 
B(  1-C ,  8-H ) :  -0.0630 B(  1-C ,  9-H ) :   0.6598 B(  1-C , 10-H ) :   0.6149 
B(  2-C ,  3-O ) :   1.3591 B(  2-C ,  4-O ) :   0.7234 B(  2-C ,  5-C ) :  -0.0655 
B(  3-O ,  4-O ) :  -0.1752 B(  4-O ,  5-C ) :   0.5477 B(  4-O , 11-H ) :  -0.0601 
B(  4-O , 12-H ) :  -0.0521 B(  4-O , 13-H ) :  -0.0617 B(  5-C , 11-H ) :   0.7667 
B(  5-C , 12-H ) :   0.7583 B(  5-C , 13-H ) :   0.7680 B(  7-H ,  8-H ) :  -0.0501 
B( 11-H , 12-H ) :  -0.0506 B( 11-H , 13-H ) :  -0.0654 B( 12-H , 13-H ) :  -0.0512 



                     *******************************
                     * LOEWDIN POPULATION ANALYSIS *
                     *******************************

----------------------
LOEWDIN ATOMIC CHARGES
----------------------
   0 C :   -0.330658
   1 C :   -0.251855
   2 C :    0.035510
   3 O :   -0.158062
   4 O :   -0.079972
   5 C :   -0.208121
   6 H :    0.126682
   7 H :    0.123326
   8 H :    0.121852
   9 H :    0.137435
  10 H :    0.128419
  11 H :    0.118529
  12 H :    0.119358
  13 H :    0.117558

-------------------------------
LOEWDIN REDUCED ORBITAL CHARGES
-------------------------------
  0 C s       :     2.946017  s :     2.946017
      pz      :     1.088002  p :     3.313799
      px      :     1.089856
      py      :     1.135942
      dz2     :     0.017997  d :     0.070843
      dxz     :     0.015135
      dyz     :     0.009946
      dx2y2   :     0.017411
      dxy     :     0.010353

  1 C s       :     2.916086  s :     2.916086
      pz      :     1.093441  p :     3.251979
      px      :     1.062334
      py      :     1.096204
      dz2     :     0.019812  d :     0.083790
      dxz     :     0.017990
      dyz     :     0.010537
      dx2y2   :     0.019683
      dxy     :     0.015768

  2 C s       :     2.849534  s :     2.849534
      pz      :     0.838569  p :     2.817734
      px      :     0.961560
      py      :     1.017605
      dz2     :     0.019347  d :     0.297221
      dxz     :     0.018355
      dyz     :     0.058855
      dx2y2   :     0.070903
      dxy     :     0.129762

  3 O s       :     3.543973  s :     3.543973
      pz      :     1.411341  p :     4.582107
      px      :     1.702688
      py      :     1.468077
      dz2     :     0.004449  d :     0.031982
      dxz     :     0.000160
      dyz     :     0.007196
      dx2y2   :     0.012993
      dxy     :     0.007184

  4 O s       :     3.455699  s :     3.455699
      pz      :     1.664162  p :     4.591043
      px      :     1.290213
      py      :     1.636668
      dz2     :     0.004213  d :     0.033231
      dxz     :     0.005012
      dyz     :     0.003534
      dx2y2   :     0.006771
      dxy     :     0.013700

  5 C s       :     2.963535  s :     2.963535
      pz      :     1.139015  p :     3.129052
      px      :     0.884697
      py      :     1.105341
      dz2     :     0.016445  d :     0.115533
      dxz     :     0.020066
      dyz     :     0.024781
      dx2y2   :     0.020271
      dxy     :     0.033970

  6 H s       :     0.873318  s :     0.873318

  7 H s       :     0.876674  s :     0.876674

  8 H s       :     0.878148  s :     0.878148

  9 H s       :     0.862565  s :     0.862565

 10 H s       :     0.871581  s :     0.871581

 11 H s       :     0.881471  s :     0.881471

 12 H s       :     0.880642  s :     0.880642

 13 H s       :     0.882442  s :     0.882442


---------------------------------
LOEWDIN BOND ORDERS (THRESH 0.050000)
---------------------------------
B(  0-C ,  1-C ) :   1.1133 B(  0-C ,  2-C ) :   0.0689 B(  0-C ,  6-H ) :   0.9381 
B(  0-C ,  7-H ) :   0.9371 B(  0-C ,  8-H ) :   0.9413 B(  1-C ,  2-C ) :   1.0558 
B(  1-C ,  3-O ) :   0.0955 B(  1-C ,  4-O ) :   0.0717 B(  1-C ,  9-H ) :   0.8930 
B(  1-C , 10-H ) :   0.9003 B(  2-C ,  3-O ) :   2.2333 B(  2-C ,  4-O ) :   1.3805 
B(  2-C ,  5-C ) :   0.0789 B(  3-O ,  4-O ) :   0.2092 B(  4-O ,  5-C ) :   1.1213 
B(  5-C , 11-H ) :   0.9447 B(  5-C , 12-H ) :   0.9522 B(  5-C , 13-H ) :   0.9455 


------------------------------------------
LOEWDIN REDUCED ORBITAL POPULATIONS PER MO
-------------------------------------------
THRESHOLD FOR PRINTING IS 0.1%%
                      0         1         2         3         4         5   
                 -18.79986 -18.73597 -10.00260  -9.93894  -9.89768  -9.88643
                   2.00000   2.00000   2.00000   2.00000   2.00000   2.00000
                  --------  --------  --------  --------  --------  --------
 0 C  s               0.0       0.0       0.0       0.0       0.0      99.7
 1 C  s               0.0       0.0       0.0       0.0      99.6       0.0
 2 C  s               0.0       0.0      99.3       0.0       0.0       0.0
 3 O  s               0.0      99.9       0.0       0.0       0.0       0.0
 3 O  py              0.0       0.0       0.3       0.0       0.0       0.0
 4 O  s              99.9       0.0       0.0       0.0       0.0       0.0
 5 C  s               0.0       0.0       0.0      99.7       0.0       0.0

                      6         7         8         9        10        11   
                  -1.00568  -0.91472  -0.71407  -0.65509  -0.57293  -0.50548
                   2.00000   2.00000   2.00000   2.00000   2.00000   2.00000
                  --------  --------  --------  --------  --------  --------
 0 C  s               0.1       0.0      16.1      11.0      18.7       0.7
 0 C  pz              0.0       0.0       1.5       0.1       3.0       1.9
 0 C  px              0.1       0.0       1.4       0.0       2.3       0.1
 0 C  dxz             0.0       0.0       0.1       0.0       0.1       0.0
 1 C  s               1.0       0.2      26.7       2.6       9.5       2.3
 1 C  pz              0.1       0.0       1.1       0.5       5.0       2.2
 1 C  px              1.5       0.1       0.0       3.9       5.2       1.4
 1 C  py              0.3       0.5       0.1       0.0       0.0       0.0
 1 C  dxz             0.0       0.0       0.0       0.1       0.2       0.0
 2 C  s              18.7       4.8       4.5       2.5       1.9       2.8
 2 C  pz              0.4       0.4       0.1       0.1       1.6       0.9
 2 C  px              4.6       1.1       6.4       1.8       5.9       2.0
 2 C  py              0.1      22.8       6.2       3.0       1.3       2.3
 2 C  dz2             0.5       0.1       0.0       0.0       0.0       0.0
 2 C  dx2y2           0.1       1.2       0.1       0.0       0.0       0.0
 2 C  dxy             0.3       0.6       0.0       0.3       0.2       0.0
 3 O  s              12.5      40.1       1.7       0.2       0.5       1.3
 3 O  pz              0.0       0.0       0.0       0.0       0.1       0.3
 3 O  px              0.0       0.2       0.2       0.0       0.4       0.8
 3 O  py              3.0       4.2       0.2       0.2       0.2       1.1
 3 O  dx2y2           0.1       0.1       0.0       0.0       0.0       0.0
 4 O  s              40.0      17.1       0.1       0.8       1.4       4.8
 4 O  pz              0.0       0.0       0.4       1.6       0.0       1.2
 4 O  px              0.1       0.4       6.6      19.4       0.0      17.2
 4 O  py              3.1       0.2       0.0       0.2       0.1       7.5
 4 O  dxy             0.0       0.0       0.1       0.2       0.0       0.1
 5 C  s               4.9       2.5       4.4      24.5       5.7       5.7
 5 C  pz              0.3       0.1       0.0       0.0       0.1       0.6
 5 C  px              5.0       1.3       0.2       0.4       2.0       9.6
 5 C  py              0.4       0.6       0.1       0.1       0.1      11.2
 5 C  dz2             0.1       0.0       0.0       0.0       0.0       0.2
 5 C  dx2y2           0.2       0.1       0.0       0.0       0.1       0.1
 5 C  dxy             0.1       0.1       0.0       0.0       0.0       0.4
 6 H  s               0.0       0.0       2.9       2.5       6.3       0.4
 7 H  s               0.0       0.0       2.9       2.6       7.0       0.2
 8 H  s               0.0       0.0       3.1       2.3       6.7       0.9
 9 H  s               0.1       0.1       4.8       0.8       3.8       2.9
10 H  s               0.2       0.0       5.3       0.3       3.3       1.0
11 H  s               0.7       0.2       0.8       5.4       2.1       6.9
12 H  s               0.5       0.3       0.9       6.9       2.5       1.4
13 H  s               0.6       0.2       0.8       5.5       2.0       7.3

                     12        13        14        15        16        17   
                  -0.44947  -0.43221  -0.42292  -0.39338  -0.37945  -0.36216
                   2.00000   2.00000   2.00000   2.00000   2.00000   2.00000
                  --------  --------  --------  --------  --------  --------
 0 C  s               0.0       0.3       0.0       0.0       0.0       0.1
 0 C  pz              3.0       1.3       1.3       3.6       0.3      15.4
 0 C  px              2.6       1.2       0.0      13.4       5.6       0.8
 0 C  py              2.9       1.6       7.1       6.4       8.6       0.1
 0 C  dxz             0.0       0.0       0.0       0.0       0.1       0.2
 1 C  s               1.5       0.8       0.0       0.2       0.2       0.1
 1 C  pz              6.3       0.5       1.1       8.8       1.4       4.4
 1 C  px              8.0       1.7       1.1       2.5       0.0       9.3
 1 C  py              7.6       3.5      16.0       4.5       2.8       0.0
 1 C  dxy             0.2       0.0       0.0       0.0       0.0       0.0
 2 C  s               1.7       0.7       1.2       0.2       2.0       0.1
 2 C  pz              2.4      13.5       0.0       0.5       1.3      12.7
 2 C  px             13.4       0.2       0.3       0.6       1.1       1.1
 2 C  py              0.1       0.2       1.6       1.0       4.1       0.7
 2 C  dxz             0.0       0.1       0.1       0.1       0.0       0.0
 2 C  dx2y2           0.0       0.0       0.7       0.1       0.1       0.0
 2 C  dxy             0.0       0.0       0.0       0.3       0.0       0.0
 3 O  s               0.4       0.3       9.0       1.6       7.6       0.4
 3 O  pz              0.5       5.6       0.1       0.4       0.7      10.5
 3 O  px              7.0       0.4       0.4       0.0       0.1       0.0
 3 O  py              0.3       0.7      13.3       4.0      30.5       1.8
 3 O  dyz             0.0       0.1       0.0       0.0       0.0       0.1
 3 O  dx2y2           0.0       0.0       0.1       0.0       0.2       0.0
 3 O  dxy             0.1       0.0       0.0       0.0       0.0       0.0
 4 O  s               0.5       0.1       0.9       0.9       0.2       0.0
 4 O  pz              5.6      21.9       0.5       0.3       0.2       0.0
 4 O  px              0.1       0.9       3.3       7.0       0.0       1.3
 4 O  py              6.8       2.2      12.8       2.7       0.0       0.0
 5 C  s               0.0       0.0       0.2       0.1       0.0       0.0
 5 C  pz              4.5      18.0       0.1       9.4       5.5       6.9
 5 C  px              0.4       4.6       6.7       2.9       0.5       7.1
 5 C  py              6.4       2.5       3.3       0.7       7.5       6.0
 5 C  dyz             0.0       0.1       0.0       0.0       0.0       0.2
 5 C  dx2y2           0.0       0.0       0.1       0.0       0.0       0.0
 5 C  dxy             0.0       0.0       0.0       0.1       0.1       0.1
 6 H  s               1.0       1.5       1.8       3.4       2.7       0.2
 7 H  s               1.7       0.2       0.3       3.1       5.5       0.1
 8 H  s               0.6       0.1       1.8       5.8       0.3       5.4
 9 H  s               4.0       0.0       2.9       6.0       0.0       0.1
10 H  s               4.5       1.9       6.5       2.1       0.9       0.3
11 H  s               2.4       4.3       0.1       1.8       4.7       1.2
12 H  s               2.8       1.3       4.9       2.9       4.7       5.4
13 H  s               0.0       7.0       0.2       2.0       0.0       7.6

                     18        19        20        21        22        23   
                  -0.33319  -0.31936  -0.31167  -0.30028  -0.25884  -0.22011
                   2.00000   2.00000   2.00000   2.00000   2.00000   2.00000
                  --------  --------  --------  --------  --------  --------
 0 C  s               0.0       0.3       0.1       0.0       0.0       0.0
 0 C  pz              5.3       7.0      10.0       0.2       0.0       0.0
 0 C  px             13.2       8.9       0.2       4.2       0.0       0.4
 0 C  py             10.4       8.5      10.7       0.0       0.3       0.0
 0 C  dz2             0.1       0.2       0.3       0.2       0.0       0.0
 0 C  dxz             0.0       0.1       0.2       0.0       0.0       0.0
 0 C  dyz             0.0       0.0       0.3       0.0       0.0       0.0
 0 C  dx2y2           0.4       0.2       0.0       0.0       0.0       0.1
 0 C  dxy             0.3       0.0       0.0       0.0       0.0       0.0
 1 C  s               0.2       0.1       0.0       0.2       0.0       0.6
 1 C  pz              1.6       9.9      10.9       0.6       0.1       0.1
 1 C  px              1.3       5.3       0.6       7.0       0.0       4.2
 1 C  py              1.0       7.7       7.6       0.0       0.1       3.1
 1 C  dz2             0.2       0.1       0.4       0.1       0.0       0.0
 1 C  dxz             0.0       0.2       0.3       0.0       0.0       0.0
 1 C  dyz             0.0       0.0       0.3       0.0       0.0       0.0
 1 C  dx2y2           0.1       0.3       0.0       0.1       0.0       0.1
 1 C  dxy             0.2       0.0       0.0       0.0       0.0       0.0
 2 C  s               0.3       0.0       0.0       1.1       0.0       0.5
 2 C  pz              0.3       5.1       2.3       0.0       0.3       0.0
 2 C  px              7.4       0.5       0.2       0.6       0.0       1.0
 2 C  py              0.1       0.6       0.6       5.6       0.0       0.6
 2 C  dz2             0.0       0.0       0.0       0.0       0.1       0.0
 2 C  dxz             0.0       0.1       0.2       0.0       0.1       0.0
 2 C  dyz             0.0       0.4       0.0       0.0       1.9       0.4
 2 C  dx2y2           0.0       0.2       0.1       0.8       0.0       0.1
 2 C  dxy             0.1       0.0       0.1       0.1       0.2       4.2
 3 O  s               0.0       0.2       0.2       1.2       0.0       0.0
 3 O  pz              0.3      13.5       3.6       0.0      29.0       6.0
 3 O  px              7.1       1.2       0.2       0.3       2.9      63.9
 3 O  py              0.3       0.8       2.1       9.3       0.3       0.9
 4 O  s               0.6       0.0       0.0       5.2       0.0       0.3
 4 O  pz              0.6       2.6       2.1       0.0      45.9       0.1
 4 O  px              0.1       0.0       0.7       2.9       3.2       1.1
 4 O  py              3.1       0.3       1.5      32.7       0.1       8.1
 5 C  s               0.0       0.0       0.0       0.3       0.0       0.1
 5 C  pz              2.1       3.8       1.7       0.0       3.8       0.0
 5 C  px              0.5       0.0       0.7       1.3       0.2       0.9
 5 C  py              6.2       0.1       0.6       9.3       0.0       0.1
 5 C  dz2             0.1       0.0       0.0       0.1       0.1       0.0
 5 C  dxz             0.1       0.1       0.0       0.1       0.5       0.0
 5 C  dyz             0.0       0.1       0.1       0.0       0.6       0.0
 5 C  dx2y2           0.0       0.0       0.0       0.2       0.1       0.1
 5 C  dxy             0.3       0.0       0.0       0.3       0.0       0.0
 6 H  s               5.6       8.2       6.5       0.0       0.2       0.3
 7 H  s              16.3       0.3       0.1       2.9       0.0       0.6
 8 H  s               2.8       0.1      12.2       1.6       0.1       0.0
 9 H  s               1.7       0.2      13.7       2.0       0.0       0.1
10 H  s               1.1       9.1       5.4       0.2       0.0       1.4
11 H  s               3.4       2.0       0.5       2.7       4.7       0.2
12 H  s               5.0       0.3       0.6       3.4       0.0       0.1
13 H  s               0.2       1.1       1.9       2.5       4.9       0.1

                     24        25        26        27        28        29   
                  -0.01991   0.04679   0.06438   0.08833   0.09152   0.09575
                   0.00000   0.00000   0.00000   0.00000   0.00000   0.00000
                  --------  --------  --------  --------  --------  --------
 0 C  s               2.8       7.3       3.9       8.4       4.8       0.4
 0 C  pz              1.2       2.6       0.7       1.1       1.1       3.0
 0 C  px              0.6       1.7       1.2       0.6       0.4       5.0
 0 C  py              0.4       0.0       0.0       0.6       1.3       1.8
 0 C  dz2             0.0       0.1       0.1       0.3       0.1       0.6
 0 C  dxz             0.0       0.3       0.1       0.1       0.0       0.0
 0 C  dyz             0.0       0.0       0.0       0.1       0.2       0.2
 0 C  dx2y2           0.1       0.0       0.0       0.0       0.1       0.0
 0 C  dxy             0.0       0.0       0.0       0.0       0.3       0.0
 1 C  s               0.1       7.1       2.9       3.8       4.5       0.0
 1 C  pz              0.4       1.1       1.2       1.4       0.4       2.0
 1 C  px              0.3       0.0       0.2       0.8       0.8       2.1
 1 C  py              0.0       0.3       0.2       4.9       7.4       1.4
 1 C  dz2             0.0       0.0       0.0       0.6       0.0       0.5
 1 C  dxz             1.8       0.0       0.0       0.0       0.1       0.0
 1 C  dx2y2           0.2       0.0       0.0       0.5       0.5       0.1
 1 C  dxy             0.0       0.0       0.0       0.0       0.2       0.1
 2 C  s               0.0       2.2       0.1       1.3       1.1       0.2
 2 C  pz             42.1       1.5       0.7       0.7       0.2       0.3
 2 C  px              2.8       1.1       0.2       0.8       0.1       0.3
 2 C  py              0.2       0.7       0.1       0.8       0.9       0.5
 2 C  dz2             0.0       0.6       0.0       0.4       0.1       0.0
 2 C  dxz             0.3       0.2       0.0       0.4       0.1       0.0
 2 C  dyz             0.8       0.0       0.0       0.0       0.0       0.0
 2 C  dx2y2           0.0       0.0       0.1       0.8       0.3       0.2
 2 C  dxy             0.0       0.0       0.0       0.1       0.1       0.0
 3 O  s               0.0       0.9       0.1       0.0       0.0       0.0
 3 O  pz             23.7       0.4       0.5       0.0       0.1       0.3
 3 O  px              1.9       0.2       0.4       0.6       0.1       0.3
 3 O  py              0.1       0.1       0.0       0.0       0.0       0.1
 3 O  dyz             0.5       0.0       0.0       0.0       0.0       0.0
 4 O  s               0.0       2.1       0.4       4.4       0.4       5.5
 4 O  pz              9.3       0.1       0.1       0.1       0.0       0.3
 4 O  px              0.7       0.3       0.4       0.9       0.0       4.2
 4 O  py              0.0       0.2       0.1       1.4       0.4       1.0
 4 O  dz2             0.1       0.0       0.0       0.1       0.0       0.1
 4 O  dxz             0.2       0.0       0.0       0.1       0.0       0.0
 4 O  dyz             0.1       0.0       0.0       0.0       0.0       0.0
 4 O  dx2y2           0.0       0.0       0.0       0.2       0.2       0.2
 4 O  dxy             0.0       0.0       0.1       0.0       0.1       0.1
 5 C  s               0.0       5.3      20.2       1.0       0.1       3.5
 5 C  pz              0.2       0.2       0.3       0.3       0.3       2.8
 5 C  px              0.0       5.4       1.7       8.0       0.7      16.4
 5 C  py              0.0       1.4       0.1       4.0       6.5       2.4
 5 C  dz2             0.0       0.1       0.0       0.6       0.3       0.5
 5 C  dxz             0.1       0.1       0.0       0.4       0.1       0.4
 5 C  dyz             0.3       0.0       0.0       0.0       0.1       0.0
 5 C  dx2y2           0.0       0.2       0.0       0.7       0.0       1.2
 5 C  dxy             0.0       0.1       0.0       0.3       0.1       1.4
 6 H  s               0.1       5.5       2.7       1.6      11.2       5.2
 7 H  s               2.2       7.4       5.4       4.4       0.4       8.3
 8 H  s               0.5       8.7       2.2      13.7       6.4      12.5
 9 H  s               3.2       7.2       5.7      23.1       1.4       7.9
10 H  s               0.5       8.1       3.0       2.7      27.6       2.9
11 H  s               0.8       7.2      12.6       0.9       0.5       3.2
12 H  s               0.0       5.2      16.4       1.5      11.9       0.3
13 H  s               0.9       6.5      15.7       0.3       5.7       0.2

                     30        31        32        33        34        35   
                   0.10498   0.11599   0.12300   0.13535   0.17188   0.20983
                   0.00000   0.00000   0.00000   0.00000   0.00000   0.00000
                  --------  --------  --------  --------  --------  --------
 0 C  s               1.4       0.6       0.0       0.0       2.2       0.6
 0 C  pz              0.1       0.6       1.8       3.8       7.2       8.6
 0 C  px              0.4       0.2      11.4       1.5      11.1       4.5
 0 C  py              3.4       0.6       7.1      10.9       0.6       0.8
 0 C  dz2             0.0       0.1       0.0       0.1       0.2       1.4
 0 C  dxz             0.2       0.0       0.1       0.3       3.1       1.2
 0 C  dyz             0.1       0.0       0.3       0.1       0.0       0.8
 0 C  dx2y2           0.1       0.0       0.4       0.5       0.4       0.0
 0 C  dxy             0.2       0.0       0.4       0.3       0.4       0.1
 1 C  s               1.5       1.1       0.9       0.0       4.0       0.1
 1 C  pz              0.7       0.3       1.8       2.0      15.8       4.1
 1 C  px              0.1       1.1       0.2       2.3       0.1      27.7
 1 C  py              2.1       0.1       1.1       4.1       2.9       2.1
 1 C  dz2             0.0       0.0       0.2       0.0       0.1       2.2
 1 C  dxz             0.1       0.2       0.0       0.0       0.8       2.5
 1 C  dyz             0.4       0.1       0.5       0.0       1.0       0.0
 1 C  dx2y2           0.0       0.0       0.0       0.2       1.1       0.3
 1 C  dxy             0.0       0.0       0.0       0.5       0.8       3.6
 2 C  s               0.7       0.1       0.4       0.3      14.4      14.3
 2 C  pz              0.1       0.7       1.1       0.1       1.9       2.1
 2 C  px              0.0       0.1       0.3       0.3       0.5       3.9
 2 C  py              0.0       0.1       0.2       1.8       0.5       2.0
 2 C  dz2             0.3       0.0       0.1       0.1       4.2       1.6
 2 C  dxz             0.0       0.1       0.0       0.0       0.2       0.8
 2 C  dyz             0.0       0.0       0.0       0.0       0.3       0.0
 2 C  dx2y2           0.1       0.0       0.1       0.2       0.1       0.2
 2 C  dxy             0.1       0.0       0.0       0.2       0.0       0.2
 3 O  s               0.0       0.0       0.0       0.4       1.0       0.7
 3 O  pz              0.0       0.1       0.0       0.3       1.0       0.7
 3 O  px              0.1       0.2       0.5       0.5       0.2       0.5
 3 O  py              0.1       0.0       0.0       0.0       0.8       1.2
 3 O  dxy             0.0       0.0       0.0       0.0       0.0       0.2
 4 O  s               0.1       0.5       0.5       0.3       0.0       0.1
 4 O  pz              0.0       1.8       0.2       0.0       0.0       0.6
 4 O  px              0.8       0.2       1.0       2.0       4.5       1.3
 4 O  py              0.6       0.3       0.4       0.1       0.7       0.3
 4 O  dxz             0.0       0.2       0.0       0.0       0.0       0.0
 4 O  dxy             0.2       0.0       0.0       0.0       0.3       0.2
 5 C  s               0.1       0.2       0.2       0.5       0.0       0.0
 5 C  pz              1.1      19.5       3.7       0.7       0.5       0.0
 5 C  px              6.6       6.2       1.7       2.6       2.1       0.5
 5 C  py             12.0       0.3       0.4       1.5       3.3       0.5
 5 C  dz2             0.2       0.2       0.0       0.2       0.4       0.1
 5 C  dxz             0.0       0.0       0.1       0.1       0.1       0.0
 5 C  dyz             0.1       1.2       0.0       0.0       0.0       0.0
 5 C  dx2y2           0.3       0.2       0.2       0.2       0.1       0.0
 5 C  dxy             0.8       0.0       0.2       0.3       0.3       0.2
 6 H  s              11.0       0.2       9.3      18.0       0.6       1.4
 7 H  s               0.3       3.2      36.9       0.0       1.1       2.1
 8 H  s               0.1       0.0       2.6      19.9       0.3       0.4
 9 H  s               1.0       2.8       2.6      11.8       2.6       1.5
10 H  s               8.3       0.8       3.8       8.4       1.2       0.5
11 H  s               8.0      28.5       4.3       0.1       0.7       0.7
12 H  s              30.6       0.0       0.4       1.2       0.8       0.3
13 H  s               5.3      27.2       2.3       0.8       3.1       0.1

                     36        37        38        39        40        41   
                   0.26108   0.29758   0.39068   0.40334   0.40654   0.41339
                   0.00000   0.00000   0.00000   0.00000   0.00000   0.00000
                  --------  --------  --------  --------  --------  --------
 0 C  s               0.0       0.1       0.2       0.3       0.3       0.1
 0 C  pz              4.3       0.2      17.0       1.1       1.0       4.3
 0 C  px              0.8       1.2       3.9       0.7       4.3       0.0
 0 C  py              0.6       0.1       0.1      24.2       5.9       0.0
 0 C  dz2             0.0       0.1       1.0       2.5       1.5       0.0
 0 C  dxz             1.5       0.2       1.4       0.0       0.0       0.3
 0 C  dyz             0.0       0.0       3.0       0.1       0.4       0.3
 0 C  dx2y2           1.2       0.0       0.4       4.0       0.6       0.0
 0 C  dxy             0.1       0.1       0.7       0.3       0.1       0.0
 1 C  s               4.2       0.2       0.1       1.0       0.5       1.1
 1 C  pz              2.7       0.3       2.7       9.4       1.7       3.7
 1 C  px              7.3       0.3       2.1       0.2       5.8       0.1
 1 C  py              4.0       1.7       4.2       0.4       0.1       0.8
 1 C  dz2             0.2       0.4       2.3       0.2       0.0       0.2
 1 C  dxz             0.0       0.3       0.0       0.5       0.4       0.3
 1 C  dyz             0.2       0.3       0.1       2.5       0.5       0.2
 1 C  dx2y2           1.8       2.0       0.5       0.0       0.2       0.2
 1 C  dxy             1.0       1.0       0.1       0.1       0.3       0.1
 2 C  s              14.3       3.4       7.6       0.2       0.9       1.8
 2 C  pz              0.7       1.5       5.5       2.8       4.8       4.2
 2 C  px             13.5      12.9       1.4       0.4       1.4       1.9
 2 C  py              5.9      20.8       2.3       1.7       0.5       2.3
 2 C  dz2             1.8       0.1       0.0       0.1       0.2       0.0
 2 C  dxz             0.2       0.4       0.1       0.0       0.0       0.1
 2 C  dyz             0.1       0.2       0.0       0.1       0.0       0.0
 2 C  dx2y2           2.8       0.7       0.9       0.0       0.7       0.0
 2 C  dxy             0.2       3.2       0.1       0.0       0.0       0.0
 3 O  s               5.7       3.4       0.8       0.7       0.1       0.7
 3 O  pz              0.0       0.3       0.1       0.4       0.0       0.3
 3 O  px              1.7       3.9       0.1       0.7       0.2       0.1
 3 O  py              1.8       0.2       0.9       0.1       0.1       0.0
 3 O  dz2             0.0       0.0       0.1       0.0       0.0       0.0
 3 O  dx2y2           0.1       0.1       0.1       0.0       0.1       0.0
 3 O  dxy             0.4       0.6       0.0       0.0       0.0       0.0
 4 O  s               0.9       5.4       0.1       0.2       0.3       0.4
 4 O  pz              0.3       1.1       0.8       0.2       1.2       2.6
 4 O  px              1.4       9.2       1.0       0.1       1.2       0.4
 4 O  py              1.9       1.0       1.0       0.9       1.5       3.6
 4 O  dz2             0.0       0.1       0.1       0.2       0.3       0.2
 4 O  dxz             0.1       0.1       0.0       0.0       0.0       0.6
 4 O  dyz             0.1       0.1       0.1       0.0       0.1       0.0
 4 O  dx2y2           0.8       0.0       0.1       0.0       0.3       0.0
 4 O  dxy             0.2       1.1       1.0       0.0       0.6       0.0
 5 C  s               0.6       0.1       1.1       0.5       4.8       1.8
 5 C  pz              0.3       0.1       2.4       4.9       3.1      25.9
 5 C  px              5.0       2.6       1.9       2.1      18.0       3.3
 5 C  py              0.8       0.5       1.4       3.9      14.3      10.2
 5 C  dz2             0.1       0.0       0.1       0.5       1.4       0.5
 5 C  dxz             0.1       0.0       0.0       0.3       0.5       0.1
 5 C  dyz             0.0       0.1       0.5       0.8       0.7       5.7
 5 C  dx2y2           0.0       0.0       0.2       0.0       0.0       0.0
 5 C  dxy             0.2       1.4       0.0       0.6       0.6       0.1
 6 H  s               1.8       0.5       0.2      15.0       4.4       0.1
 7 H  s               1.1       0.5       2.7       0.7       0.6       0.1
 8 H  s               1.7       0.4      14.1       2.4       2.1       0.8
 9 H  s               0.2       4.7       2.6       4.8       1.2       0.6
10 H  s               1.8       7.2       5.4       0.9       0.1       1.5
11 H  s               0.5       0.1       0.0       4.8       8.9       3.4
12 H  s               0.7       3.4       0.3       1.1       1.2       0.5
13 H  s               0.3       0.1       2.7       0.3       0.1      14.1

                     42        43        44        45        46        47   
                   0.43199   0.45345   0.47867   0.53771   0.58627   0.60196
                   0.00000   0.00000   0.00000   0.00000   0.00000   0.00000
                  --------  --------  --------  --------  --------  --------
 0 C  s               2.3       0.2       0.5       3.5       3.8       5.2
 0 C  pz              8.2       7.2       3.0       6.5       0.3       2.0
 0 C  px             10.3       0.7       0.1      12.1       2.3       0.8
 0 C  py              4.7       0.3       0.2       0.8       0.5       0.4
 0 C  dz2             0.1       0.5       0.0       0.1       0.1       0.0
 0 C  dxz             1.7       0.2       0.0       0.0       0.2       0.1
 0 C  dyz             0.0       0.2       0.2       0.1       0.1       0.1
 0 C  dx2y2           1.6       0.1       0.0       0.1       0.3       0.1
 0 C  dxy             1.0       0.9       0.2       0.0       0.6       0.3
 1 C  s               0.7       0.9       1.7       9.2       0.3       0.7
 1 C  pz              7.5       0.2       3.8       5.6       3.5      11.3
 1 C  px              1.6       2.4      12.0       4.6       8.6      13.7
 1 C  py              0.3       0.9       4.8       4.9       0.2       0.1
 1 C  dz2             0.2       0.1       0.1       0.1       0.0       0.1
 1 C  dxz             2.8       0.4       0.1       0.0       0.4       0.1
 1 C  dyz             0.1       0.1       0.6       0.1       0.0       0.0
 1 C  dx2y2           0.4       1.1       0.1       0.0       0.0       0.1
 1 C  dxy             0.5       0.0       0.4       0.2       0.0       0.0
 2 C  s               1.7       7.7       8.0       6.5       1.0       6.9
 2 C  pz             15.9       0.6      11.2       7.6      11.4       5.4
 2 C  px              0.8      16.9       5.7       6.0       1.6       0.0
 2 C  py              1.5       6.2       6.3       0.5       6.7      17.4
 2 C  dz2             0.0       0.1       0.8       0.3       0.3       0.6
 2 C  dxz             0.9       0.0       0.4       0.0       0.2       0.0
 2 C  dyz             0.2       0.0       0.0       0.1       0.0       0.0
 2 C  dx2y2           0.1       0.0       0.5       0.0       1.3       2.2
 2 C  dxy             0.0       0.3       0.8       0.7       0.0       0.4
 3 O  s               0.3       0.2       0.2       0.2       1.1       0.2
 3 O  pz              0.2       0.3       1.2       0.2       0.2       1.3
 3 O  px              0.4       3.3       3.2       0.5       0.1       0.3
 3 O  py              0.1       0.2       0.0       0.7       1.9       7.5
 3 O  dz2             0.0       0.0       0.1       0.2       0.1       1.1
 3 O  dyz             0.2       0.0       0.0       0.0       0.0       0.0
 3 O  dx2y2           0.0       0.2       0.0       0.0       0.9       2.7
 3 O  dxy             0.0       0.0       0.2       0.3       0.0       0.2
 4 O  s               0.1       0.2       0.4       0.0       1.5       0.0
 4 O  pz              0.5       0.0       0.1       0.0       1.7       0.0
 4 O  px              0.2       0.8       0.5       3.0       3.6       0.5
 4 O  py              0.3       1.3       3.7       0.9       0.4       0.2
 4 O  dz2             0.0       0.7       0.3       0.0       0.0       0.0
 4 O  dxz             0.0       0.3       0.0       0.0       0.2       0.0
 4 O  dx2y2           0.1       0.4       0.2       0.0       0.1       0.2
 4 O  dxy             0.2       0.5       0.5       0.0       0.2       0.0
 5 C  s               0.1       1.6       0.5       1.1       4.1       2.1
 5 C  pz              6.9       0.1       5.3       1.1       0.1       0.3
 5 C  px              3.0      10.5       1.6       4.3       8.4       2.8
 5 C  py              0.1       3.5       8.2       0.5       5.2       0.1
 5 C  dz2             0.0       1.4       1.2       0.2       0.2       0.0
 5 C  dxz             0.0       0.5       0.0       0.0       0.0       0.1
 5 C  dyz             1.9       0.8       0.3       0.0       0.2       0.0
 5 C  dx2y2           0.0       0.1       1.0       0.0       1.1       0.0
 5 C  dxy             0.0       1.8       1.2       0.3       0.0       0.3
 6 H  s               2.1       0.1       0.1       1.3       0.5       4.9
 7 H  s               8.5       2.3       0.2       0.0      10.4       0.6
 8 H  s               0.6       2.6       0.3       1.4       1.5       2.7
 9 H  s               2.5       0.1       0.7       7.8       0.7       0.1
10 H  s               1.4       3.1       0.3       3.1       0.0       0.3
11 H  s               3.3       0.5       0.8       0.1       4.9       1.0
12 H  s               0.2      11.2       5.5       2.5       4.2       1.7
13 H  s               1.8       2.8       0.9       0.5       2.8       0.6

                     48        49        50        51        52        53   
                   0.61603   0.62322   0.63070   0.63600   0.64357   0.65319
                   0.00000   0.00000   0.00000   0.00000   0.00000   0.00000
                  --------  --------  --------  --------  --------  --------
 0 C  s               1.4       0.6       0.6       1.0      13.7       6.6
 0 C  pz              6.4       0.1       1.6       0.5       6.0       0.5
 0 C  px              1.0       0.7       0.1       0.4       2.1       3.1
 0 C  py              1.0       3.7       0.1       1.6       1.9      13.9
 0 C  dz2             0.0       0.1       0.0       0.0       0.4       0.5
 0 C  dxz             0.6       0.3       0.0       0.0       0.0       0.1
 0 C  dyz             0.2       0.1       0.1       0.3       1.0       0.1
 0 C  dx2y2           0.0       0.1       0.1       0.2       0.7       0.6
 0 C  dxy             0.4       0.0       0.0       0.0       0.5       0.8
 1 C  s               8.0       0.7       2.5       0.6       8.1       1.1
 1 C  pz              0.6       0.5       2.3       7.2       4.3       2.7
 1 C  px             14.4       1.7       1.4       0.8       0.9       5.1
 1 C  py              3.6       6.5       0.0       0.3       1.5      19.2
 1 C  dz2             0.0       0.2       0.0       0.0       0.0       0.1
 1 C  dxz             0.3       0.2       0.1       0.0       0.0       0.2
 1 C  dx2y2           0.3       0.1       0.0       0.0       0.0       0.2
 1 C  dxy             0.0       0.0       0.0       0.0       0.2       0.0
 2 C  s               0.5       2.4       0.0       0.7       6.0       1.7
 2 C  pz              7.7       1.9       0.3       0.7       5.3       1.9
 2 C  px              0.6       0.0       0.0       0.2       0.6       0.3
 2 C  py              2.8       8.9       0.1       5.6       1.0       3.1
 2 C  dxz             0.1       0.1       0.0       0.0       0.0       0.0
 2 C  dx2y2           0.5       0.7       0.0       0.5       0.1       0.4
 3 O  s               0.1       0.3       0.0       0.4       0.2       0.4
 3 O  pz              0.9       0.3       0.4       0.0       0.9       0.0
 3 O  px              0.1       1.2       0.1       0.4       0.0       0.2
 3 O  py              1.5       3.1       0.0       0.9       0.8       1.3
 3 O  dz2             0.1       0.5       0.0       0.2       0.1       0.5
 3 O  dx2y2           0.1       1.6       0.0       0.2       0.7       0.5
 3 O  dxy             0.0       0.2       0.0       0.0       0.1       0.1
 4 O  s               0.2       0.4       0.0       0.1       0.0       0.0
 4 O  pz              0.3       0.1       0.4       0.1       0.1       0.5
 4 O  px              0.4       0.4       0.0       0.3       0.0       0.9
 4 O  py              0.7       0.1       0.2       1.1       0.2       0.0
 5 C  s              14.7      33.3       1.4       1.4       0.1       0.3
 5 C  pz              5.6       0.7      40.3       6.5       0.3       0.6
 5 C  px              5.2      11.0       1.8       0.0       3.1       0.2
 5 C  py              0.0       0.0       2.9      32.9       8.9       0.4
 5 C  dz2             0.1       0.0       0.1       0.2       0.2       0.0
 5 C  dxz             0.0       0.1       0.3       0.4       0.1       0.0
 5 C  dyz             0.1       0.0       2.2       0.2       0.5       0.0
 5 C  dx2y2           0.1       0.0       0.2       0.3       0.0       0.0
 5 C  dxy             0.2       0.1       0.1       0.8       0.3       0.0
 6 H  s               0.3       1.4       0.0       0.3       0.3      14.7
 7 H  s               1.3       0.8       0.1       0.1       4.8       0.5
 8 H  s               0.2       0.1       1.1       2.9       8.1       1.8
 9 H  s               4.2       1.9       2.8       1.1       2.8       6.6
10 H  s               5.2       1.5       0.9       0.8       0.0       7.7
11 H  s               0.6       4.6       9.6      18.8       0.0       0.2
12 H  s               5.0       5.9       0.0       6.8       9.4       0.0
13 H  s               2.0       0.7      25.6       1.8       3.5       0.0

                     54        55        56        57        58        59   
                   0.65800   0.67163   0.67898   0.68370   0.72901   0.78176
                   0.00000   0.00000   0.00000   0.00000   0.00000   0.00000
                  --------  --------  --------  --------  --------  --------
 0 C  s              24.1       1.6       0.6       5.4       0.0       1.2
 0 C  pz              3.9       5.7       8.0      14.5       1.8       0.0
 0 C  px             18.6       2.5       6.2      11.0       2.6       3.0
 0 C  py              1.4      17.5      23.4       0.0       2.9       1.3
 0 C  dz2             0.1       0.3       0.0       0.0       0.0       0.0
 0 C  dxz             0.1       0.0       0.1       0.3       0.7       0.2
 0 C  dyz             0.0       0.2       0.0       0.0       0.0       0.2
 0 C  dx2y2           0.2       0.0       0.2       0.0       1.6       0.5
 0 C  dxy             0.5       0.0       0.4       0.0       3.0       0.1
 1 C  s               5.0       0.1       3.5       6.4       0.3      12.4
 1 C  pz              6.9      10.4       5.9       2.4       1.2       1.2
 1 C  px              1.5       0.4       0.8       4.5       3.3       0.9
 1 C  py              3.4       7.9       9.1       2.3      17.9       3.3
 1 C  dz2             0.0       0.2       0.1       0.1       3.1       0.5
 1 C  dxz             0.0       0.1       0.0       0.0       0.7       0.0
 1 C  dyz             0.0       0.0       0.4       0.0       1.0       0.1
 1 C  dx2y2           0.2       0.0       0.1       0.1       1.3       0.1
 1 C  dxy             0.2       0.1       0.0       0.0       0.3       0.2
[...]
 9 H  s               1.6       3.6       0.2       1.1       0.2       0.1
10 H  s               2.1       3.7       0.5       0.1       1.0       0.0
12 H  s               0.4       0.0       0.0       0.2       0.2       0.0

                     90        91        92        93        94        95   
                   2.55498   2.63564   2.71370   2.84050   2.85636   3.05003
                   0.00000   0.00000   0.00000   0.00000   0.00000   0.00000
                  --------  --------  --------  --------  --------  --------
 0 C  s               0.1       0.2       0.0       0.0       0.0       0.0
 0 C  pz              0.1       0.1       0.0       0.0       0.0       0.0
 0 C  px              0.1       0.1       0.0       0.0       0.0       0.0
 0 C  dz2             0.4       0.0       0.1       0.1       0.2       0.0
 0 C  dxz             0.9       1.1       0.1       0.0       0.1       0.0
 0 C  dyz             0.1       0.0       0.0       0.1       0.0       0.0
 0 C  dx2y2           0.1       0.3       0.0       0.1       0.0       0.0
 1 C  s               0.0       0.1       0.0       0.0       0.0       0.3
 1 C  px              0.1       0.6       0.0       0.0       0.0       0.2
 1 C  py              0.0       0.2       0.0       0.0       0.1       0.0
 1 C  dz2             0.1       2.2       0.0       0.1       0.3       0.1
 1 C  dxz             2.8       1.1       0.5       0.7       0.0       0.2
 1 C  dyz             0.0       0.0       0.0       0.6       0.1       0.0
 1 C  dx2y2           0.1       0.0       0.1       0.1       1.9       1.1
 1 C  dxy             0.1       0.9       0.0       0.1       1.7       0.0
 2 C  s               0.1       0.1       0.0       0.0       0.3       1.2
 2 C  pz              0.3       0.0       0.1       0.9       0.1       0.2
 2 C  px              0.1       0.5       0.0       0.1       0.2       1.4
 2 C  py              0.0       0.3       0.0       0.0       0.2       1.8
 2 C  dz2             0.1       2.9       0.3       2.4       0.3       2.1
 2 C  dxz             0.1       0.8       0.7      10.5       0.6       0.4
 2 C  dyz             0.3       0.0       0.1       0.1       0.1       0.0
 2 C  dx2y2           0.0       0.1       0.0       0.3      10.0       0.0
 2 C  dxy             0.1       0.2       0.0       0.0       2.3       2.8
 3 O  s               0.0       0.0       0.0       0.0       1.3       0.4
 3 O  pz              0.0       0.0       0.0       0.2       0.0       0.0
 3 O  px              0.0       0.0       0.0       0.1       0.3       0.4
 3 O  py              0.0       0.0       0.0       0.0       0.5       0.3
 3 O  dz2            10.0      40.2       0.4       2.5       5.2       0.1
 3 O  dxz            60.8      19.5       2.3       7.3       0.5       0.1
 3 O  dyz             0.0       0.7       4.3      11.4       1.0       1.4
 3 O  dx2y2           3.8      15.8       0.5       0.1       0.6       0.0
 3 O  dxy             0.1       0.9       0.2       2.5       8.5      21.9
 4 O  s               0.0       0.1       0.0       0.0       0.6       7.5
 4 O  pz              0.3       0.0       0.9       0.7       0.0       0.0
 4 O  px              0.0       0.0       0.1       0.0       1.4       0.1
 4 O  py              0.0       0.5       0.0       0.0       1.1       1.0
 4 O  dz2             0.8       4.4       4.2      11.7      21.2      28.5
 4 O  dxz             1.0       0.1      33.5      17.2       2.5      12.0
 4 O  dyz            15.0       0.3      33.2      26.8       0.4       1.1
 4 O  dx2y2           0.0       2.8       4.7       0.1      16.2       5.5
 4 O  dxy             1.4       0.2       1.3       1.6      12.4       3.5
 5 C  s               0.0       0.2       0.0       0.0       0.7       0.5
 5 C  pz              0.0       0.0       0.4       0.0       0.1       0.0
 5 C  px              0.0       0.2       0.0       0.0       0.8       0.6
 5 C  py              0.0       0.1       0.0       0.0       0.0       0.2
 5 C  dz2             0.1       0.2       1.8       0.0       0.7       0.6
 5 C  dxz             0.2       0.3       7.6       0.2       1.0       0.2
 5 C  dyz             0.0       0.0       1.4       0.7       0.1       0.1
 5 C  dx2y2           0.0       0.1       0.9       0.0       3.7       0.1
 5 C  dxy             0.0       0.8       0.0       0.1       0.4       1.6
12 H  s               0.0       0.1       0.0       0.0       0.0       0.0

                     96        97        98        99   
                   3.12155   3.31116   3.48767   3.55552
                   0.00000   0.00000   0.00000   0.00000
                  --------  --------  --------  --------
 0 C  dz2             0.1       0.0       0.0       0.0
 1 C  s               0.0       0.2       0.1       0.0
 1 C  px              0.0       0.0       0.3       0.0
 1 C  dz2             0.1       0.1       0.1       0.0
 1 C  dxz             0.8       0.0       0.2       0.0
 1 C  dx2y2           0.0       0.0       1.4       0.0
 1 C  dxy             0.0       0.6       0.1       0.4
 2 C  s               0.0       3.2       0.1       6.7
 2 C  pz              0.5       0.1       0.1       0.0
 2 C  px              0.0       1.3       0.4       0.2
 2 C  py              0.0       0.1       2.9       4.6
 2 C  dz2             0.4       0.2       0.0       1.5
 2 C  dxz             0.0       0.7       0.2       0.0
 2 C  dyz            19.0       0.1       1.4       0.4
 2 C  dx2y2           0.1       5.7       0.0       8.7
 2 C  dxy             1.3       0.5      19.6       1.2
 3 O  s               0.0       1.5       0.9       4.4
 3 O  pz              1.0       0.0       0.1       0.0
 3 O  px              0.1       0.1       0.5       0.4
 3 O  py              0.0       0.6       0.7       3.2
 3 O  dz2             0.1       3.2       1.6      12.3
 3 O  dxz             2.2       0.0       0.0       0.0
 3 O  dyz            55.6       1.1       1.8       0.0
 3 O  dx2y2           1.0       8.5      13.6      29.7
 3 O  dxy             3.3       4.0      13.5      13.5
 4 O  s               0.0       0.1       0.5       0.3
 4 O  pz              0.0       0.2       0.2       0.0
 4 O  px              0.0       2.2       2.7       0.1
 4 O  py              0.0       0.2       0.3       0.1
 4 O  dz2             2.7       0.3       1.1       0.6
 4 O  dxz             9.4       2.1       1.5       1.6
 4 O  dyz             0.6       2.7       2.4       0.0
 4 O  dx2y2           0.7      27.1       0.8       8.3
 4 O  dxy             0.3      24.0      28.8       0.7
 5 C  s               0.0       1.1       0.3       0.0
 5 C  px              0.0       1.5       0.4       0.0
 5 C  py              0.0       0.4       0.0       0.0
 5 C  dz2             0.1       0.9       0.0       0.1
 5 C  dxz             0.3       0.5       0.1       0.0
 5 C  dyz             0.3       0.2       0.0       0.0
 5 C  dx2y2           0.0       1.3       0.9       0.0
 5 C  dxy             0.0       3.0       0.0       0.4


                      *****************************
                      * MAYER POPULATION ANALYSIS *
                      *****************************

  NA   - Mulliken gross atomic population
  ZA   - Total nuclear charge
  QA   - Mulliken gross atomic charge
  VA   - Mayer's total valence
  BVA  - Mayer's bonded valence
  FA   - Mayer's free valence

  ATOM       NA         ZA         QA         VA         BVA        FA
  0 C      6.3028     6.0000    -0.3028     4.0387     4.0387    -0.0000
  1 C      6.1424     6.0000    -0.1424     3.9893     3.9893     0.0000
  2 C      5.9073     6.0000     0.0927     4.4063     4.4063    -0.0000
  3 O      8.2009     8.0000    -0.2009     2.2860     2.2860    -0.0000
  4 O      8.2439     8.0000    -0.2439     2.2632     2.2632    -0.0000
  5 C      6.1132     6.0000    -0.1132     3.8907     3.8907    -0.0000
  6 H      0.8784     1.0000     0.1216     0.9603     0.9603     0.0000
  7 H      0.8849     1.0000     0.1151     0.9467     0.9467    -0.0000
  8 H      0.8898     1.0000     0.1102     0.9508     0.9508    -0.0000
  9 H      0.8901     1.0000     0.1099     0.9555     0.9555    -0.0000
 10 H      0.9006     1.0000     0.0994     0.9642     0.9642     0.0000
 11 H      0.8822     1.0000     0.1178     0.9652     0.9652    -0.0000
 12 H      0.8801     1.0000     0.1199     0.9552     0.9552    -0.0000
 13 H      0.8835     1.0000     0.1165     0.9630     0.9630    -0.0000

  Mayer bond orders larger than 0.100000
B(  0-C ,  1-C ) :   1.1421 B(  0-C ,  6-H ) :   0.9516 B(  0-C ,  7-H ) :   0.9533 
B(  0-C ,  8-H ) :   0.9552 B(  1-C ,  2-C ) :   1.0244 B(  1-C ,  9-H ) :   0.9066 
B(  1-C , 10-H ) :   0.9125 B(  2-C ,  3-O ) :   2.0671 B(  2-C ,  4-O ) :   1.2002 
B(  4-O ,  5-C ) :   0.9486 B(  5-C , 11-H ) :   0.9508 B(  5-C , 12-H ) :   0.9589 
B(  5-C , 13-H ) :   0.9523 

-------
TIMINGS
-------

Total SCF time: 0 days 0 hours 0 min 0 sec 

Total time                  ....       0.767 sec
Sum of individual times     ....       0.749 sec  ( 97.6%)

SCF preparation             ....       0.031 sec  (  4.0%)
Fock matrix formation       ....       0.666 sec  ( 86.9%)
  Startup                   ....       0.001 sec  (  0.2% of F)
  Split-RI-J                ....       0.290 sec  ( 43.5% of F)
  XC integration            ....       0.372 sec  ( 55.9% of F)
    Basis function eval.    ....       0.159 sec  ( 42.8% of XC)
    Density eval.           ....       0.077 sec  ( 20.7% of XC)
    XC-Functional eval.     ....       0.038 sec  ( 10.2% of XC)
    XC-Potential eval.      ....       0.078 sec  ( 21.0% of XC)
Diagonalization             ....       0.000 sec  (  0.0%)
Density matrix formation    ....       0.001 sec  (  0.2%)
Total Energy calculation    ....       0.000 sec  (  0.0%)
Population analysis         ....       0.042 sec  (  5.5%)
Orbital Transformation      ....       0.002 sec  (  0.3%)
Orbital Orthonormalization  ....       0.000 sec  (  0.0%)
DIIS solution               ....       0.002 sec  (  0.3%)
  MO trafo                  ....       0.000 sec  (  0.0 % of DIIS)
  Orb grad                  ....       0.000 sec  (  0.0 % of DIIS)
  Energy W gradient         ....       0.000 sec  (  0.0 % of DIIS)
  DIIS error                ....       0.000 sec  (  7.7 % of DIIS)
  DIIS work                 ....       0.002 sec  ( 90.5 % of DIIS)
  Form Q                    ....       0.000 sec  (  0.0 % of DIIS)
  Form QpQm                 ....       0.000 sec  (  0.0 % of DIIS)
  Exp/Cayley                ....       0.000 sec  (  0.0 % of DIIS)
  Orb update                ....       0.000 sec  (  0.0 % of DIIS)
  Wake-sleep                ....       0.000 sec  (  1.7 % of DIIS)
SOSCF solution              ....       0.004 sec  (  0.5%)
  MO trafo                  ....       0.002 sec  ( 59.3 % of SOSCF)
  Orb grad                  ....       0.000 sec  (  1.9 % of SOSCF)
  Rot update                ....       0.000 sec  (  5.5 % of SOSCF)
  Step                      ....       0.001 sec  ( 32.0 % of SOSCF)
Finished LeanSCF after   0.8 sec

Maximum memory used throughout the entire LEANSCF-calculation: 9.7 MB


-------------------------------------------------------------------------------
                          DFT DISPERSION CORRECTION                            
                                                                               
                                DFTD4 V3.4.0                                   
-------------------------------------------------------------------------------
The PBE functional is recognized
Active option DFTDOPT                   ...         5   

-------------------------   ----------------
Dispersion correction           -0.009135170
-------------------------   ----------------

------------------   -----------------
gCP correction             0.063327334
------------------   -----------------

-------------------------   --------------------
FINAL SINGLE POINT ENERGY      -307.026738217925
-------------------------   --------------------


------------------------------------------------------------------------------
                              ORCA PROPERTY CALCULATIONS
------------------------------------------------------------------------------

GBWName                                 ... sp.gbw
Number of atoms                         ...     14
Number of basis functions               ...    100
Max core memory                         ...   1024 MB

Electric properties:
Dipole moment                           ... YES
Quadrupole moment                       ...  NO
Static polarizability (Dipole/Dipole)   ...  NO
Static polarizability (Dipole/Quad.)    ...  NO
Static polarizability (Quad./Quad.)     ...  NO
Static polarizability (Velocity)        ...  NO

Atomic electric properties:
Dipole moment                           ...  NO
Quadrupole moment                       ...  NO
Static polarizability                   ...  NO

Choice of electric origin               ... Center of mass
Position of electric origin             ...    -0.000015     0.000011    -0.000006

General magnetic properties:
Magnetizability                         ...  NO

EPR properties:
g-Tensor (aka g-matrix)                 ...  NO
Zero-Field splitting spin-orbit         ...  NO
Zero-field splitting spin-spin          ...  NO
Hyperfine couplings                     ...  NO (   0 nuclei)
Quadrupole couplings                    ...  NO (   0 nuclei)
Contact density                         ...  NO (   0 nuclei)

NMR properties:
Chemical shifts                         ...  NO (   0 nuclei)
Spin-rotation constants                 ...  NO (   0 nuclei)
Spin-spin couplings                     ...  NO (   0 nuclei,    0 pairs)

Choice of magnetic origin               ... GIAO
Position of magnetic origin             ...     0.000000     0.000000     0.000000

Properties with geometric perturbations:
SCF Hessian                             ...  NO
IR spectrum                             ...  NO
VCD spectrum                            ...  NO
X-ray spectroscopy properties:
SCF XES/XAS/RIXS spectra                ...  NO


-------------
DIPOLE MOMENT
-------------

Method             : SCF
Type of density    : Electron Density
Multiplicity       :   1
Irrep              :   0
Energy             :  -307.0809303817852651 Eh
Relativity type    : 
Basis              : AO
                                X                 Y                 Z
Electronic contribution:      2.591139113      -1.579914811       1.677543119
Nuclear contribution   :     -2.451990569       2.199789801      -1.823143446
                        -----------------------------------------
Total Dipole Moment    :      0.139148544       0.619874990      -0.145600327
                        -----------------------------------------
Magnitude (a.u.)       :      0.651772027
Magnitude (Debye)      :      1.656672836



--------------------
Rotational spectrum 
--------------------
 
Rotational constants in cm-1:             0.247358             0.076481             0.067002 
Rotational constants in MHz :          7415.597872          2292.838258          2008.662250 

Dipole components along the rotational axes: 
x,y,z [a.u.] :     0.102923     0.643525     0.009470 
x,y,z [Debye]:     0.261610     1.635710     0.024070 

 

Dipole moment calculation done in   0.0 sec 

Maximum memory used throughout the entire PROP-calculation: 6.3 MB

--------------------------------
SUGGESTED CITATIONS FOR THIS RUN
--------------------------------

Below you find a list of papers that are relevant to this ORCA run
We neither can nor want to force you to cite these papers, but we appreciate if you do
You receive ORCA, which is the product of decades of hard work by many enthusiastic individuals, for free
The only thing we kindly ask in return is that you cite our papers,
We deeply appreciate it, if you show your appreciation for ORCA by not just citing the generic ORCA reference.

Please note that relegating all ORCA citations to the supporting information does *not* help us.
SI sections are not indexed - citations you put there will not count into any citation statistics
But we need these citations in order to attract the funding resources that allow us to do what we are doing

Therefore, if you are a happy ORCA user, please consider citing a few of the papers listed below in the main body of your paper

In addition to the list printed below, the program has created the file sp.bibtex that contains the list in bibtex format
You can import this file easily into all common literature databanks and citation aid programs


List of essential papers. We consider these as the minimum necessary citations

  1. Neese,F.
     Software update: the ORCA program system, version 5.0
     WIRES Comput. Molec. Sci., 2022 12(1)e1606
     doi.org/10.1002/wcms.1606

List of papers to cite with high priority. The work reported in these papers was absolutely
necessary for this run to complete.
Our perspective: the developers of density functionals and basis sets usually get cited in chemistry papers
Good! But without the algorithms to do something with them, the functionals or basis sets would not do anything.
Hence, in our opinion, the algorithm design and method developments papers are equally worthy of getting cited

  1. Neese,F.
     An improvement of the resolution of the identity approximation for the formation of the Coulomb matrix
     J. Comp. Chem., 2003 24(14)1740-1747
     doi.org/10.1002/jcc.10318
  2. Neese,F.
     The SHARK Integral Generation and Digestion System
     J. Comp. Chem., 2022  1-16
     doi.org/10.1002/jcc.26942
  3. Caldeweyher,E.; Bannwarth,C.; Grimme,S.
     Extension of the D3 dispersion coefficient model
     J. Chem. Phys., 2017 147 034112
     doi.org/10.1063/1.4993215
  4. Caldeweyher,E.; Ehlert,S.; Hansen,A.; Neugebauer,H.; Spicher,S.; Bannwarth,C.; Grimme,S.
     A generally applicable atomic-charge dependent London dispersion correction
     J. Chem. Phys., 2019 150 154122
     doi.org/10.1063/1.5090222
  5. Caldeweyher,E.; Mewes,J.; Ehlert,S.; Grimme,S.
     Extension and evaluation of the D4 London-dispersion model for periodic systems
     Phys. Chem. Chem. Phys., 2020 22(16)8499-8512
     doi.org/10.1039/D0CP00502A
  6. Wittmann,L.; Gordiy,I.; Friede,M.; Helmich-Paris,B.; Grimme,S.; Hansen,A.; Bursch,M.
     Extension of the D3 and D4 London Dispersion Corrections to the full Actinides Series
     Phys. Chem. Chem. Phys., 2024 26(32)21379-21394
     doi.org/https://doi.org/10.1039/D4CP01514B 

List of suggested additional citations. These are papers that are important in the 'surrounding' of 
of this run, or papers that preceded the highly important papers. If you like your results we are grateful for a citation.

  1. Neese,F.
     The ORCA program system
     WIRES Comput. Molec. Sci., 2012 2(1)73-78
     doi.org/10.1002/wcms.81
  2. Neese,F.
     Software update: the ORCA program system, version 4.0
     WIRES Comput. Molec. Sci., 2018 8(1)1-6
     doi.org/10.1002/wcms.1327
  3. Neese,F.; Wennmohs,F.; Becker,U.; Riplinger,C.
     The ORCA quantum chemistry program package
     J. Chem. Phys., 2020 152 Art. No. L224108
     doi.org/10.1063/5.0004608

List of optional additional citations

  1. Neese,F.
     Approximate second-order SCF convergence for spin unrestricted wavefunctions
     Chem. Phys. Lett., 2000 325(1-3)93-98
     doi.org/10.1016/s0009-2614(00)00662-x

Timings for individual modules:

Sum of individual times          ...        1.190 sec (=   0.020 min)
Startup calculation              ...        0.297 sec (=   0.005 min)  25.0 %
SCF iterations                   ...        0.844 sec (=   0.014 min)  70.9 %
Property calculations            ...        0.049 sec (=   0.001 min)   4.1 %
                             ****ORCA TERMINATED NORMALLY****
TOTAL RUN TIME: 0 days 0 hours 0 minutes 1 seconds 365 msec
