      -----------------------------------------------------------      
     |                   =====================                   |     
     |                           x T B                           |     
     |                   =====================                   |     
     |                         S. Grimme                         |     
     |          Mulliken Center for Theoretical Chemistry        |     
     |                    University of Bonn                     |     
      -----------------------------------------------------------      

   * xtb version 6.7.1 (41059b4) compiled by 'michael@archlinux' on 2025-03-24

   xtb is free software: you can redistribute it and/or modify it under
   the terms of the GNU Lesser General Public License as published by
   the Free Software Foundation, either version 3 of the License, or
   (at your option) any later version.
   
   xtb is distributed in the hope that it will be useful,
   but WITHOUT ANY WARRANTY; without even the implied warranty of
   MERCHANTABILITY or FITNESS FOR A PARTICULAR PURPOSE.  See the
   GNU Lesser General Public License for more details.
   
   Cite this work as:
   * C. Bannwarth, E. Caldeweyher, S. Ehlert, A. Hansen, P. Pracht,
     J. Seibert, S. Spicher, S. Grimme, WIREs Comput. Mol. Sci., 2020, 11,
     e01493. DOI: 10.1002/wcms.1493
   
   for GFN2-xTB:
   * C. Bannwarth, S. Ehlert and S. Grimme., J. Chem. Theory Comput., 2019,
     15, 1652-1671. DOI: 10.1021/acs.jctc.8b01176
   for GFN1-xTB:
   * S. Grimme, C. Bannwarth, P. Shushkov, J. Chem. Theory Comput., 2017,
     13, 1989-2009. DOI: 10.1021/acs.jctc.7b00118
   for GFN0-xTB:
   * P. Pracht, E. Caldeweyher, S. Ehlert, S. Grimme, ChemRxiv, 2019, preprint.
     DOI: 10.26434/chemrxiv.8326202.v1
   for GFN-FF:
   * S. Spicher and S. Grimme, Angew. Chem. Int. Ed., 2020, 59, 15665-15673.
     DOI: 10.1002/anie.202004239
   
   for ALPB and GBSA implicit solvation:
   * S. Ehlert, M. Stahn, S. Spicher, S. Grimme, J. Chem. Theory Comput.,
     2021, 17, 4250-4261. DOI: 10.1021/acs.jctc.1c00471
   
   for ddCOSMO and CPCM-X implicit solvation:
   * M. Stahn, S. Ehlert, S. Grimme, J. Phys. Chem. A,
     2023, XX, XXXX-XXXX. DOI: 10.1021/acs.jpca.3c04382
   
   for DFT-D4:
   * E. Caldeweyher, C. Bannwarth and S. Grimme, J. Chem. Phys., 2017,
     147, 034112. DOI: 10.1063/1.4993215
   * E. Caldeweyher, S. Ehlert, A. Hansen, H. Neugebauer, S. Spicher,
     C. Bannwarth and S. Grimme, J. Chem. Phys., 2019, 150, 154122.
     DOI: 10.1063/1.5090222
   * E. Caldeweyher, J.-M. Mewes, S. Ehlert and S. Grimme, Phys. Chem. Chem. Phys.
     2020, 22, 8499-8512. DOI: 10.1039/D0CP00502A
   
   for sTDA-xTB:
   * S. Grimme and C. Bannwarth, J. Chem. Phys., 2016, 145, 054103.
     DOI: 10.1063/1.4959605
   
   in the mass-spec context:
   * V. Asgeirsson, C. Bauer and S. Grimme, Chem. Sci., 2017, 8, 4879.
     DOI: 10.1039/c7sc00601b
   * J. Koopman and S. Grimme, ACS Omega 2019, 4, 12, 15120-15133.
     DOI: 10.1021/acsomega.9b02011
   
   for metadynamics refer to:
   * S. Grimme, J. Chem. Theory Comput., 2019, 155, 2847-2862
     DOI: 10.1021/acs.jctc.9b00143
   
   for SPH calculations refer to:
   * S. Spicher and S. Grimme, J. Chem. Theory Comput., 2021, 17, 1701-1714
     DOI: 10.1021/acs.jctc.0c01306
   
   for ONIOM refer to:
   * C. Plett, A. Katbashev, S. Ehlert, S. Grimme, M. Bursch,
     Phys. Chem. Chem. Phys., 2023, 25, 17860-17868. DOI: 10.1039/D3CP02178E
   
   for DIPRO refer to:
   * J. Kohn, N. Gildemeister, S. Grimme, D. Fazzi, A. Hansen,
     J. Chem. Phys., 2023, just accepted.
   
   for PTB refer to:
   * S. Grimme, M. Mueller, A. Hansen, J. Chem. Phys., 2023, 158, 124111.
     DOI: 10.1063/5.0137838
   
   with help from (in alphabetical order)
   P. Atkinson, C. Bannwarth, F. Bohle, G. Brandenburg, E. Caldeweyher
   M. Checinski, S. Dohm, S. Ehlert, S. Ehrlich, I. Gerasimov, C. Hölzer
   A. Katbashev, J. Kohn, J. Koopman, C. Lavigne, S. Lehtola, F. März, M. Müller,
   F. Musil, H. Neugebauer, J. Pisarek, C. Plett, P. Pracht, F. Pultar,
   J. Seibert, P. Shushkov, S. Spicher, M. Stahn, M. Steiner, T. Strunk,
   J. Stückrath, T. Rose, and J. Unsleber
   
 * started run on 2025/04/08 at 22:35:00.173     
   ID    Z sym.   atoms
    1    6 C      1-3, 6
    2    8 O      4, 5
    3    1 H      7-14

           -------------------------------------------------
          |                Calculation Setup                |
           -------------------------------------------------

          program call               : /usr/bin/xtb xtb_opt.coord --opt normal --orca -I xtb_opt-xcontrol-inp
          coordinate file            : xtb_opt.coord
          omp threads                :                    16

           -------------------------------------------------
          |                   Orca driver                   |
           -------------------------------------------------
orca executable           : /home/michael/Documents/CHEM4561/orca_avx2/orca
orca input file           : xtb_opt.inp
orca input line           : 
orca parallel             : true
orca number of threads    : 16
                         * ORCA takes the control...
  ------------------------------------------------------------------------

                                 *****************
                                 * O   R   C   A *
                                 *****************

                                            #,                                       
                                            ###                                      
                                            ####                                     
                                            #####                                    
                                            ######                                   
                                           ########,                                 
                                     ,,################,,,,,                         
                               ,,#################################,,                 
                          ,,##########################################,,             
                       ,#########################################, ''#####,          
                    ,#############################################,,   '####,        
                  ,##################################################,,,,####,       
                ,###########''''           ''''###############################       
              ,#####''   ,,,,##########,,,,          '''####'''          '####       
            ,##' ,,,,###########################,,,                        '##       
           ' ,,###''''                  '''############,,,                           
         ,,##''                                '''############,,,,        ,,,,,,###''
      ,#''                                            '''#######################'''  
     '                                                          ''''####''''         
             ,#######,   #######,   ,#######,      ##                                
            ,#'     '#,  ##    ##  ,#'     '#,    #''#        ,####,   ,####,        
            ##       ##  ##   ,#'  ##            #'  '#       #'       #'  '#        
            ##       ##  #######   ##           ,######,      #####,   #    #        
            '#,     ,#'  ##    ##  '#,     ,#' ,#      #,     #,   #   #,  ,#        
             '#######'   ##     ##  '#######'  #'      '#     '####' # '####'        



                #########################################################
                #                        -***-                          #
                #          Department of theory and spectroscopy        #
                #                                                       #
                #                      Frank Neese                      #
                #                                                       #
                #     Directorship, Architecture, Infrastructure        #
                #                    SHARK, DRIVERS                     #
                #        Core code/Algorithms in most modules           #
                #                                                       #
                #        Max Planck Institute fuer Kohlenforschung      #
                #                Kaiser Wilhelm Platz 1                 #
                #                 D-45470 Muelheim/Ruhr                 #
                #                      Germany                          #
                #                                                       #
                #                  All rights reserved                  #
                #                        -***-                          #
                #########################################################


                         Program Version 6.0.1  -  RELEASE   -


 With contributions from (in alphabetic order):
[Max-Planck-Institut fuer Kohlenforschung]                               
  Daniel Aravena         : Magnetic Suceptibility                        
  Michael Atanasov       : Ab Initio Ligand Field Theory (pilot matlab implementation)
  Alexander A. Auer      : GIAO ZORA, VPT2 properties, NMR spectrum      
  Ute Becker             : All parallelization in ORCA, NUMFREQ, NUMCALC 
  Giovanni Bistoni       : ED, misc. LED, open-shell LED, HFLD           
  Martin Brehm           : Molecular dynamics                            
  Dmytro Bykov           : pre 5.0 version of the SCF Hessian            
  Marcos Casanova-Páez   : Triplet and SCS-CIS(D). UHF-(DLPNO)-IP/EA/STEOM-CCSD. UHF-CVS-IP/STEOM-CCSD   
  Vijay G. Chilkuri      : MRCI spin determinant printing, contributions to CSF-ICE 
  Pauline Colinet        : FMM embedding                                 
  Dipayan Datta          : RHF DLPNO-CCSD density                        
  Achintya Kumar Dutta   : EOM-CC, STEOM-CC                              
  Nicolas Foglia         : Exact transition moments, OPA infrastructure, MCD improvements    
  Dmitry Ganyushin       : Spin-Orbit,Spin-Spin,Magnetic field MRCI      
  Miquel Garcia-Rates    : C-PCM and meta-GGA Hessian, CCSD/C-PCM, Gaussian charge scheme 
  Tiago L. C. Gouveia    : GS-ROHF, GS-ROCIS                             
  Yang Guo               : DLPNO-NEVPT2, F12-NEVPT2, CIM, IAO-localization        
  Andreas Hansen         : Spin unrestricted coupled pair/coupled cluster methods 
  Ingolf Harden          : AUTO-CI MPn and infrastructure                
  Benjamin Helmich-Paris : MC-RPA, TRAH-(SCF,CASSCF), AVAS, COSX integrals, SCF dyn. polar. 
  Lee Huntington         : MR-EOM, pCC                                   
  Robert Izsak           : Overlap fitted RIJCOSX, COSX-SCS-MP3, EOM     
  Riya Kayal             : Wick's Theorem for AUTO-CI, AUTO-CI UHF-CCSDT 
  Emily Kempfer          : AUTO-CI, RHF CISDT and CCSDT                  
  Christian Kollmar      : KDIIS, OOCD, Brueckner-CCSD(T), CCSD density, CASPT2, CASPT2-K, improved NEVPT2 
  Axel Koslowski         : Symmetry handling                             
  Simone Kossmann        : meta-GGA functionals, TD-DFT gradient, OOMP2, (MP2 Hessian; deprecated post 5.0) 
  Lucas Lang             : DCDCAS                                        
  Marvin Lechner         : AUTO-CI (C++ implementation), FIC-MRCC        
  Spencer Leger          : CASSCF response                               
  Dagmar Lenk            : GEPOL surface, SMD, ORCA-2-JSON               
  Dimitrios Liakos       : Extrapolation schemes; Compound Job, initial MDCI parallelization 
  Dimitrios Manganas     : Further ROCIS development; embedding schemes. LFT, Crystal Embedding 
  Dimitrios Pantazis     : SARC Basis sets                               
  Anastasios Papadopoulos: AUTO-CI, single reference methods and gradients 
  Taras Petrenko         : pre 6.0 DFT Hessian and TD-DFT gradient, (ASA, deprecated), ECA, 1-Electron XAS/XES, NRVS 
  Peter Pinski           : DLPNO-MP2, DLPNO-MP2 Gradient                 
  Christoph Reimann      : Effective Core Potentials                     
  Marius Retegan         : Local ZFS, SOC                                
  Christoph Riplinger    : Optimizer, TS searches, QM/MM, DLPNO-CCSD(T), (RO)-DLPNO pert. Triples 
  Michael Roemelt        : Original ROCIS implementation                 
  Masaaki Saitow         : Open-shell DLPNO-CCSD energy and density      
  Barbara Sandhoefer     : DKH picture change effects                    
  Kantharuban Sivalingam : CASSCF convergence/infrastructure, NEVPT2 and variants, FIC-MRCI 
  Bernardo de Souza      : ESD, SOC TD-DFT                               
  Georgi L. Stoychev     : AutoAux, RI-MP2 NMR, DLPNO-MP2 response, X2C  
  Van Anh Tran           : RI-MP2 g-tensors                              
  Willem Van den Heuvel  : Paramagnetic NMR                              
  Zikuan Wang            : NOTCH, Electric field optimization            
  Frank Wennmohs         : Technical directorship and infrastructure     
  Hang Xu                : AUTO-CI-Response properties                   
                                                                         
[FACCTs GmbH]                                                            
  Markus Bursch, Miquel Garcia-Rates, Christoph Riplinger, Bernardo de Souza, Georgi L. Stoychev 
                                                                 
  APM, Basis sets (HGBS, AHGBS, def-TZVP (Ac-Lr), def2-XVPD (La-Lu)), CI-OPT, improved COSX, DLPNO-Multilevel,           
  DOCKER, DRACO, updates on ESD, GOAT, IRC, LR-CPCM, MBIS, meta-GGA TD-DFT gradient, ML-optimized integration grids, 
  MM, NACMEs, nearIR, NEB, NEB-TS, NL-DFT gradient (VV10), 2- and 3-layer-ONIOM, interface openCOSMO-RS, QMMM,   
  Crystal-QMMM, SF, symmetry and pop. for TD-DFT, r2SCAN hybrids, SOLVATOR                                   
                                                                         
[Other institutions]                                                     
  V. Asgeirsson          : NEB                                           
  Christoph Bannwarth    : sTDA-DFT, sTD-DFT, PBEh-3c, B97-3c, D3        
  Sebastian Ehlert       : rSCAN, r2SCAN, r2SCAN-3c, D4, dhf basis sets  
  Marvin Friede          : D4 for Fr, Ra, Ac-Lr                          
  Lars Goerigk           : TD-DFT with DH, B97 family of functionals     
  Stefan Grimme          : VdW corrections, initial TS optimization, DFT functionals, gCP, sTDA/sTD-DF 
  Waldemar Hujo          : DFT-NL                                        
  H. Jonsson             : NEB                                           
  Holger Kruse           : gCP                                           
  Marcel Mueller         : wB97X-3c, vDZP basis set                      
  Hagen Neugebauer       : wr2SCAN                                       
  Tobias Risthaus        : range-separated hybrid DFT                    
  Lukas Wittmann         : regularized MP2, r2SCAN double-hybrids, wr2SCAN        
                                                                         
We gratefully acknowledge several colleagues who have allowed us to      
interface, adapt or use parts of their codes:                            
  Ed Valeev, F. Pavosevic, A. Kumar             : LibInt (2-el integral package), F12 methods 
  Garnet Chan, S. Sharma, J. Yang, R. Olivares  : DMRG                   
  Ulf Ekstrom                                   : XCFun DFT Library      
  Mihaly Kallay                                 : mrcc  (arbitrary order and MRCC methods)
  Frank Weinhold                                : gennbo (NPA and NBO analysis)           
  Simon Mueller                                 : openCOSMO-RS                            
  Christopher J. Cramer and Donald G. Truhlar   : smd solvation model                     
  S Lehtola, MJT Oliveira, MAL Marques          : LibXC Library                           
  Liviu Ungur et al                             : ANISO software                          


 Your calculation uses the libint2 library for the computation of 2-el integrals
 For citations please refer to: http://libint.valeyev.net

 Your ORCA version has been built with support for libXC version: 6.2.2
 For citations please refer to: https://libxc.gitlab.io

 This ORCA versions uses:
   CBLAS   interface :  Fast vector & matrix operations
   LAPACKE interface :  Fast linear algebra routines
   SCALAPACK package :  Parallel linear algebra routines
   Shared memory     :  Shared parallel matrices
   BLAS/LAPACK       :  OpenBLAS 0.3.27  USE64BITINT DYNAMIC_ARCH NO_AFFINITY Zen SINGLE_THREADED
        Core in use  :  Zen
   Copyright (c) 2011-2014, The OpenBLAS Project




***************************************
The coordinates will be read from file: xtb_opt.xyz
***************************************


Your calculation utilizes the geometrical counterpoise correction gCP
Please cite in your paper:
H.Kruse, S. Grimme J.Chem.Phys., 136, (2012), 154101 
   

Your calculation utilizes the atom-pairwise dispersion correction
based on EEQ partial charges (D4)


================================================================================

----- Orbital basis set information -----
Your calculation utilizes the basis: def2-mTZVPP
   Stefan Grimme, Andreas Hansen, Sebastian Ehlert, and Jan-Michael Mewes 
   J. Chem. Phys. 154, 064103 (2021). DOI: 10.1063/5.0040021

----- AuxJ basis set information -----
Your calculation utilizes the auxiliary basis: def2/J
   F. Weigend, Phys. Chem. Chem. Phys. 8, 1057 (2006).

================================================================================
                                        WARNINGS
                       Please study these warnings very carefully!
================================================================================

WARNING: Old DensityContainer found on disk!
         Will remove this file - 
         If you want to keep old densities, please start your calculation with a different basename. 



WARNING: SCAN, rSCAN, or r2SCAN functional requested.
  ===> : libXC variant has now been activated.



================================================================================
                                       INPUT FILE
================================================================================
NAME = xtb_opt.inp
|  1> ! r2scan-3c def2/J RI DEFGRID2 scfconv7 ENGRAD tightSCF miniprint
|  2> * xyzfile 0 1 xtb_opt.xyz
|  3> 
|  4>                          ****END OF INPUT****
================================================================================

                     *******************************
                     * Energy+Gradient Calculation *
                     *******************************

---------------------------------
CARTESIAN COORDINATES (ANGSTROEM)
---------------------------------
  C     -2.476929    0.109554    0.414711
  C     -1.235676    0.670498   -0.264054
  C      0.034721    0.006962    0.212042
  O      0.097020   -0.962620    0.933666
  O      1.122677    0.631112   -0.303172
  C      2.388771    0.025298    0.050120
  H     -2.549339   -0.971538    0.266199
  H     -2.448349    0.291078    1.493383
  H     -3.376349    0.579713    0.008625
  H     -1.136575    1.750570   -0.107059
  H     -1.279330    0.535365   -1.351744
  H      2.515704    0.015942    1.137704
  H      3.148867    0.648479   -0.425382
  H      2.434031   -1.001971   -0.327030

----------------------------
CARTESIAN COORDINATES (A.U.)
----------------------------
  NO LB      ZA    FRAG     MASS         X           Y           Z
   0 C     6.0000    0    12.011   -4.680718    0.207028    0.783691
   1 C     6.0000    0    12.011   -2.335089    1.267058   -0.498990
   2 C     6.0000    0    12.011    0.065614    0.013156    0.400701
   3 O     8.0000    0    15.999    0.183342   -1.819088    1.764372
   4 O     8.0000    0    15.999    2.121552    1.192628   -0.572912
   5 C     6.0000    0    12.011    4.514122    0.047807    0.094714
   6 H     1.0000    0     1.008   -4.817552   -1.835941    0.503044
   7 H     1.0000    0     1.008   -4.626710    0.550058    2.822084
   8 H     1.0000    0     1.008   -6.380376    1.095498    0.016299
   9 H     1.0000    0     1.008   -2.147815    3.308098   -0.202311
  10 H     1.0000    0     1.008   -2.417584    1.011693   -2.554426
  11 H     1.0000    0     1.008    4.753992    0.030126    2.149949
  12 H     1.0000    0     1.008    5.950496    1.225447   -0.803856
  13 H     1.0000    0     1.008    4.599652   -1.893451   -0.617997

------------------------------------------------------------------------------
                   ___                                                        
                  /   \      - P O W E R E D   B Y -                         
                 /     \                                                     
                 |  |  |   _    _      __       _____    __    __             
                 |  |  |  | |  | |    /  \     |  _  \  |  |  /  |          
                  \  \/   | |  | |   /    \    | | | |  |  | /  /          
                 / \  \   | |__| |  /  /\  \   | |_| |  |  |/  /          
                |  |  |   |  __  | /  /__\  \  |    /   |      \           
                |  |  |   | |  | | |   __   |  |    \   |  |\   \          
                \     /   | |  | | |  |  |  |  | |\  \  |  | \   \       
                 \___/    |_|  |_| |__|  |__|  |_| \__\ |__|  \__/        
                                                                              
                      - O R C A' S   B I G   F R I E N D -                    
                                      &                                       
                       - I N T E G R A L  F E E D E R -                       
                                                                              
 v1 FN, 2020, v2 2021, v3 2022-2024                                           
------------------------------------------------------------------------------


----------------------
SHARK INTEGRAL PACKAGE
----------------------

Number of atoms                             ...     14
Number of basis functions                   ...    164
Number of shells                            ...     80
Maximum angular momentum                    ...      2
Integral batch strategy                     ... SHARK/LIBINT Hybrid
RI-J (if used) integral strategy            ... SPLIT-RIJ (Revised 2003 algorithm where possible)
Printlevel                                  ...      1
Contraction scheme used                     ... SEGMENTED contraction
Prescreening option                         ... SCHWARTZ
   Thresh                                   ... 3.000e-11
   Tcut                                     ... 1.000e-12
   Tpresel                                  ... 1.000e-12 
Coulomb Range Separation                    ... NOT USED
Exchange Range Separation                   ... NOT USED
Multipole approximations                    ... NOT USED
Finite Nucleus Model                        ... NOT USED
CABS basis                                  ... NOT available
Auxiliary Coulomb fitting basis             ... AVAILABLE
   # of basis functions in Aux-J            ...    382
   # of shells in Aux-J                     ...    130
   Maximum angular momentum in Aux-J        ...      4
Auxiliary J/K fitting basis                 ... NOT available
Auxiliary Correlation fitting basis         ... NOT available
Auxiliary 'external' fitting basis          ... NOT available

Checking pre-screening integrals            ... done (  0.0 sec) Dimension = 80
Check shell pair data                       ... done (  0.0 sec)
Shell pair information
Shell pair cut-off parameter TPreSel        ...   1.0e-12
Total number of shell pairs                 ...      3240
Shell pairs after pre-screening             ...      2996
Total number of primitive shell pairs       ...     11481
Primitive shell pairs kept                  ...      7900
          la=0 lb=0:    976 shell pairs
          la=1 lb=0:   1108 shell pairs
          la=1 lb=1:    326 shell pairs
          la=2 lb=0:    351 shell pairs
          la=2 lb=1:    199 shell pairs
          la=2 lb=2:     36 shell pairs

Calculating one electron integrals          ... done (  0.0 sec)
Calculating RI/J V-Matrix + Cholesky decomp.... done (  0.0 sec)
Calculating Nuclear repulsion               ... done (  0.0 sec) ENN=    244.765382358999 Eh

Diagonalization of the overlap matrix:
Smallest eigenvalue                        ... 1.848e-04
Time for diagonalization                   ...    0.002 sec
Threshold for overlap eigenvalues          ... 1.000e-07
Number of eigenvalues below threshold      ... 0
Time for construction of square roots      ...    0.001 sec
Total time needed                          ...    0.004 sec

-------------------
DFT GRID GENERATION
-------------------

General Integration Accuracy     IntAcc      ... 4.388
Radial Grid Type                 RadialGrid  ... OptM3 with GC (2021)
Angular Grid (max. ang.)         AngularGrid ... 4 (Lebedev-302)
Angular grid pruning method      GridPruning ... 4 (adaptive)
Weight generation scheme         WeightScheme... mBecke (2022)
Basis function cutoff            BFCut       ... 1.0000e-11
Integration weight cutoff        WCut        ... 1.0000e-14
Partially contracted basis set               ... off
Rotationally invariant grid construction     ... off
Angular grids for H and He will be reduced by one unit
Diffuse basis detected: some atoms will have their outermost
                        angular grid increased by 1.

Total number of grid points                  ...    62808
Total number of batches                      ...      990
Average number of points per batch           ...       63
Average number of grid points per atom       ...     4486
Initializing property integral containers    ... done (  0.0 sec)

SHARK setup successfully completed in   0.4 seconds

Maximum memory used throughout the entire STARTUP-calculation: 28.5 MB
Occupation numbers will be reassigned to an Aufbau configuration
             **** ENERGY FILE WAS UPDATED (xtb_opt.en.tmp) ****
Finished Guess after   0.0 sec
Maximum memory used throughout the entire GUESS-calculation: 11.6 MB
----------------------------------------D-I-I-S--------------------------------------------
Iteration    Energy (Eh)           Delta-E    RMSDP     MaxDP     DIISErr   Damp  Time(sec)
-------------------------------------------------------------------------------------------
               ***  Starting incremental Fock matrix formation  ***
                              *** Initializing SOSCF ***
---------------------------------------S-O-S-C-F--------------------------------------
Iteration    Energy (Eh)           Delta-E    RMSDP     MaxDP     MaxGrad    Time(sec)
--------------------------------------------------------------------------------------
    1    -307.6407254499756618     0.00e+00  1.95e-06  4.79e-05  6.63e-06     0.8
               *** Restarting incremental Fock matrix formation ***
    2    -307.6407254499924875    -1.68e-11  2.91e-06  7.35e-05  1.98e-05     0.9
                  *** Gradient check signals convergence ***

               *****************************************************
               *                     SUCCESS                       *
               *           SCF CONVERGED AFTER   2 CYCLES          *
               *****************************************************

             **** ENERGY FILE WAS UPDATED (xtb_opt.en.tmp) ****

----------------
TOTAL SCF ENERGY
----------------

Total Energy       :       -307.64072544999249 Eh           -8371.32973 eV

Components:
Nuclear Repulsion  :        244.76538235899883 Eh            6660.40466 eV
Electronic Energy  :       -552.40610780899135 Eh          -15031.73439 eV
One Electron Energy:       -903.09262524036058 Eh          -24574.39967 eV
Two Electron Energy:        350.68651743136923 Eh            9542.66528 eV

Virial components:
Potential Energy   :       -613.90802411601726 Eh          -16705.28662 eV
Kinetic Energy     :        306.26729866602477 Eh            8333.95689 eV
Virial Ratio       :          2.00448440558280

DFT components:
N(Alpha)           :       24.000003711764 electrons
N(Beta)            :       24.000003711764 electrons
N(Total)           :       48.000007423528 electrons
E(X)               :      -40.195370504774 Eh       
E(C)               :       -1.536653620626 Eh       
E(XC)              :      -41.732024125400 Eh       

---------------
SCF CONVERGENCE
---------------

  Last Energy change         ...    1.6826e-11  Tolerance :   1.0000e-07
  Last MAX-Density change    ...    7.3497e-05  Tolerance :   1.0000e-07
  Last RMS-Density change    ...    2.9088e-06  Tolerance :   5.0000e-09
  Last DIIS Error            ...    5.5832e-05  Tolerance :   1.0000e-07
  Last Orbital Gradient      ...    1.9849e-05  Tolerance :   1.0000e-04
  Last Orbital Rotation      ...    5.8401e-05  Tolerance :   1.0000e-04


----------------
ORBITAL ENERGIES
----------------

  NO   OCC          E(Eh)            E(eV) 
   0   2.0000     -18.997976      -516.9612 
   1   2.0000     -18.936151      -515.2789 
   2   2.0000     -10.155565      -276.3470 
   3   2.0000     -10.087356      -274.4909 
   4   2.0000     -10.048617      -273.4368 
   5   2.0000     -10.025876      -272.8180 
   6   2.0000      -1.064451       -28.9652 
   7   2.0000      -0.978782       -26.6340 
   8   2.0000      -0.756432       -20.5836 
   9   2.0000      -0.690331       -18.7849 
  10   2.0000      -0.609595       -16.5879 
  11   2.0000      -0.524466       -14.2715 
  12   2.0000      -0.470500       -12.8030 
  13   2.0000      -0.457471       -12.4484 
  14   2.0000      -0.438856       -11.9419 
  15   2.0000      -0.417815       -11.3693 
  16   2.0000      -0.396915       -10.8006 
  17   2.0000      -0.357846        -9.7375 
  18   2.0000      -0.348512        -9.4835 
  19   2.0000      -0.342494        -9.3197 
  20   2.0000      -0.322683        -8.7807 
  21   2.0000      -0.317829        -8.6486 
  22   2.0000      -0.275245        -7.4898 
  23   2.0000      -0.242009        -6.5854 
  24   0.0000      -0.017971        -0.4890 
  25   0.0000       0.064880         1.7655 
  26   0.0000       0.085143         2.3169 
  27   0.0000       0.114776         3.1232 
  28   0.0000       0.132727         3.6117 
  29   0.0000       0.151261         4.1160 
  30   0.0000       0.155002         4.2178 
  31   0.0000       0.166274         4.5246 
  32   0.0000       0.183330         4.9887 
  33   0.0000       0.184945         5.0326 
  34   0.0000       0.191332         5.2064 
*Only the first 10 virtual orbitals were printed.
Total SCF time: 0 days 0 hours 0 min 1 sec 
Finished LeanSCF after   1.8 sec

Maximum memory used throughout the entire LEANSCF-calculation: 17.4 MB


-------------------------------------------------------------------------------
                          DFT DISPERSION CORRECTION                            
                                                                               
                                DFTD4 V3.4.0                                   
-------------------------------------------------------------------------------
-------------------------   ----------------
Dispersion correction           -0.002939645
-------------------------   ----------------

------------------   -----------------
gCP correction             0.009172797
------------------   -----------------

-------------------------   --------------------
FINAL SINGLE POINT ENERGY      -307.634492298205
-------------------------   --------------------

------------------------------------------------------------------------------
                         ORCA SCF GRADIENT CALCULATION
------------------------------------------------------------------------------

Nuc. rep. gradient        (SHARK) ... done (  0.0 sec)
HCore & Overlap gradient  (SHARK) ... done (  0.1 sec)
Split-RIJ-J gradient      (SHARK) ... done (  0.6 sec)
XC gradient                       ... done (  3.4 sec)
Dispersion correction             ... done (  0.0 sec)

-------------------
DISPERSION GRADIENT
-------------------

   1   C   :   -0.000060496   -0.000000426    0.000006996
   2   C   :   -0.000044631    0.000019450   -0.000014364
   3   C   :    0.000015171   -0.000002344   -0.000000008
   4   O   :    0.000011851   -0.000036560    0.000025601
   5   O   :    0.000046788    0.000009183   -0.000010398
   6   C   :    0.000063362   -0.000008277    0.000002297
   7   H   :   -0.000022695   -0.000006686    0.000002503
   8   H   :   -0.000023404    0.000000518    0.000009483
   9   H   :   -0.000025014    0.000003011   -0.000000125
  10   H   :   -0.000015595    0.000017410   -0.000004060
  11   H   :   -0.000017035    0.000006184   -0.000015005
  12   H   :    0.000023437   -0.000000974    0.000002131
  13   H   :    0.000024734    0.000003121   -0.000003514
  14   H   :    0.000023526   -0.000003610   -0.000001537

Difference to translation invariance:
           :    0.0000000000    0.0000000000   -0.0000000000

Difference to rotation invariance:
           :   -0.0000000000    0.0000000000   -0.0000000000

Norm of the Dispersion gradient    ...    0.0001408418
RMS gradient                       ...    0.0000217324
MAX gradient                       ...    0.0000633621
gCP correction                   ... done

------------------
CARTESIAN GRADIENT
------------------

   1   C   :    0.000321942    0.000504742   -0.000665090
   2   C   :   -0.000379553   -0.000144813   -0.000897356
   3   C   :    0.000480439    0.002162417   -0.000091006
   4   O   :   -0.000367012   -0.002502893    0.001302215
   5   O   :   -0.001501133    0.001618670   -0.001050374
   6   C   :    0.001079300   -0.000935648    0.000247203
   7   H   :   -0.000182351   -0.000927982    0.000071257
   8   H   :   -0.000112051    0.000254600    0.000816962
   9   H   :    0.000132806   -0.000036576   -0.000103068
  10   H   :    0.000052718    0.000037393   -0.000034881
  11   H   :    0.000050901    0.000151606    0.000297906
  12   H   :   -0.000042084    0.000071137    0.001434358
  13   H   :    0.000697471    0.001038464   -0.000685152
  14   H   :   -0.000231391   -0.001291118   -0.000642973

Difference to translation invariance:
           :    0.0000000000   -0.0000000000    0.0000000000

Difference to rotation invariance:
           :    0.0000524219   -0.0001081525    0.0000700103

Norm of the Cartesian gradient     ...    0.0055574633
RMS gradient                       ...    0.0008575352
MAX gradient                       ...    0.0025028925

-------
TIMINGS
-------

Total SCF gradient time     ....        4.109 sec

Densities                   ....       0.000 sec  (  0.0%)
One electron gradient       ....       0.108 sec  (  2.6%)
RI-J Coulomb gradient       ....       0.589 sec  ( 14.3%)
XC gradient                 ....       3.377 sec  ( 82.2%)

Maximum memory used throughout the entire SCFGRAD-calculation: 31.6 MB

------------------------------------------------------------------------------
                              ORCA PROPERTY CALCULATIONS
------------------------------------------------------------------------------

GBWName                                 ... xtb_opt.gbw
Number of atoms                         ...     14
Number of basis functions               ...    164
Max core memory                         ...   1024 MB

Electric properties:
Dipole moment                           ... YES
Quadrupole moment                       ...  NO
Static polarizability (Dipole/Dipole)   ...  NO
Static polarizability (Dipole/Quad.)    ...  NO
Static polarizability (Quad./Quad.)     ...  NO
Static polarizability (Velocity)        ...  NO

Atomic electric properties:
Dipole moment                           ...  NO
Quadrupole moment                       ...  NO
Static polarizability                   ...  NO

Choice of electric origin               ... Center of mass
Position of electric origin             ...     0.028259     0.135453     0.337723

General magnetic properties:
Magnetizability                         ...  NO

EPR properties:
g-Tensor (aka g-matrix)                 ...  NO
Zero-Field splitting spin-orbit         ...  NO
Zero-field splitting spin-spin          ...  NO
Hyperfine couplings                     ...  NO (   0 nuclei)
Quadrupole couplings                    ...  NO (   0 nuclei)
Contact density                         ...  NO (   0 nuclei)

NMR properties:
Chemical shifts                         ...  NO (   0 nuclei)
Spin-rotation constants                 ...  NO (   0 nuclei)
Spin-spin couplings                     ...  NO (   0 nuclei,    0 pairs)

Choice of magnetic origin               ... GIAO
Position of magnetic origin             ...     0.000000     0.000000     0.000000

Properties with geometric perturbations:
SCF Hessian                             ...  NO
IR spectrum                             ...  NO
VCD spectrum                            ...  NO
X-ray spectroscopy properties:
SCF XES/XAS/RIXS spectra                ...  NO


-------------
DIPOLE MOMENT
-------------

Method             : SCF
Type of density    : Electron Density
Multiplicity       :   1
Irrep              :   0
Energy             :  -307.6407254499924875 Eh
Relativity type    : 
Basis              : AO
                                X                 Y                 Z
Electronic contribution:      2.794769058      -0.687116368       0.267706683
Nuclear contribution   :     -2.619590707       1.188410782      -0.685545921
                        -----------------------------------------
Total Dipole Moment    :      0.175178351       0.501294414      -0.417839238
                        -----------------------------------------
Magnitude (a.u.)       :      0.675701986
Magnitude (Debye)      :      1.717497956



--------------------
Rotational spectrum 
--------------------
 
Rotational constants in cm-1:             0.315562             0.071422             0.060263 
Rotational constants in MHz :          9460.325315          2141.190065          1806.645747 

Dipole components along the rotational axes: 
x,y,z [a.u.] :     0.187614     0.648964    -0.014803 
x,y,z [Debye]:     0.476878     1.649537    -0.037626 

 

Dipole moment calculation done in   0.0 sec 

Maximum memory used throughout the entire PROP-calculation: 9.9 MB

--------------------------------
SUGGESTED CITATIONS FOR THIS RUN
--------------------------------

Below you find a list of papers that are relevant to this ORCA run
We neither can nor want to force you to cite these papers, but we appreciate if you do
You receive ORCA, which is the product of decades of hard work by many enthusiastic individuals, for free
The only thing we kindly ask in return is that you cite our papers,
We deeply appreciate it, if you show your appreciation for ORCA by not just citing the generic ORCA reference.

Please note that relegating all ORCA citations to the supporting information does *not* help us.
SI sections are not indexed - citations you put there will not count into any citation statistics
But we need these citations in order to attract the funding resources that allow us to do what we are doing

Therefore, if you are a happy ORCA user, please consider citing a few of the papers listed below in the main body of your paper

In addition to the list printed below, the program has created the file xtb_opt.bibtex that contains the list in bibtex format
You can import this file easily into all common literature databanks and citation aid programs


List of essential papers. We consider these as the minimum necessary citations

  1. Neese,F.
     Software update: the ORCA program system, version 5.0
     WIRES Comput. Molec. Sci., 2022 12(1)e1606
     doi.org/10.1002/wcms.1606
  2. Grimme,S.; Hansen,A.; Ehlert,S.; Mewes,J.
     r2SCAN-3c: A 'Swiss army knife' composite electronic-structure method
     J. Chem. Phys., 2021 154 064103
     doi.org/10.1063/5.0040021

List of papers to cite with high priority. The work reported in these papers was absolutely
necessary for this run to complete.
Our perspective: the developers of density functionals and basis sets usually get cited in chemistry papers
Good! But without the algorithms to do something with them, the functionals or basis sets would not do anything.
Hence, in our opinion, the algorithm design and method developments papers are equally worthy of getting cited

  1. Neese,F.
     An improvement of the resolution of the identity approximation for the formation of the Coulomb matrix
     J. Comp. Chem., 2003 24(14)1740-1747
     doi.org/10.1002/jcc.10318
  2. Neese,F.
     The SHARK Integral Generation and Digestion System
     J. Comp. Chem., 2022  1-16
     doi.org/10.1002/jcc.26942
  3. Lehtola,S.; Steigemann,C.; Oliveira,M.; Marques,M.
     Recent developments in Libxc - A comprehensive library of functionals for density functional theory
     Software X, 2018 7 
     doi.org/10.1016/j.softx.2017.11.002
  4. Caldeweyher,E.; Bannwarth,C.; Grimme,S.
     Extension of the D3 dispersion coefficient model
     J. Chem. Phys., 2017 147 034112
     doi.org/10.1063/1.4993215
  5. Caldeweyher,E.; Ehlert,S.; Hansen,A.; Neugebauer,H.; Spicher,S.; Bannwarth,C.; Grimme,S.
     A generally applicable atomic-charge dependent London dispersion correction
     J. Chem. Phys., 2019 150 154122
     doi.org/10.1063/1.5090222
  6. Caldeweyher,E.; Mewes,J.; Ehlert,S.; Grimme,S.
     Extension and evaluation of the D4 London-dispersion model for periodic systems
     Phys. Chem. Chem. Phys., 2020 22(16)8499-8512
     doi.org/10.1039/D0CP00502A
  7. Wittmann,L.; Gordiy,I.; Friede,M.; Helmich-Paris,B.; Grimme,S.; Hansen,A.; Bursch,M.
     Extension of the D3 and D4 London Dispersion Corrections to the full Actinides Series
     Phys. Chem. Chem. Phys., 2024 26(32)21379-21394
     doi.org/https://doi.org/10.1039/D4CP01514B 

List of suggested additional citations. These are papers that are important in the 'surrounding' of 
of this run, or papers that preceded the highly important papers. If you like your results we are grateful for a citation.

  1. Neese,F.
     The ORCA program system
     WIRES Comput. Molec. Sci., 2012 2(1)73-78
     doi.org/10.1002/wcms.81
  2. Neese,F.
     Software update: the ORCA program system, version 4.0
     WIRES Comput. Molec. Sci., 2018 8(1)1-6
     doi.org/10.1002/wcms.1327
  3. Neese,F.; Wennmohs,F.; Becker,U.; Riplinger,C.
     The ORCA quantum chemistry program package
     J. Chem. Phys., 2020 152 Art. No. L224108
     doi.org/10.1063/5.0004608

List of optional additional citations

  1. Neese,F.
     Approximate second-order SCF convergence for spin unrestricted wavefunctions
     Chem. Phys. Lett., 2000 325(1-3)93-98
     doi.org/10.1016/s0009-2614(00)00662-x

Timings for individual modules:

Sum of individual times          ...        6.464 sec (=   0.108 min)
Startup calculation              ...        0.396 sec (=   0.007 min)   6.1 %
SCF iterations                   ...        1.863 sec (=   0.031 min)  28.8 %
Property calculations            ...        0.046 sec (=   0.001 min)   0.7 %
SCF Gradient evaluation          ...        4.159 sec (=   0.069 min)  64.3 %
                             ****ORCA TERMINATED NORMALLY****
TOTAL RUN TIME: 0 days 0 hours 0 minutes 6 seconds 562 msec
  ------------------------------------------------------------------------
          * successful ORCA run, taking over control again...

         :::::::::::::::::::::::::::::::::::::::::::::::::::::
         ::                  ORCA SUMMARY                   ::
         :::::::::::::::::::::::::::::::::::::::::::::::::::::
         :: total energy            -307.634492298205 Eh    ::
         :: gradient norm              0.005557463269 Eh/a0 ::
         :: HOMO-LUMO gap              0.000000000000 eV    ::
         :::::::::::::::::::::::::::::::::::::::::::::::::::::

      ----------------------------------------------------------- 
     |                       L-ANC optimizer                     |
      ----------------------------------------------------------- 
          low memory version by Sebastian Ehlert

          ...................................................
          :                      SETUP                      :
          :.................................................:
          :   energy convergence        0.5000000E-05 Eh    :
          :   grad. convergence         0.1000000E-02 Eh/a0 :
          :   optimization log               true           :
          :   writing optlog all                1     steps :
          :   Hessian reset                     8     steps :
          :   maximium step len.        1.0000000     a0    :
          :   LBFGS images                      8           :
          ...................................................
 * calculating model hessian...
Using Lindh-Hessian (1995)
 Shifting diagonal of input Hessian by    1.0000000000000000E-002
 Lowest  eigenvalues of input Hessian
    0.000000    0.000000    0.000000    0.000000    0.000000    0.000000
    0.013227    0.015427    0.017341    0.022158    0.032538    0.037728
    0.040736    0.054542    0.063731    0.064850    0.077861    0.093493
 Highest eigenvalues
    1.145317    1.148295    1.212749    1.303670    1.708327    2.298614


........................................................................
.............................. CYCLE    1 ..............................
........................................................................
                         * ORCA takes the control...
  ------------------------------------------------------------------------

                                 *****************
                                 * O   R   C   A *
                                 *****************

                                            #,                                       
                                            ###                                      
                                            ####                                     
                                            #####                                    
                                            ######                                   
                                           ########,                                 
                                     ,,################,,,,,                         
                               ,,#################################,,                 
                          ,,##########################################,,             
                       ,#########################################, ''#####,          
                    ,#############################################,,   '####,        
                  ,##################################################,,,,####,       
                ,###########''''           ''''###############################       
              ,#####''   ,,,,##########,,,,          '''####'''          '####       
            ,##' ,,,,###########################,,,                        '##       
           ' ,,###''''                  '''############,,,                           
         ,,##''                                '''############,,,,        ,,,,,,###''
      ,#''                                            '''#######################'''  
     '                                                          ''''####''''         
             ,#######,   #######,   ,#######,      ##                                
            ,#'     '#,  ##    ##  ,#'     '#,    #''#        ,####,   ,####,        
            ##       ##  ##   ,#'  ##            #'  '#       #'       #'  '#        
            ##       ##  #######   ##           ,######,      #####,   #    #        
            '#,     ,#'  ##    ##  '#,     ,#' ,#      #,     #,   #   #,  ,#        
             '#######'   ##     ##  '#######'  #'      '#     '####' # '####'        



                #########################################################
                #                        -***-                          #
                #          Department of theory and spectroscopy        #
                #                                                       #
                #                      Frank Neese                      #
                #                                                       #
                #     Directorship, Architecture, Infrastructure        #
                #                    SHARK, DRIVERS                     #
                #        Core code/Algorithms in most modules           #
                #                                                       #
                #        Max Planck Institute fuer Kohlenforschung      #
                #                Kaiser Wilhelm Platz 1                 #
                #                 D-45470 Muelheim/Ruhr                 #
                #                      Germany                          #
                #                                                       #
                #                  All rights reserved                  #
                #                        -***-                          #
                #########################################################


                         Program Version 6.0.1  -  RELEASE   -


 With contributions from (in alphabetic order):
[Max-Planck-Institut fuer Kohlenforschung]                               
  Daniel Aravena         : Magnetic Suceptibility                        
  Michael Atanasov       : Ab Initio Ligand Field Theory (pilot matlab implementation)
  Alexander A. Auer      : GIAO ZORA, VPT2 properties, NMR spectrum      
  Ute Becker             : All parallelization in ORCA, NUMFREQ, NUMCALC 
  Giovanni Bistoni       : ED, misc. LED, open-shell LED, HFLD           
  Martin Brehm           : Molecular dynamics                            
  Dmytro Bykov           : pre 5.0 version of the SCF Hessian            
  Marcos Casanova-Páez   : Triplet and SCS-CIS(D). UHF-(DLPNO)-IP/EA/STEOM-CCSD. UHF-CVS-IP/STEOM-CCSD   
  Vijay G. Chilkuri      : MRCI spin determinant printing, contributions to CSF-ICE 
  Pauline Colinet        : FMM embedding                                 
  Dipayan Datta          : RHF DLPNO-CCSD density                        
  Achintya Kumar Dutta   : EOM-CC, STEOM-CC                              
  Nicolas Foglia         : Exact transition moments, OPA infrastructure, MCD improvements    
  Dmitry Ganyushin       : Spin-Orbit,Spin-Spin,Magnetic field MRCI      
  Miquel Garcia-Rates    : C-PCM and meta-GGA Hessian, CCSD/C-PCM, Gaussian charge scheme 
  Tiago L. C. Gouveia    : GS-ROHF, GS-ROCIS                             
  Yang Guo               : DLPNO-NEVPT2, F12-NEVPT2, CIM, IAO-localization        
  Andreas Hansen         : Spin unrestricted coupled pair/coupled cluster methods 
  Ingolf Harden          : AUTO-CI MPn and infrastructure                
  Benjamin Helmich-Paris : MC-RPA, TRAH-(SCF,CASSCF), AVAS, COSX integrals, SCF dyn. polar. 
  Lee Huntington         : MR-EOM, pCC                                   
  Robert Izsak           : Overlap fitted RIJCOSX, COSX-SCS-MP3, EOM     
  Riya Kayal             : Wick's Theorem for AUTO-CI, AUTO-CI UHF-CCSDT 
  Emily Kempfer          : AUTO-CI, RHF CISDT and CCSDT                  
  Christian Kollmar      : KDIIS, OOCD, Brueckner-CCSD(T), CCSD density, CASPT2, CASPT2-K, improved NEVPT2 
  Axel Koslowski         : Symmetry handling                             
  Simone Kossmann        : meta-GGA functionals, TD-DFT gradient, OOMP2, (MP2 Hessian; deprecated post 5.0) 
  Lucas Lang             : DCDCAS                                        
  Marvin Lechner         : AUTO-CI (C++ implementation), FIC-MRCC        
  Spencer Leger          : CASSCF response                               
  Dagmar Lenk            : GEPOL surface, SMD, ORCA-2-JSON               
  Dimitrios Liakos       : Extrapolation schemes; Compound Job, initial MDCI parallelization 
  Dimitrios Manganas     : Further ROCIS development; embedding schemes. LFT, Crystal Embedding 
  Dimitrios Pantazis     : SARC Basis sets                               
  Anastasios Papadopoulos: AUTO-CI, single reference methods and gradients 
  Taras Petrenko         : pre 6.0 DFT Hessian and TD-DFT gradient, (ASA, deprecated), ECA, 1-Electron XAS/XES, NRVS 
  Peter Pinski           : DLPNO-MP2, DLPNO-MP2 Gradient                 
  Christoph Reimann      : Effective Core Potentials                     
  Marius Retegan         : Local ZFS, SOC                                
  Christoph Riplinger    : Optimizer, TS searches, QM/MM, DLPNO-CCSD(T), (RO)-DLPNO pert. Triples 
  Michael Roemelt        : Original ROCIS implementation                 
  Masaaki Saitow         : Open-shell DLPNO-CCSD energy and density      
  Barbara Sandhoefer     : DKH picture change effects                    
  Kantharuban Sivalingam : CASSCF convergence/infrastructure, NEVPT2 and variants, FIC-MRCI 
  Bernardo de Souza      : ESD, SOC TD-DFT                               
  Georgi L. Stoychev     : AutoAux, RI-MP2 NMR, DLPNO-MP2 response, X2C  
  Van Anh Tran           : RI-MP2 g-tensors                              
  Willem Van den Heuvel  : Paramagnetic NMR                              
  Zikuan Wang            : NOTCH, Electric field optimization            
  Frank Wennmohs         : Technical directorship and infrastructure     
  Hang Xu                : AUTO-CI-Response properties                   
                                                                         
[FACCTs GmbH]                                                            
  Markus Bursch, Miquel Garcia-Rates, Christoph Riplinger, Bernardo de Souza, Georgi L. Stoychev 
                                                                 
  APM, Basis sets (HGBS, AHGBS, def-TZVP (Ac-Lr), def2-XVPD (La-Lu)), CI-OPT, improved COSX, DLPNO-Multilevel,           
  DOCKER, DRACO, updates on ESD, GOAT, IRC, LR-CPCM, MBIS, meta-GGA TD-DFT gradient, ML-optimized integration grids, 
  MM, NACMEs, nearIR, NEB, NEB-TS, NL-DFT gradient (VV10), 2- and 3-layer-ONIOM, interface openCOSMO-RS, QMMM,   
  Crystal-QMMM, SF, symmetry and pop. for TD-DFT, r2SCAN hybrids, SOLVATOR                                   
                                                                         
[Other institutions]                                                     
  V. Asgeirsson          : NEB                                           
  Christoph Bannwarth    : sTDA-DFT, sTD-DFT, PBEh-3c, B97-3c, D3        
  Sebastian Ehlert       : rSCAN, r2SCAN, r2SCAN-3c, D4, dhf basis sets  
  Marvin Friede          : D4 for Fr, Ra, Ac-Lr                          
  Lars Goerigk           : TD-DFT with DH, B97 family of functionals     
  Stefan Grimme          : VdW corrections, initial TS optimization, DFT functionals, gCP, sTDA/sTD-DF 
  Waldemar Hujo          : DFT-NL                                        
  H. Jonsson             : NEB                                           
  Holger Kruse           : gCP                                           
  Marcel Mueller         : wB97X-3c, vDZP basis set                      
  Hagen Neugebauer       : wr2SCAN                                       
  Tobias Risthaus        : range-separated hybrid DFT                    
  Lukas Wittmann         : regularized MP2, r2SCAN double-hybrids, wr2SCAN        
                                                                         
We gratefully acknowledge several colleagues who have allowed us to      
interface, adapt or use parts of their codes:                            
  Ed Valeev, F. Pavosevic, A. Kumar             : LibInt (2-el integral package), F12 methods 
  Garnet Chan, S. Sharma, J. Yang, R. Olivares  : DMRG                   
  Ulf Ekstrom                                   : XCFun DFT Library      
  Mihaly Kallay                                 : mrcc  (arbitrary order and MRCC methods)
  Frank Weinhold                                : gennbo (NPA and NBO analysis)           
  Simon Mueller                                 : openCOSMO-RS                            
  Christopher J. Cramer and Donald G. Truhlar   : smd solvation model                     
  S Lehtola, MJT Oliveira, MAL Marques          : LibXC Library                           
  Liviu Ungur et al                             : ANISO software                          


 Your calculation uses the libint2 library for the computation of 2-el integrals
 For citations please refer to: http://libint.valeyev.net

 Your ORCA version has been built with support for libXC version: 6.2.2
 For citations please refer to: https://libxc.gitlab.io

 This ORCA versions uses:
   CBLAS   interface :  Fast vector & matrix operations
   LAPACKE interface :  Fast linear algebra routines
   SCALAPACK package :  Parallel linear algebra routines
   Shared memory     :  Shared parallel matrices
   BLAS/LAPACK       :  OpenBLAS 0.3.27  USE64BITINT DYNAMIC_ARCH NO_AFFINITY Zen SINGLE_THREADED
        Core in use  :  Zen
   Copyright (c) 2011-2014, The OpenBLAS Project




***************************************
The coordinates will be read from file: xtb_opt.xyz
***************************************


Your calculation utilizes the geometrical counterpoise correction gCP
Please cite in your paper:
H.Kruse, S. Grimme J.Chem.Phys., 136, (2012), 154101 
   

Your calculation utilizes the atom-pairwise dispersion correction
based on EEQ partial charges (D4)


================================================================================

----- Orbital basis set information -----
Your calculation utilizes the basis: def2-mTZVPP
   Stefan Grimme, Andreas Hansen, Sebastian Ehlert, and Jan-Michael Mewes 
   J. Chem. Phys. 154, 064103 (2021). DOI: 10.1063/5.0040021

----- AuxJ basis set information -----
Your calculation utilizes the auxiliary basis: def2/J
   F. Weigend, Phys. Chem. Chem. Phys. 8, 1057 (2006).

================================================================================
                                        WARNINGS
                       Please study these warnings very carefully!
================================================================================

WARNING: Old DensityContainer found on disk!
         Will remove this file - 
         If you want to keep old densities, please start your calculation with a different basename. 



WARNING: SCAN, rSCAN, or r2SCAN functional requested.
  ===> : libXC variant has now been activated.



================================================================================
                                       INPUT FILE
================================================================================
NAME = xtb_opt.inp
|  1> ! r2scan-3c def2/J RI DEFGRID2 scfconv7 ENGRAD tightSCF miniprint
|  2> * xyzfile 0 1 xtb_opt.xyz
|  3> 
|  4>                          ****END OF INPUT****
================================================================================

                     *******************************
                     * Energy+Gradient Calculation *
                     *******************************

---------------------------------
CARTESIAN COORDINATES (ANGSTROEM)
---------------------------------
  C     -2.477436    0.110606    0.415547
  C     -1.235910    0.669917   -0.264068
  C      0.034261    0.002030    0.205687
  O      0.097619   -0.961556    0.932779
  O      1.122744    0.626800   -0.306810
  C      2.388030    0.026729    0.051116
  H     -2.550616   -0.968769    0.263075
  H     -2.445561    0.287770    1.493781
  H     -3.377452    0.582963    0.013122
  H     -1.134366    1.749615   -0.106257
  H     -1.282852    0.535412   -1.352108
  H      2.514069    0.019539    1.136956
  H      3.148457    0.647367   -0.423120
  H      2.438258   -0.999982   -0.321692

----------------------------
CARTESIAN COORDINATES (A.U.)
----------------------------
  NO LB      ZA    FRAG     MASS         X           Y           Z
   0 C     6.0000    0    12.011   -4.681676    0.209016    0.785271
   1 C     6.0000    0    12.011   -2.335532    1.265960   -0.499015
   2 C     6.0000    0    12.011    0.064744    0.003837    0.388693
   3 O     8.0000    0    15.999    0.184473   -1.817077    1.762697
   4 O     8.0000    0    15.999    2.121678    1.184480   -0.579787
   5 C     6.0000    0    12.011    4.512723    0.050510    0.096596
   6 H     1.0000    0     1.008   -4.819966   -1.830708    0.497141
   7 H     1.0000    0     1.008   -4.621441    0.543807    2.822837
   8 H     1.0000    0     1.008   -6.382459    1.101641    0.024796
   9 H     1.0000    0     1.008   -2.143641    3.306293   -0.200796
  10 H     1.0000    0     1.008   -2.424239    1.011783   -2.555114
  11 H     1.0000    0     1.008    4.750902    0.036923    2.148536
  12 H     1.0000    0     1.008    5.949721    1.223346   -0.799582
  13 H     1.0000    0     1.008    4.607639   -1.889692   -0.607909

------------------------------------------------------------------------------
                   ___                                                        
                  /   \      - P O W E R E D   B Y -                         
                 /     \                                                     
                 |  |  |   _    _      __       _____    __    __             
                 |  |  |  | |  | |    /  \     |  _  \  |  |  /  |          
                  \  \/   | |  | |   /    \    | | | |  |  | /  /          
                 / \  \   | |__| |  /  /\  \   | |_| |  |  |/  /          
                |  |  |   |  __  | /  /__\  \  |    /   |      \           
                |  |  |   | |  | | |   __   |  |    \   |  |\   \          
                \     /   | |  | | |  |  |  |  | |\  \  |  | \   \       
                 \___/    |_|  |_| |__|  |__|  |_| \__\ |__|  \__/        
                                                                              
                      - O R C A' S   B I G   F R I E N D -                    
                                      &                                       
                       - I N T E G R A L  F E E D E R -                       
                                                                              
 v1 FN, 2020, v2 2021, v3 2022-2024                                           
------------------------------------------------------------------------------


----------------------
SHARK INTEGRAL PACKAGE
----------------------

Number of atoms                             ...     14
Number of basis functions                   ...    164
Number of shells                            ...     80
Maximum angular momentum                    ...      2
Integral batch strategy                     ... SHARK/LIBINT Hybrid
RI-J (if used) integral strategy            ... SPLIT-RIJ (Revised 2003 algorithm where possible)
Printlevel                                  ...      1
Contraction scheme used                     ... SEGMENTED contraction
Prescreening option                         ... SCHWARTZ
   Thresh                                   ... 3.000e-11
   Tcut                                     ... 1.000e-12
   Tpresel                                  ... 1.000e-12 
Coulomb Range Separation                    ... NOT USED
Exchange Range Separation                   ... NOT USED
Multipole approximations                    ... NOT USED
Finite Nucleus Model                        ... NOT USED
CABS basis                                  ... NOT available
Auxiliary Coulomb fitting basis             ... AVAILABLE
   # of basis functions in Aux-J            ...    382
   # of shells in Aux-J                     ...    130
   Maximum angular momentum in Aux-J        ...      4
Auxiliary J/K fitting basis                 ... NOT available
Auxiliary Correlation fitting basis         ... NOT available
Auxiliary 'external' fitting basis          ... NOT available

Checking pre-screening integrals            ... done (  0.0 sec) Dimension = 80
Check shell pair data                       ... done (  0.0 sec)
Shell pair information
Shell pair cut-off parameter TPreSel        ...   1.0e-12
Total number of shell pairs                 ...      3240
Shell pairs after pre-screening             ...      2996
Total number of primitive shell pairs       ...     11481
Primitive shell pairs kept                  ...      7900
          la=0 lb=0:    976 shell pairs
          la=1 lb=0:   1108 shell pairs
          la=1 lb=1:    326 shell pairs
          la=2 lb=0:    351 shell pairs
          la=2 lb=1:    199 shell pairs
          la=2 lb=2:     36 shell pairs

Calculating one electron integrals          ... done (  0.0 sec)
Calculating RI/J V-Matrix + Cholesky decomp.... done (  0.0 sec)
Calculating Nuclear repulsion               ... done (  0.0 sec) ENN=    244.874925748177 Eh

Diagonalization of the overlap matrix:
Smallest eigenvalue                        ... 1.845e-04
Time for diagonalization                   ...    0.002 sec
Threshold for overlap eigenvalues          ... 1.000e-07
Number of eigenvalues below threshold      ... 0
Time for construction of square roots      ...    0.001 sec
Total time needed                          ...    0.004 sec

-------------------
DFT GRID GENERATION
-------------------

General Integration Accuracy     IntAcc      ... 4.388
Radial Grid Type                 RadialGrid  ... OptM3 with GC (2021)
Angular Grid (max. ang.)         AngularGrid ... 4 (Lebedev-302)
Angular grid pruning method      GridPruning ... 4 (adaptive)
Weight generation scheme         WeightScheme... mBecke (2022)
Basis function cutoff            BFCut       ... 1.0000e-11
Integration weight cutoff        WCut        ... 1.0000e-14
Partially contracted basis set               ... off
Rotationally invariant grid construction     ... off
Angular grids for H and He will be reduced by one unit
Diffuse basis detected: some atoms will have their outermost
                        angular grid increased by 1.

Total number of grid points                  ...    62812
Total number of batches                      ...      988
Average number of points per batch           ...       63
Average number of grid points per atom       ...     4487
Initializing property integral containers    ... done (  0.0 sec)

SHARK setup successfully completed in   0.4 seconds

Maximum memory used throughout the entire STARTUP-calculation: 28.5 MB
Occupation numbers will be reassigned to an Aufbau configuration
             **** ENERGY FILE WAS UPDATED (xtb_opt.en.tmp) ****
Finished Guess after   0.0 sec
Maximum memory used throughout the entire GUESS-calculation: 11.6 MB
----------------------------------------D-I-I-S--------------------------------------------
Iteration    Energy (Eh)           Delta-E    RMSDP     MaxDP     DIISErr   Damp  Time(sec)
-------------------------------------------------------------------------------------------
               ***  Starting incremental Fock matrix formation  ***
    1    -307.6407240567207282     0.00e+00  2.63e-05  4.71e-04  3.75e-03  0.700   0.9
                              *** Initializing SOSCF ***
---------------------------------------S-O-S-C-F--------------------------------------
Iteration    Energy (Eh)           Delta-E    RMSDP     MaxDP     MaxGrad    Time(sec)
--------------------------------------------------------------------------------------
    2    -307.6407406568133638    -1.66e-05  8.05e-05  1.44e-03  2.84e-03     0.7
               *** Restarting incremental Fock matrix formation ***
    3    -307.6407815314228174    -4.09e-05  1.83e-05  2.87e-04  1.13e-04     0.8
    4    -307.6407816379804672    -1.07e-07  9.93e-06  2.56e-04  1.09e-04     0.7
    5    -307.6407820412736100    -4.03e-07  6.88e-06  1.13e-04  9.42e-05     0.7
    6    -307.6407819425578509     9.87e-08  4.20e-06  8.47e-05  1.21e-04     0.7
                 **** Energy Check signals convergence ****

               *****************************************************
               *                     SUCCESS                       *
               *           SCF CONVERGED AFTER   6 CYCLES          *
               *****************************************************

             **** ENERGY FILE WAS UPDATED (xtb_opt.en.tmp) ****

----------------
TOTAL SCF ENERGY
----------------

Total Energy       :       -307.64078194255785 Eh           -8371.33127 eV

Components:
Nuclear Repulsion  :        244.87492574817665 Eh            6663.38549 eV
Electronic Energy  :       -552.51570769073464 Eh          -15034.71676 eV
One Electron Energy:       -903.30683975766533 Eh          -24580.22874 eV
Two Electron Energy:        350.79113206693074 Eh            9545.51199 eV

Virial components:
Potential Energy   :       -613.92787427861344 Eh          -16705.82677 eV
Kinetic Energy     :        306.28709233605559 Eh            8334.49550 eV
Virial Ratio       :          2.00441967565847

DFT components:
N(Alpha)           :       24.000003678271 electrons
N(Beta)            :       24.000003678271 electrons
N(Total)           :       48.000007356542 electrons
E(X)               :      -40.200326167813 Eh       
E(C)               :       -1.536857769362 Eh       
E(XC)              :      -41.737183937176 Eh       

---------------
SCF CONVERGENCE
---------------

  Last Energy change         ...   -9.8716e-08  Tolerance :   1.0000e-07
  Last MAX-Density change    ...    8.4711e-05  Tolerance :   1.0000e-07
  Last RMS-Density change    ...    4.2013e-06  Tolerance :   5.0000e-09
  Last DIIS Error            ...    2.8440e-03  Tolerance :   1.0000e-07
  Last Orbital Gradient      ...    1.2082e-04  Tolerance :   1.0000e-04
  Last Orbital Rotation      ...    1.4077e-04  Tolerance :   1.0000e-04


----------------
ORBITAL ENERGIES
----------------

  NO   OCC          E(Eh)            E(eV) 
   0   2.0000     -18.997415      -516.9459 
   1   2.0000     -18.936473      -515.2876 
   2   2.0000     -10.155201      -276.3371 
   3   2.0000     -10.086238      -274.4605 
   4   2.0000     -10.048605      -273.4364 
   5   2.0000     -10.025616      -272.8109 
   6   2.0000      -1.064923       -28.9780 
   7   2.0000      -0.979348       -26.6494 
   8   2.0000      -0.756510       -20.5857 
   9   2.0000      -0.690590       -18.7919 
  10   2.0000      -0.609776       -16.5928 
  11   2.0000      -0.524652       -14.2765 
  12   2.0000      -0.470631       -12.8065 
  13   2.0000      -0.457661       -12.4536 
  14   2.0000      -0.439019       -11.9463 
  15   2.0000      -0.417919       -11.3721 
  16   2.0000      -0.397137       -10.8066 
  17   2.0000      -0.358060        -9.7433 
  18   2.0000      -0.348666        -9.4877 
  19   2.0000      -0.342460        -9.3188 
  20   2.0000      -0.322602        -8.7785 
  21   2.0000      -0.317924        -8.6512 
  22   2.0000      -0.275098        -7.4858 
  23   2.0000      -0.242161        -6.5895 
  24   0.0000      -0.017502        -0.4763 
  25   0.0000       0.065443         1.7808 
  26   0.0000       0.085439         2.3249 
  27   0.0000       0.115095         3.1319 
  28   0.0000       0.132942         3.6175 
  29   0.0000       0.151361         4.1187 
  30   0.0000       0.155393         4.2285 
  31   0.0000       0.166354         4.5267 
  32   0.0000       0.183922         5.0048 
  33   0.0000       0.185354         5.0438 
  34   0.0000       0.191668         5.2155 
*Only the first 10 virtual orbitals were printed.
Total SCF time: 0 days 0 hours 0 min 4 sec 
Finished LeanSCF after   4.5 sec

Maximum memory used throughout the entire LEANSCF-calculation: 17.4 MB


-------------------------------------------------------------------------------
                          DFT DISPERSION CORRECTION                            
                                                                               
                                DFTD4 V3.4.0                                   
-------------------------------------------------------------------------------
-------------------------   ----------------
Dispersion correction           -0.002939763
-------------------------   ----------------

------------------   -----------------
gCP correction             0.009194706
------------------   -----------------

-------------------------   --------------------
FINAL SINGLE POINT ENERGY      -307.634526999140
-------------------------   --------------------

------------------------------------------------------------------------------
                         ORCA SCF GRADIENT CALCULATION
------------------------------------------------------------------------------

Nuc. rep. gradient        (SHARK) ... done (  0.0 sec)
HCore & Overlap gradient  (SHARK) ... done (  0.1 sec)
Split-RIJ-J gradient      (SHARK) ... done (  0.6 sec)
XC gradient                       ... done (  2.6 sec)
Dispersion correction             ... done (  0.0 sec)

-------------------
DISPERSION GRADIENT
-------------------

   1   C   :   -0.000060498   -0.000000376    0.000006998
   2   C   :   -0.000044642    0.000019411   -0.000014383
   3   C   :    0.000015120   -0.000002427   -0.000000114
   4   O   :    0.000011872   -0.000036506    0.000025569
   5   O   :    0.000046636    0.000009176   -0.000010496
   6   C   :    0.000063490   -0.000008279    0.000002331
   7   H   :   -0.000022700   -0.000006673    0.000002490
   8   H   :   -0.000023397    0.000000520    0.000009535
   9   H   :   -0.000025014    0.000003050   -0.000000072
  10   H   :   -0.000015605    0.000017394   -0.000004050
  11   H   :   -0.000017044    0.000006176   -0.000014983
  12   H   :    0.000023471   -0.000000958    0.000002334
  13   H   :    0.000024846    0.000003236   -0.000003573
  14   H   :    0.000023465   -0.000003745   -0.000001586

Difference to translation invariance:
           :    0.0000000000   -0.0000000000   -0.0000000000

Difference to rotation invariance:
           :    0.0000000000    0.0000000000   -0.0000000000

Norm of the Dispersion gradient    ...    0.0001408622
RMS gradient                       ...    0.0000217355
MAX gradient                       ...    0.0000634904
gCP correction                   ... done

------------------
CARTESIAN GRADIENT
------------------

   1   C   :    0.000018127    0.000251345   -0.000234726
   2   C   :   -0.000176640    0.000117999    0.000344255
   3   C   :    0.000351063   -0.000589621   -0.001009555
   4   O   :   -0.000154774   -0.000024036    0.000448982
   5   O   :   -0.001002925    0.000958511   -0.000038084
   6   C   :    0.001054310   -0.000522904    0.000361535
   7   H   :    0.000051054   -0.000183121    0.000069722
   8   H   :   -0.000079276    0.000118853    0.000157723
   9   H   :   -0.000033384   -0.000085554   -0.000070552
  10   H   :   -0.000139860    0.000121834   -0.000055353
  11   H   :    0.000169297   -0.000109838    0.000158491
  12   H   :    0.000033423   -0.000070765    0.000149798
  13   H   :    0.000089966    0.000145798   -0.000102576
  14   H   :   -0.000180381   -0.000128501   -0.000179661

Difference to translation invariance:
           :    0.0000000000   -0.0000000000    0.0000000000

Difference to rotation invariance:
           :    0.0000487679   -0.0001012395    0.0000869648

Norm of the Cartesian gradient     ...    0.0024068624
RMS gradient                       ...    0.0003713869
MAX gradient                       ...    0.0010543098

-------
TIMINGS
-------

Total SCF gradient time     ....        3.304 sec

Densities                   ....       0.000 sec  (  0.0%)
One electron gradient       ....       0.102 sec  (  3.1%)
RI-J Coulomb gradient       ....       0.595 sec  ( 18.0%)
XC gradient                 ....       2.572 sec  ( 77.8%)

Maximum memory used throughout the entire SCFGRAD-calculation: 31.6 MB

------------------------------------------------------------------------------
                              ORCA PROPERTY CALCULATIONS
------------------------------------------------------------------------------

GBWName                                 ... xtb_opt.gbw
Number of atoms                         ...     14
Number of basis functions               ...    164
Max core memory                         ...   1024 MB

Electric properties:
Dipole moment                           ... YES
Quadrupole moment                       ...  NO
Static polarizability (Dipole/Dipole)   ...  NO
Static polarizability (Dipole/Quad.)    ...  NO
Static polarizability (Quad./Quad.)     ...  NO
Static polarizability (Velocity)        ...  NO

Atomic electric properties:
Dipole moment                           ...  NO
Quadrupole moment                       ...  NO
Static polarizability                   ...  NO

Choice of electric origin               ... Center of mass
Position of electric origin             ...     0.028014     0.133693     0.335198

General magnetic properties:
Magnetizability                         ...  NO

EPR properties:
g-Tensor (aka g-matrix)                 ...  NO
Zero-Field splitting spin-orbit         ...  NO
Zero-field splitting spin-spin          ...  NO
Hyperfine couplings                     ...  NO (   0 nuclei)
Quadrupole couplings                    ...  NO (   0 nuclei)
Contact density                         ...  NO (   0 nuclei)

NMR properties:
Chemical shifts                         ...  NO (   0 nuclei)
Spin-rotation constants                 ...  NO (   0 nuclei)
Spin-spin couplings                     ...  NO (   0 nuclei,    0 pairs)

Choice of magnetic origin               ... GIAO
Position of magnetic origin             ...     0.000000     0.000000     0.000000

Properties with geometric perturbations:
SCF Hessian                             ...  NO
IR spectrum                             ...  NO
VCD spectrum                            ...  NO
X-ray spectroscopy properties:
SCF XES/XAS/RIXS spectra                ...  NO


-------------
DIPOLE MOMENT
-------------

Method             : SCF
Type of density    : Electron Density
Multiplicity       :   1
Irrep              :   0
Energy             :  -307.6407819425578509 Eh
Relativity type    : 
Basis              : AO
                                X                 Y                 Z
Electronic contribution:      2.789733650      -0.700778692       0.250221587
Nuclear contribution   :     -2.617408886       1.201268034      -0.667042677
                        -----------------------------------------
Total Dipole Moment    :      0.172324764       0.500489342      -0.416821090
                        -----------------------------------------
Magnitude (a.u.)       :      0.673739732
Magnitude (Debye)      :      1.712510303



--------------------
Rotational spectrum 
--------------------
 
Rotational constants in cm-1:             0.316228             0.071418             0.060281 
Rotational constants in MHz :          9480.287508          2141.061432          1807.188470 

Dipole components along the rotational axes: 
x,y,z [a.u.] :     0.184634     0.647803    -0.013670 
x,y,z [Debye]:     0.469301     1.646585    -0.034748 

 

Dipole moment calculation done in   0.0 sec 

Maximum memory used throughout the entire PROP-calculation: 9.9 MB

--------------------------------
SUGGESTED CITATIONS FOR THIS RUN
--------------------------------

Below you find a list of papers that are relevant to this ORCA run
We neither can nor want to force you to cite these papers, but we appreciate if you do
[...]
    3    -307.6408292992022666     2.03e-07  5.02e-06  1.26e-04  1.73e-04     0.7
    4    -307.6408295337551522    -2.35e-07  2.62e-07  4.05e-06  1.72e-06     0.6
                  *** Gradient check signals convergence ***

               *****************************************************
               *                     SUCCESS                       *
               *           SCF CONVERGED AFTER   4 CYCLES          *
               *****************************************************

             **** ENERGY FILE WAS UPDATED (xtb_opt.en.tmp) ****

----------------
TOTAL SCF ENERGY
----------------

Total Energy       :       -307.64082953375515 Eh           -8371.33256 eV

Components:
Nuclear Repulsion  :        244.92068375960770 Eh            6664.63063 eV
Electronic Energy  :       -552.56151329336285 Eh          -15035.96319 eV
One Electron Energy:       -903.39272241263109 Eh          -24582.56573 eV
Two Electron Energy:        350.83120911926818 Eh            9546.60254 eV

Virial components:
Potential Energy   :       -613.93100469518481 Eh          -16705.91195 eV
Kinetic Energy     :        306.29017516142960 Eh            8334.57939 eV
Virial Ratio       :          2.00440972150548

DFT components:
N(Alpha)           :       24.000003508130 electrons
N(Beta)            :       24.000003508130 electrons
N(Total)           :       48.000007016261 electrons
E(X)               :      -40.200951155326 Eh       
E(C)               :       -1.536890448006 Eh       
E(XC)              :      -41.737841603332 Eh       

---------------
SCF CONVERGENCE
---------------

  Last Energy change         ...    2.3455e-07  Tolerance :   1.0000e-07
  Last MAX-Density change    ...    4.0542e-06  Tolerance :   1.0000e-07
  Last RMS-Density change    ...    2.6228e-07  Tolerance :   5.0000e-09
  Last DIIS Error            ...    8.5052e-05  Tolerance :   1.0000e-07
  Last Orbital Gradient      ...    1.7176e-06  Tolerance :   1.0000e-04
  Last Orbital Rotation      ...    5.2791e-06  Tolerance :   1.0000e-04


----------------
ORBITAL ENERGIES
----------------

  NO   OCC          E(Eh)            E(eV) 
   0   2.0000     -18.997685      -516.9533 
   1   2.0000     -18.936298      -515.2829 
   2   2.0000     -10.155364      -276.3415 
   3   2.0000     -10.086427      -274.4656 
   4   2.0000     -10.048680      -273.4385 
   5   2.0000     -10.025736      -272.8141 
   6   2.0000      -1.065175       -28.9849 
   7   2.0000      -0.979528       -26.6543 
   8   2.0000      -0.756677       -20.5902 
   9   2.0000      -0.690795       -18.7975 
  10   2.0000      -0.609811       -16.5938 
  11   2.0000      -0.524873       -14.2825 
  12   2.0000      -0.470822       -12.8117 
  13   2.0000      -0.457876       -12.4594 
  14   2.0000      -0.439143       -11.9497 
  15   2.0000      -0.418100       -11.3771 
  16   2.0000      -0.397197       -10.8083 
  17   2.0000      -0.357247        -9.7212 
  18   2.0000      -0.349205        -9.5024 
  19   2.0000      -0.342671        -9.3245 
  20   2.0000      -0.322632        -8.7793 
  21   2.0000      -0.318159        -8.6575 
  22   2.0000      -0.275060        -7.4848 
  23   2.0000      -0.242183        -6.5901 
  24   0.0000      -0.017602        -0.4790 
  25   0.0000       0.065704         1.7879 
  26   0.0000       0.085326         2.3218 
  27   0.0000       0.115069         3.1312 
  28   0.0000       0.132809         3.6139 
  29   0.0000       0.151542         4.1237 
  30   0.0000       0.154899         4.2150 
  31   0.0000       0.166445         4.5292 
  32   0.0000       0.184244         5.0135 
  33   0.0000       0.185124         5.0375 
  34   0.0000       0.191961         5.2235 
*Only the first 10 virtual orbitals were printed.
Total SCF time: 0 days 0 hours 0 min 3 sec 
Finished LeanSCF after   3.1 sec

Maximum memory used throughout the entire LEANSCF-calculation: 17.4 MB


-------------------------------------------------------------------------------
                          DFT DISPERSION CORRECTION                            
                                                                               
                                DFTD4 V3.4.0                                   
-------------------------------------------------------------------------------
-------------------------   ----------------
Dispersion correction           -0.002940154
-------------------------   ----------------

------------------   -----------------
gCP correction             0.009196915
------------------   -----------------

-------------------------   --------------------
FINAL SINGLE POINT ENERGY      -307.634572773106
-------------------------   --------------------

------------------------------------------------------------------------------
                         ORCA SCF GRADIENT CALCULATION
------------------------------------------------------------------------------

Nuc. rep. gradient        (SHARK) ... done (  0.0 sec)
HCore & Overlap gradient  (SHARK) ... done (  0.1 sec)
Split-RIJ-J gradient      (SHARK) ... done (  0.6 sec)
XC gradient                       ... done (  2.9 sec)
Dispersion correction             ... done (  0.0 sec)

-------------------
DISPERSION GRADIENT
-------------------

   1   C   :   -0.000060483   -0.000000531    0.000006866
   2   C   :   -0.000044633    0.000019499   -0.000014324
   3   C   :    0.000015069   -0.000002354   -0.000000055
   4   O   :    0.000011890   -0.000035386    0.000026938
   5   O   :    0.000046458    0.000008767   -0.000011112
   6   C   :    0.000063633   -0.000008219    0.000002497
   7   H   :   -0.000023106   -0.000006743    0.000001979
   8   H   :   -0.000022985   -0.000000127    0.000009365
   9   H   :   -0.000025002    0.000003203    0.000000085
  10   H   :   -0.000015725    0.000017279   -0.000003942
  11   H   :   -0.000016915    0.000006352   -0.000015139
  12   H   :    0.000023659   -0.000000921    0.000002286
  13   H   :    0.000024854    0.000003036   -0.000003868
  14   H   :    0.000023287   -0.000003855   -0.000001576

Difference to translation invariance:
           :   -0.0000000000   -0.0000000000    0.0000000000

Difference to rotation invariance:
           :    0.0000000000    0.0000000000    0.0000000000

Norm of the Dispersion gradient    ...    0.0001408386
RMS gradient                       ...    0.0000217319
MAX gradient                       ...    0.0000636328
gCP correction                   ... done

------------------
CARTESIAN GRADIENT
------------------

   1   C   :    0.000031926    0.000074402   -0.000071291
   2   C   :   -0.000092248   -0.000026709   -0.000016538
   3   C   :    0.000110194    0.000120352   -0.000128140
   4   O   :   -0.000075979   -0.000240525    0.000151759
   5   O   :   -0.000453768    0.000314542   -0.000240730
   6   C   :    0.000470532   -0.000277809    0.000209547
   7   H   :   -0.000088119   -0.000068833   -0.000009483
   8   H   :    0.000040762   -0.000033312    0.000095174
   9   H   :    0.000051049    0.000059153    0.000054081
  10   H   :    0.000010378    0.000016103   -0.000041139
  11   H   :    0.000008112   -0.000037573   -0.000011053
  12   H   :   -0.000051230    0.000000374   -0.000005329
  13   H   :    0.000025794    0.000071097    0.000017633
  14   H   :    0.000012598    0.000028738   -0.000004491

Difference to translation invariance:
           :   -0.0000000000    0.0000000000   -0.0000000000

Difference to rotation invariance:
           :    0.0000812438   -0.0000300588    0.0000033407

Norm of the Cartesian gradient     ...    0.0009502202
RMS gradient                       ...    0.0001466222
MAX gradient                       ...    0.0004705320

-------
TIMINGS
-------

Total SCF gradient time     ....        3.569 sec

Densities                   ....       0.000 sec  (  0.0%)
One electron gradient       ....       0.108 sec  (  3.0%)
RI-J Coulomb gradient       ....       0.582 sec  ( 16.3%)
XC gradient                 ....       2.851 sec  ( 79.9%)

Maximum memory used throughout the entire SCFGRAD-calculation: 31.6 MB

------------------------------------------------------------------------------
                              ORCA PROPERTY CALCULATIONS
------------------------------------------------------------------------------

GBWName                                 ... xtb_opt.gbw
Number of atoms                         ...     14
Number of basis functions               ...    164
Max core memory                         ...   1024 MB

Electric properties:
Dipole moment                           ... YES
Quadrupole moment                       ...  NO
Static polarizability (Dipole/Dipole)   ...  NO
Static polarizability (Dipole/Quad.)    ...  NO
Static polarizability (Quad./Quad.)     ...  NO
Static polarizability (Velocity)        ...  NO

Atomic electric properties:
Dipole moment                           ...  NO
Quadrupole moment                       ...  NO
Static polarizability                   ...  NO

Choice of electric origin               ... Center of mass
Position of electric origin             ...     0.027466     0.132596     0.333300

General magnetic properties:
Magnetizability                         ...  NO

EPR properties:
g-Tensor (aka g-matrix)                 ...  NO
Zero-Field splitting spin-orbit         ...  NO
Zero-field splitting spin-spin          ...  NO
Hyperfine couplings                     ...  NO (   0 nuclei)
Quadrupole couplings                    ...  NO (   0 nuclei)
Contact density                         ...  NO (   0 nuclei)

NMR properties:
Chemical shifts                         ...  NO (   0 nuclei)
Spin-rotation constants                 ...  NO (   0 nuclei)
Spin-spin couplings                     ...  NO (   0 nuclei,    0 pairs)

Choice of magnetic origin               ... GIAO
Position of magnetic origin             ...     0.000000     0.000000     0.000000

Properties with geometric perturbations:
SCF Hessian                             ...  NO
IR spectrum                             ...  NO
VCD spectrum                            ...  NO
X-ray spectroscopy properties:
SCF XES/XAS/RIXS spectra                ...  NO


-------------
DIPOLE MOMENT
-------------

Method             : SCF
Type of density    : Electron Density
Multiplicity       :   1
Irrep              :   0
Energy             :  -307.6408295337551522 Eh
Relativity type    : 
Basis              : AO
                                X                 Y                 Z
Electronic contribution:      2.783072405      -0.711729298       0.232041895
Nuclear contribution   :     -2.613223161       1.210323125      -0.651962085
                        -----------------------------------------
Total Dipole Moment    :      0.169849245       0.498593827      -0.419920190
                        -----------------------------------------
Magnitude (a.u.)       :      0.673630119
Magnitude (Debye)      :      1.712231688



--------------------
Rotational spectrum 
--------------------
 
Rotational constants in cm-1:             0.316533             0.071464             0.060290 
Rotational constants in MHz :          9489.413461          2142.436452          1807.447126 

Dipole components along the rotational axes: 
x,y,z [a.u.] :     0.182796     0.648344     0.003643 
x,y,z [Debye]:     0.464631     1.647959     0.009259 

 

Dipole moment calculation done in   0.0 sec 

Maximum memory used throughout the entire PROP-calculation: 9.9 MB

--------------------------------
SUGGESTED CITATIONS FOR THIS RUN
--------------------------------

Below you find a list of papers that are relevant to this ORCA run
We neither can nor want to force you to cite these papers, but we appreciate if you do
You receive ORCA, which is the product of decades of hard work by many enthusiastic individuals, for free
The only thing we kindly ask in return is that you cite our papers,
We deeply appreciate it, if you show your appreciation for ORCA by not just citing the generic ORCA reference.

Please note that relegating all ORCA citations to the supporting information does *not* help us.
SI sections are not indexed - citations you put there will not count into any citation statistics
But we need these citations in order to attract the funding resources that allow us to do what we are doing

Therefore, if you are a happy ORCA user, please consider citing a few of the papers listed below in the main body of your paper

In addition to the list printed below, the program has created the file xtb_opt.bibtex that contains the list in bibtex format
You can import this file easily into all common literature databanks and citation aid programs


List of essential papers. We consider these as the minimum necessary citations

  1. Neese,F.
     Software update: the ORCA program system, version 5.0
     WIRES Comput. Molec. Sci., 2022 12(1)e1606
     doi.org/10.1002/wcms.1606
  2. Grimme,S.; Hansen,A.; Ehlert,S.; Mewes,J.
     r2SCAN-3c: A 'Swiss army knife' composite electronic-structure method
     J. Chem. Phys., 2021 154 064103
     doi.org/10.1063/5.0040021

List of papers to cite with high priority. The work reported in these papers was absolutely
necessary for this run to complete.
Our perspective: the developers of density functionals and basis sets usually get cited in chemistry papers
Good! But without the algorithms to do something with them, the functionals or basis sets would not do anything.
Hence, in our opinion, the algorithm design and method developments papers are equally worthy of getting cited

  1. Neese,F.
     An improvement of the resolution of the identity approximation for the formation of the Coulomb matrix
     J. Comp. Chem., 2003 24(14)1740-1747
     doi.org/10.1002/jcc.10318
  2. Neese,F.
     The SHARK Integral Generation and Digestion System
     J. Comp. Chem., 2022  1-16
     doi.org/10.1002/jcc.26942
  3. Lehtola,S.; Steigemann,C.; Oliveira,M.; Marques,M.
     Recent developments in Libxc - A comprehensive library of functionals for density functional theory
     Software X, 2018 7 
     doi.org/10.1016/j.softx.2017.11.002
  4. Caldeweyher,E.; Bannwarth,C.; Grimme,S.
     Extension of the D3 dispersion coefficient model
     J. Chem. Phys., 2017 147 034112
     doi.org/10.1063/1.4993215
  5. Caldeweyher,E.; Ehlert,S.; Hansen,A.; Neugebauer,H.; Spicher,S.; Bannwarth,C.; Grimme,S.
     A generally applicable atomic-charge dependent London dispersion correction
     J. Chem. Phys., 2019 150 154122
     doi.org/10.1063/1.5090222
  6. Caldeweyher,E.; Mewes,J.; Ehlert,S.; Grimme,S.
     Extension and evaluation of the D4 London-dispersion model for periodic systems
     Phys. Chem. Chem. Phys., 2020 22(16)8499-8512
     doi.org/10.1039/D0CP00502A
  7. Wittmann,L.; Gordiy,I.; Friede,M.; Helmich-Paris,B.; Grimme,S.; Hansen,A.; Bursch,M.
     Extension of the D3 and D4 London Dispersion Corrections to the full Actinides Series
     Phys. Chem. Chem. Phys., 2024 26(32)21379-21394
     doi.org/https://doi.org/10.1039/D4CP01514B 

List of suggested additional citations. These are papers that are important in the 'surrounding' of 
of this run, or papers that preceded the highly important papers. If you like your results we are grateful for a citation.

  1. Neese,F.
     The ORCA program system
     WIRES Comput. Molec. Sci., 2012 2(1)73-78
     doi.org/10.1002/wcms.81
  2. Neese,F.
     Software update: the ORCA program system, version 4.0
     WIRES Comput. Molec. Sci., 2018 8(1)1-6
     doi.org/10.1002/wcms.1327
  3. Neese,F.; Wennmohs,F.; Becker,U.; Riplinger,C.
     The ORCA quantum chemistry program package
     J. Chem. Phys., 2020 152 Art. No. L224108
     doi.org/10.1063/5.0004608

List of optional additional citations

  1. Neese,F.
     Approximate second-order SCF convergence for spin unrestricted wavefunctions
     Chem. Phys. Lett., 2000 325(1-3)93-98
     doi.org/10.1016/s0009-2614(00)00662-x

Timings for individual modules:

Sum of individual times          ...        7.230 sec (=   0.121 min)
Startup calculation              ...        0.424 sec (=   0.007 min)   5.9 %
SCF iterations                   ...        3.152 sec (=   0.053 min)  43.6 %
Property calculations            ...        0.042 sec (=   0.001 min)   0.6 %
SCF Gradient evaluation          ...        3.613 sec (=   0.060 min)  50.0 %
                             ****ORCA TERMINATED NORMALLY****
TOTAL RUN TIME: 0 days 0 hours 0 minutes 7 seconds 308 msec
  ------------------------------------------------------------------------
          * successful ORCA run, taking over control again...

         :::::::::::::::::::::::::::::::::::::::::::::::::::::
         ::                  ORCA SUMMARY                   ::
         :::::::::::::::::::::::::::::::::::::::::::::::::::::
         :: total energy            -307.634572773106 Eh    ::
         :: gradient norm              0.000950220238 Eh/a0 ::
         :: HOMO-LUMO gap              0.000000000000 eV    ::
         :::::::::::::::::::::::::::::::::::::::::::::::::::::

           -------------------------------------------------
          |                Property Printout                |
           -------------------------------------------------
           -------------------------------------------------
          |                Geometry Summary                 |
           -------------------------------------------------

      molecular mass/u    :       88.1052794
   center of mass at/Å    :        0.0145459       0.0701623       0.1763775
  moments of inertia/u·Å² :        0.5325723E+02   0.2358839E+03   0.2796040E+03
rotational constants/cm⁻¹ :        0.3165323E+00   0.7146581E-01   0.6029111E-01

 * 12 selected distances

     #   Z          #   Z                                           value/Å
     1   6          2   6                                         1.5219124 (max)
     3   6          4   8                                         1.2087079
     3   6          5   8                                         1.3559187
     5   8          6   6                                         1.4439065
     1   6          7   1                                         1.0925305
     1   6          8   1                                         1.0928326
     1   6          9   1                                         1.0931675
     2   6         10   1                                         1.0961981
     2   6         11   1                                         1.0971251
     6   6         12   1                                         1.0930486
     6   6         13   1                                         1.0899625 (min)
     6   6         14   1                                         1.0931879

 * 3 distinct bonds (by element types)

   Z      Z             #   av. dist./Å        max./Å        min./Å
   1 H    6 C           8     1.0935066     1.0971251     1.0899625
   6 C    6 C           1     1.5219124     1.5219124     1.5219124
   6 C    8 O           3     1.3361777     1.4439065     1.2087079


optimized geometry written to: xtbopt.coord


           -------------------------------------------------
          | TOTAL ENERGY             -307.634572773106 Eh   |
          | GRADIENT NORM               0.000950220238 Eh/α |
           -------------------------------------------------

------------------------------------------------------------------------
 * finished run on 2025/04/08 at 22:36:11.893     
------------------------------------------------------------------------
 total:
 * wall-time:     0 d,  0 h,  1 min, 11.710 sec
 *  cpu-time:     0 d,  0 h,  0 min,  0.506 sec
 * ratio c/w:     0.007 speedup
 SCF:
 * wall-time:     0 d,  0 h,  0 min,  6.617 sec
 *  cpu-time:     0 d,  0 h,  0 min,  0.071 sec
 * ratio c/w:     0.011 speedup
 ANC optimizer:
 * wall-time:     0 d,  0 h,  1 min,  4.888 sec
 *  cpu-time:     0 d,  0 h,  0 min,  0.006 sec
 * ratio c/w:     0.000 speedup

