 Entering Gaussian System
 *********************************************
 Gaussian 98:
 frequency output generated by the xtb code
 *********************************************
                         Standard orientation:
 --------------------------------------------------------------------
  Center     Atomic     Atomic              Coordinates (Angstroms)
  Number     Number      Type              X           Y           Z
 --------------------------------------------------------------------
    1          6             0       -2.508006    0.727692   -0.002842
    2          6             0       -1.222764   -0.039583   -0.022977
    3          6             0       -1.190641   -1.421708   -0.096259
    4          6             0        0.013118   -2.104335   -0.113084
    5          6             0        1.201657   -1.401735   -0.056101
    6          6             0        1.208429   -0.016119    0.018011
    7          6             0       -0.013190    0.659085    0.034004
    8          8             0       -0.081436    2.021995    0.105409
    9          6             0        2.503226    0.748248    0.079958
   10          1             0       -3.361262    0.057025   -0.054691
   11          1             0       -2.573806    1.322138    0.907245
   12          1             0       -2.543417    1.419028   -0.843505
   13          1             0       -2.121451   -1.968095   -0.140630
   14          1             0        0.024535   -3.182246   -0.170503
   15          1             0        2.142782   -1.932353   -0.069033
   16          1             0        0.811256    2.383823    0.139076
   17          1             0        3.343437    0.059535    0.059643
   18          1             0        2.603501    1.424168   -0.771821
   19          1             0        2.572303    1.333794    0.999091
 --------------------------------------------------------------------
     1 basis functions        1 primitive gaussians
     1 alpha electrons        1 beta electrons

 Harmonic frequencies (cm**-1), IR intensities (km*mol⁻¹),
 Raman scattering activities (A**4/amu), Raman depolarization ratios,
 reduced masses (AMU), force constants (mDyne/A) and normal coordinates:
                      1                      2                      3
                        a                      a                      a 
 Frequencies --    70.3300               123.2797               165.3789
 Red. masses --     1.0209                 2.5275                 1.1740
 Frc consts  --     0.0000                 0.0000                 0.0000
 IR Inten    --     0.0149                 0.1027                 3.6441
 Raman Activ --     0.0000                 0.0000                 0.0000
 Depolar     --     0.0000                 0.0000                 0.0000
 Atom AN      X      Y      Z        X      Y      Z        X      Y      Z
   1   6     0.00   0.00  -0.03     0.01   0.02  -0.42     0.00   0.01  -0.13
   2   6    -0.00  -0.00   0.02     0.00   0.00  -0.03    -0.00  -0.00   0.04
   3   6     0.00   0.00  -0.01    -0.00  -0.00   0.05     0.00   0.00  -0.03
   4   6     0.00   0.00  -0.06    -0.00  -0.01   0.21     0.00   0.00  -0.01
   5   6     0.00   0.00  -0.05    -0.00  -0.00   0.06    -0.00   0.00   0.01
   6   6    -0.00  -0.00   0.01     0.00   0.00  -0.02    -0.00  -0.00   0.06
   7   6    -0.00  -0.00   0.02    -0.00  -0.01   0.15    -0.00  -0.01   0.13
   8   8    -0.00  -0.00   0.06    -0.01  -0.03   0.50    -0.01  -0.01   0.26
   9   6    -0.00  -0.00   0.05     0.01   0.02  -0.40     0.00   0.01  -0.21
  10   1    -0.01  -0.03   0.54     0.00   0.01  -0.17     0.00   0.00  -0.05
  11   1     0.25   0.45  -0.29    -0.07   0.03  -0.14    -0.03   0.02  -0.05
  12   1    -0.24  -0.41  -0.34     0.07  -0.02  -0.14     0.03  -0.02  -0.06
  13   1     0.00  -0.00  -0.00     0.00   0.00  -0.01     0.00   0.00  -0.03
  14   1     0.00   0.00  -0.03    -0.00  -0.01   0.10     0.00   0.00  -0.02
  15   1     0.00   0.00  -0.02    -0.00  -0.00   0.00     0.00   0.00  -0.01
  16   1    -0.00  -0.00   0.04    -0.00  -0.01   0.18    -0.00   0.00  -0.02
  17   1    -0.00  -0.00   0.01     0.01   0.02  -0.37    -0.01  -0.02   0.43
  18   1     0.00   0.01   0.02    -0.16   0.14  -0.03     0.18  -0.40  -0.36
  19   1    -0.00  -0.01   0.02     0.16  -0.13  -0.04    -0.16   0.44  -0.33
                      4                      5                      6
                        a                      a                      a 
 Frequencies --   214.4003               266.5553               277.8083
 Red. masses --     2.9853                 2.8366                 3.5930
 Frc consts  --     0.0000                 0.0000                 0.0000
 IR Inten    --     0.4037                 2.4284                 1.6351
 Raman Activ --     0.0000                 0.0000                 0.0000
 Depolar     --     0.0000                 0.0000                 0.0000
 Atom AN      X      Y      Z        X      Y      Z        X      Y      Z
   1   6     0.00   0.01  -0.27    -0.39  -0.47  -0.03     0.00   0.01  -0.12
   2   6    -0.00  -0.01   0.17    -0.01   0.15   0.01    -0.01  -0.02   0.42
   3   6    -0.01  -0.03   0.51     0.04   0.14   0.01    -0.00  -0.00   0.02
   4   6    -0.00  -0.00   0.00    -0.02   0.07   0.00     0.01   0.02  -0.34
   5   6     0.01   0.03  -0.51    -0.04   0.07   0.00    -0.00  -0.00   0.03
   6   6     0.00   0.01  -0.17    -0.03   0.06   0.00    -0.01  -0.02   0.42
   7   6    -0.00  -0.00   0.01     0.00   0.19   0.01    -0.01  -0.02   0.40
   8   8    -0.00  -0.00   0.03     0.29   0.25   0.02     0.01   0.02  -0.35
   9   6    -0.00  -0.01   0.25     0.16  -0.25  -0.01     0.00   0.01  -0.11
  10   1     0.00   0.01  -0.16     0.00  -0.28  -0.01     0.00   0.01  -0.10
  11   1    -0.10   0.03  -0.10    -0.23  -0.15  -0.01    -0.11   0.06  -0.08
  12   1     0.10  -0.02  -0.10    -0.23  -0.15  -0.01     0.11  -0.05  -0.08
  13   1    -0.00  -0.01   0.27     0.01   0.05   0.00     0.00   0.00  -0.07
  14   1    -0.00  -0.00   0.00    -0.02   0.02   0.00     0.00   0.01  -0.27
  15   1     0.00   0.01  -0.28    -0.01   0.02   0.00     0.00   0.00  -0.07
  16   1     0.00   0.00  -0.05     0.10   0.00   0.00     0.00   0.01  -0.14
  17   1    -0.00  -0.01   0.14    -0.01  -0.15  -0.01     0.00   0.01  -0.16
  18   1     0.09   0.02   0.10     0.10  -0.08  -0.00    -0.13   0.00  -0.05
  19   1    -0.10  -0.03   0.09     0.10  -0.08  -0.00     0.13   0.00  -0.04
                      7                      8                      9
                        a                      a                      a 
 Frequencies --   310.6158               394.5692               469.0420
 Red. masses --     3.4750                 1.1011                 3.5967
 Frc consts  --     0.0000                 0.0000                 0.0000
 IR Inten    --     1.3210               135.8825                 3.3020
 Raman Activ --     0.0000                 0.0000                 0.0000
 Depolar     --     0.0000                 0.0000                 0.0000
 Atom AN      X      Y      Z        X      Y      Z        X      Y      Z
   1   6     0.11   0.05   0.00     0.00   0.00  -0.02     0.05  -0.22  -0.01
   2   6     0.05  -0.04  -0.00    -0.00  -0.00   0.02     0.19   0.10   0.01
   3   6     0.02  -0.03  -0.00     0.00   0.00  -0.08    -0.25   0.16   0.00
   4   6     0.05   0.04   0.00    -0.00  -0.00   0.04    -0.33   0.09  -0.00
   5   6    -0.03   0.13   0.01    -0.00  -0.00   0.05    -0.15  -0.11  -0.01
   6   6     0.04   0.15   0.01     0.00   0.01  -0.09     0.35  -0.07   0.00
   7   6    -0.01   0.08   0.01    -0.00  -0.00   0.02     0.30  -0.09   0.00
   8   8    -0.62   0.09  -0.01    -0.01  -0.01   0.27    -0.23  -0.17  -0.01
   9   6     0.37  -0.41  -0.02     0.00  -0.00   0.02     0.24   0.29   0.02
  10   1     0.01   0.04   0.00    -0.00  -0.00   0.00     0.10  -0.17  -0.01
  11   1     0.05   0.02   0.00     0.00   0.01  -0.01    -0.07  -0.07  -0.00
  12   1     0.05   0.02   0.00    -0.00  -0.01  -0.01    -0.07  -0.07  -0.01
  13   1     0.01  -0.01  -0.00     0.00   0.00  -0.06    -0.11   0.11   0.00
  14   1     0.04   0.01   0.00    -0.00  -0.00   0.03    -0.13   0.03  -0.00
  15   1    -0.00   0.04   0.00    -0.00  -0.00   0.04    -0.10  -0.13  -0.01
  16   1    -0.20   0.13   0.01     0.01   0.05  -0.94    -0.11   0.09   0.00
  17   1     0.01  -0.24  -0.01     0.00   0.00  -0.04     0.14   0.17   0.01
  18   1     0.20  -0.12   0.00     0.02   0.06   0.05    -0.01   0.09   0.01
  19   1     0.20  -0.13  -0.01    -0.02  -0.06   0.04    -0.01   0.09   0.00
                     10                     11                     12
                        a                      a                      a 
 Frequencies --   471.5395               486.9069               513.6465
 Red. masses --     5.5009                 3.4339                 3.9889
 Frc consts  --     0.0000                 0.0000                 0.0000
 IR Inten    --     0.1239                 3.4149                 2.6870
 Raman Activ --     0.0000                 0.0000                 0.0000
 Depolar     --     0.0000                 0.0000                 0.0000
 Atom AN      X      Y      Z        X      Y      Z        X      Y      Z
   1   6    -0.37   0.19   0.00    -0.00  -0.00   0.02     0.00   0.00  -0.03
   2   6    -0.34   0.03  -0.00     0.01   0.03  -0.57    -0.00  -0.00   0.07
   3   6    -0.10   0.04   0.00    -0.00  -0.01   0.25    -0.01  -0.02   0.35
   4   6     0.10   0.32   0.02     0.00   0.00  -0.04     0.01   0.03  -0.49
   5   6     0.22   0.12   0.01     0.00   0.01  -0.19    -0.01  -0.02   0.39
   6   6     0.17   0.07   0.01    -0.01  -0.03   0.58     0.00   0.00  -0.03
   7   6    -0.08  -0.31  -0.02     0.00   0.00  -0.05     0.01   0.03  -0.50
   8   8     0.07  -0.44  -0.02    -0.00  -0.00   0.05    -0.00  -0.01   0.20
   9   6     0.28   0.04   0.01     0.00   0.00  -0.01     0.00   0.00  -0.03
  10   1    -0.11   0.07   0.00    -0.00  -0.00   0.09     0.00   0.00  -0.04
  11   1    -0.09   0.05   0.00     0.14  -0.08   0.07    -0.04   0.02  -0.03
  12   1    -0.09   0.05   0.00    -0.14   0.07   0.07     0.04  -0.02  -0.03
  13   1     0.03  -0.08  -0.00    -0.00  -0.01   0.20    -0.00  -0.01   0.23
  14   1     0.04   0.09   0.01     0.00   0.00  -0.02     0.00   0.01  -0.24
  15   1     0.04  -0.01   0.00     0.00   0.01  -0.16    -0.00  -0.01   0.26
  16   1     0.03  -0.14  -0.01     0.00   0.01  -0.13    -0.00  -0.00   0.01
  17   1     0.04  -0.04  -0.00     0.00   0.01  -0.10     0.00   0.00  -0.02
  18   1     0.12   0.00   0.00    -0.15  -0.07  -0.08    -0.01  -0.01  -0.01
  19   1     0.12   0.00   0.00     0.15   0.07  -0.07     0.02   0.01  -0.01
                     13                     14                     15
                        a                      a                      a 
 Frequencies --   526.1595               669.4576               703.6434
 Red. masses --     5.0430                 6.6498                 4.8400
 Frc consts  --     0.0000                 0.0000                 0.0000
 IR Inten    --     3.0013                 5.9975                 4.5005
 Raman Activ --     0.0000                 0.0000                 0.0000
 Depolar     --     0.0000                 0.0000                 0.0000
 Atom AN      X      Y      Z        X      Y      Z        X      Y      Z
   1   6     0.20  -0.13  -0.00     0.00   0.00  -0.04    -0.35   0.21   0.01
   2   6     0.01  -0.32  -0.02     0.01   0.02  -0.40    -0.15  -0.05  -0.01
   3   6    -0.31  -0.35  -0.02    -0.00  -0.01   0.28     0.06  -0.22  -0.01
   4   6    -0.15   0.00  -0.00     0.00   0.01  -0.25     0.00  -0.48  -0.03
   5   6    -0.32   0.34   0.01    -0.00  -0.01   0.27    -0.05  -0.22  -0.01
   6   6     0.00   0.32   0.02     0.01   0.02  -0.39     0.15  -0.05  -0.00
   7   6    -0.11  -0.00  -0.00    -0.01  -0.03   0.62    -0.01   0.10   0.01
   8   8     0.28   0.03   0.01     0.00   0.01  -0.10    -0.01   0.35   0.02
   9   6     0.20   0.14   0.01     0.00   0.00  -0.05     0.36   0.21   0.02
  10   1     0.00   0.04   0.00    -0.00  -0.00   0.05    -0.15   0.12   0.00
  11   1     0.11  -0.03  -0.00     0.10  -0.06   0.04    -0.06   0.07   0.00
  12   1     0.11  -0.03   0.00    -0.10   0.06   0.04    -0.06   0.06   0.00
  13   1    -0.09  -0.09  -0.01    -0.00  -0.00   0.05     0.01  -0.06  -0.00
  14   1     0.09   0.00   0.00     0.00   0.00  -0.07    -0.00  -0.14  -0.01
  15   1    -0.10   0.08   0.00    -0.00  -0.00   0.05    -0.00  -0.06  -0.00
  16   1     0.12  -0.12  -0.00     0.00  -0.00   0.00    -0.00   0.08   0.00
  17   1    -0.00  -0.03  -0.00    -0.00  -0.00   0.05     0.15   0.12   0.01
  18   1     0.12   0.03   0.00     0.10   0.05   0.04     0.06   0.07   0.01
  19   1     0.12   0.03   0.01    -0.10  -0.05   0.03     0.06   0.07   0.00
                     16                     17                     18
                        a                      a                      a 
 Frequencies --   795.8061               814.8546               892.9401
 Red. masses --     1.2013                 5.4882                 1.3014
 Frc consts  --     0.0000                 0.0000                 0.0000
 IR Inten    --    17.3580                12.1022                 0.0071
 Raman Activ --     0.0000                 0.0000                 0.0000
 Depolar     --     0.0000                 0.0000                 0.0000
 Atom AN      X      Y      Z        X      Y      Z        X      Y      Z
   1   6    -0.00  -0.00   0.02     0.04  -0.10  -0.00    -0.00  -0.00   0.03
   2   6    -0.00  -0.00   0.04    -0.09  -0.18  -0.01    -0.00  -0.00   0.03
   3   6     0.00   0.01  -0.18    -0.39  -0.21  -0.02     0.01   0.02  -0.34
   4   6     0.00   0.01  -0.27    -0.01   0.43   0.02     0.00   0.00  -0.02
   5   6     0.00   0.01  -0.20     0.39  -0.20  -0.00    -0.01  -0.02   0.35
   6   6    -0.00  -0.00   0.04     0.10  -0.18  -0.01     0.00   0.00  -0.03
   7   6    -0.00  -0.01   0.16    -0.00   0.01   0.00    -0.00  -0.00   0.00
   8   8     0.00   0.00  -0.04    -0.00   0.45   0.02    -0.00  -0.00   0.00
   9   6    -0.00  -0.00   0.03    -0.03  -0.10  -0.01     0.00   0.00  -0.02
  10   1     0.00   0.00  -0.03    -0.05   0.05   0.00     0.00   0.00  -0.02
  11   1    -0.05   0.03  -0.02     0.07  -0.01  -0.00    -0.03   0.02  -0.01
  12   1     0.05  -0.03  -0.02     0.07  -0.01   0.01     0.04  -0.02  -0.01
  13   1    -0.01  -0.02   0.46    -0.05  -0.16  -0.01    -0.01  -0.03   0.60
  14   1    -0.01  -0.03   0.59    -0.00   0.12   0.01    -0.00  -0.00   0.04
  15   1    -0.01  -0.03   0.49     0.05  -0.15  -0.01     0.01   0.03  -0.62
  16   1     0.00   0.00  -0.01    -0.00   0.11   0.01     0.00   0.00  -0.01
  17   1     0.00   0.00  -0.03     0.06   0.06   0.00    -0.00  -0.00   0.02
  18   1    -0.05  -0.03  -0.02    -0.08  -0.01   0.00     0.03   0.02   0.01
  19   1     0.05   0.03  -0.02    -0.08  -0.01  -0.00    -0.03  -0.02   0.01
                     19                     20                     21
                        a                      a                      a 
 Frequencies --   915.8327               937.9999              1005.3204
 Red. masses --     1.2418                 2.3449                 1.4521
 Frc consts  --     0.0000                 0.0000                 0.0000
 IR Inten    --     0.6606                12.0141                12.4959
 Raman Activ --     0.0000                 0.0000                 0.0000
 Depolar     --     0.0000                 0.0000                 0.0000
 Atom AN      X      Y      Z        X      Y      Z        X      Y      Z
   1   6    -0.00  -0.00   0.01    -0.21   0.26   0.01    -0.13  -0.28  -0.02
   2   6    -0.00  -0.00   0.04     0.18  -0.01   0.00    -0.10  -0.04  -0.00
   3   6    -0.00  -0.01   0.21    -0.12  -0.28  -0.02     0.21   0.18   0.01
   4   6     0.01   0.02  -0.34     0.08  -0.01   0.00    -0.01   0.09   0.00
   5   6    -0.00  -0.01   0.18    -0.15   0.29   0.01    -0.21   0.15   0.00
   6   6    -0.00  -0.00   0.04     0.21   0.01   0.00     0.06  -0.03  -0.00
   7   6     0.00   0.01  -0.10     0.33  -0.01   0.01    -0.01  -0.03  -0.00
   8   8    -0.00  -0.00   0.01     0.04  -0.05  -0.00     0.02  -0.02  -0.00
   9   6    -0.00  -0.00   0.01    -0.19  -0.28  -0.02     0.14  -0.23  -0.01
  10   1     0.00  -0.00   0.00     0.05  -0.08  -0.00    -0.32   0.30   0.01
  11   1    -0.01   0.00  -0.00    -0.20   0.04   0.01     0.29  -0.01  -0.02
  12   1     0.01  -0.00  -0.00    -0.20   0.04  -0.01     0.29  -0.01   0.03
  13   1     0.01   0.02  -0.45    -0.02  -0.10  -0.01     0.06   0.06   0.00
  14   1    -0.01  -0.04   0.66     0.28   0.00   0.00    -0.02   0.03   0.00
  15   1     0.01   0.02  -0.39    -0.03   0.11   0.00    -0.05   0.05   0.00
  16   1     0.00  -0.00   0.00    -0.08   0.21   0.01    -0.01   0.03   0.00
  17   1    -0.00  -0.00  -0.00     0.09   0.11   0.01     0.30   0.27   0.02
  18   1    -0.01  -0.00  -0.00    -0.23  -0.04   0.00    -0.25   0.00   0.01
  19   1     0.01   0.00  -0.00    -0.23  -0.04  -0.01    -0.25   0.00  -0.02
                     22                     23                     24
                        a                      a                      a 
 Frequencies --  1028.6838              1036.2689              1036.9641
 Red. masses --     1.4141                 1.4351                 1.5400
 Frc consts  --     0.0000                 0.0000                 0.0000
 IR Inten    --    11.3807                 1.2063                13.4491
 Raman Activ --     0.0000                 0.0000                 0.0000
 Depolar     --     0.0000                 0.0000                 0.0000
 Atom AN      X      Y      Z        X      Y      Z        X      Y      Z
   1   6    -0.00  -0.01   0.22    -0.01  -0.02   0.37    -0.28  -0.14  -0.01
   2   6     0.00   0.01  -0.17     0.01   0.02  -0.31     0.11  -0.06  -0.00
   3   6    -0.00  -0.00   0.02    -0.00  -0.00   0.05    -0.04   0.02   0.00
   4   6    -0.00  -0.00   0.04    -0.00  -0.00   0.01     0.01  -0.01  -0.00
   5   6    -0.00  -0.00   0.04     0.00   0.00  -0.03    -0.02  -0.04  -0.00
   6   6     0.01   0.02  -0.30    -0.00  -0.01   0.19     0.13   0.08   0.01
   7   6    -0.00  -0.00   0.05     0.00  -0.00   0.01     0.35   0.01   0.01
   8   8     0.00   0.00  -0.01     0.00  -0.00  -0.00     0.05  -0.05  -0.00
   9   6    -0.01  -0.02   0.37     0.00   0.01  -0.22    -0.29   0.15   0.00
  10   1     0.00   0.01  -0.12     0.00   0.01  -0.20    -0.32   0.28   0.01
  11   1    -0.22   0.16  -0.08    -0.37   0.27  -0.12     0.17   0.02  -0.02
  12   1     0.23  -0.15  -0.08     0.38  -0.26  -0.14     0.17   0.02   0.03
  13   1     0.00   0.00  -0.04     0.00   0.00  -0.05    -0.05   0.07   0.00
  14   1     0.00   0.00  -0.06     0.00   0.00  -0.02     0.04  -0.00   0.00
  15   1     0.00   0.00  -0.06    -0.00  -0.00   0.03    -0.04  -0.08  -0.01
  16   1     0.00   0.00  -0.02    -0.00   0.00   0.00    -0.10   0.26   0.01
  17   1     0.00   0.01  -0.19    -0.00  -0.01   0.12    -0.35  -0.30  -0.02
  18   1    -0.38  -0.25  -0.15     0.23   0.15   0.09     0.18  -0.02  -0.01
  19   1     0.39   0.26  -0.11    -0.23  -0.15   0.07     0.18  -0.02   0.02
                     25                     26                     27
                        a                      a                      a 
 Frequencies --  1129.4071              1169.8931              1201.6267
 Red. masses --     1.6156                 1.2113                 1.3333
 Frc consts  --     0.0000                 0.0000                 0.0000
 IR Inten    --    18.6626               101.8918                52.0114
 Raman Activ --     0.0000                 0.0000                 0.0000
 Depolar     --     0.0000                 0.0000                 0.0000
 Atom AN      X      Y      Z        X      Y      Z        X      Y      Z
   1   6    -0.05  -0.06  -0.00    -0.11   0.01  -0.00     0.14  -0.06  -0.00
   2   6     0.11   0.06   0.00     0.22   0.05   0.01    -0.23   0.11   0.00
   3   6    -0.36   0.01  -0.01     0.04  -0.03  -0.00    -0.07   0.11   0.00
   4   6     0.02  -0.23  -0.01     0.00   0.02   0.00     0.14   0.01   0.00
   5   6     0.36   0.00   0.01     0.01   0.04   0.00    -0.08  -0.11  -0.01
   6   6    -0.14   0.06   0.00     0.19  -0.08  -0.00    -0.23  -0.12  -0.01
   7   6    -0.00   0.15   0.01    -0.09   0.00  -0.00    -0.09   0.00  -0.00
   8   8     0.01  -0.16  -0.01    -0.20   0.14   0.00     0.12  -0.09  -0.00
   9   6     0.06  -0.06  -0.00    -0.09  -0.02  -0.00     0.14   0.07   0.01
  10   1    -0.09   0.08   0.00    -0.08   0.07   0.00     0.07  -0.05  -0.00
  11   1     0.03   0.00  -0.01     0.00   0.02  -0.01     0.03  -0.02   0.00
  12   1     0.03   0.00   0.01    -0.00   0.02   0.01     0.03  -0.02  -0.00
  13   1    -0.35   0.41   0.02    -0.17   0.30   0.01    -0.10   0.16   0.01
  14   1     0.02  -0.07  -0.00     0.42   0.01   0.01     0.68   0.01   0.01
  15   1     0.32   0.39   0.03    -0.16  -0.29  -0.02    -0.12  -0.20  -0.01
  16   1    -0.01  -0.02  -0.00     0.22  -0.60  -0.03    -0.14   0.38   0.02
  17   1     0.10   0.08   0.01    -0.03  -0.01  -0.00     0.03   0.02   0.00
  18   1    -0.03   0.00   0.01    -0.00  -0.02  -0.01     0.03   0.03   0.01
  19   1    -0.03   0.01  -0.01    -0.00  -0.02   0.01     0.03   0.03  -0.01
                     28                     29                     30
                        a                      a                      a 
 Frequencies --  1209.9463              1258.6336              1308.8129
 Red. masses --     4.8173                 1.3484                 3.0286
 Frc consts  --     0.0000                 0.0000                 0.0000
 IR Inten    --    64.8147                17.3207                55.0701
 Raman Activ --     0.0000                 0.0000                 0.0000
 Depolar     --     0.0000                 0.0000                 0.0000
 Atom AN      X      Y      Z        X      Y      Z        X      Y      Z
   1   6     0.15  -0.05  -0.00    -0.00  -0.10  -0.01     0.10  -0.13  -0.01
   2   6    -0.38   0.07  -0.00    -0.03   0.24   0.01    -0.24   0.30   0.01
   3   6    -0.00   0.15   0.01    -0.15   0.11   0.00    -0.25   0.06  -0.00
   4   6     0.00  -0.22  -0.01    -0.05  -0.00  -0.00     0.04  -0.31  -0.02
   5   6     0.01   0.16   0.01    -0.16  -0.09  -0.01     0.20  -0.02   0.00
   6   6     0.38   0.08   0.01    -0.03  -0.26  -0.01     0.21   0.37   0.02
   7   6    -0.02  -0.54  -0.03     0.20  -0.03   0.00     0.03   0.32   0.02
   8   8     0.00   0.34   0.02    -0.11   0.08   0.00    -0.01  -0.18  -0.01
   9   6    -0.15  -0.05  -0.01    -0.01   0.09   0.00    -0.10  -0.14  -0.01
  10   1     0.11  -0.10  -0.00    -0.03   0.02   0.00     0.03  -0.02  -0.00
  11   1     0.04  -0.03   0.01     0.09   0.01  -0.01     0.10  -0.00  -0.01
  12   1     0.04  -0.03  -0.01     0.09   0.01   0.02     0.10  -0.01   0.01
  13   1    -0.10   0.20   0.01     0.22  -0.42  -0.02     0.11  -0.31  -0.01
  14   1     0.01  -0.06  -0.00     0.34   0.00   0.01     0.02  -0.09  -0.00
  15   1     0.08   0.16   0.01     0.23   0.47   0.03    -0.10  -0.30  -0.02
  16   1     0.00   0.06   0.00     0.09  -0.26  -0.01     0.03  -0.11  -0.01
  17   1    -0.10  -0.09  -0.01    -0.02  -0.01  -0.00     0.00   0.01   0.00
  18   1    -0.04  -0.03  -0.01     0.10  -0.01  -0.01    -0.10  -0.00   0.01
  19   1    -0.04  -0.03   0.01     0.10  -0.01   0.01    -0.10  -0.00  -0.01
                     31                     32                     33
                        a                      a                      a 
 Frequencies --  1342.1116              1403.3435              1403.6046
 Red. masses --     6.0880                 1.2272                 1.2572
 Frc consts  --     0.0000                 0.0000                 0.0000
 IR Inten    --    18.2345                 3.1764                 4.1608
 Raman Activ --     0.0000                 0.0000                 0.0000
 Depolar     --     0.0000                 0.0000                 0.0000
 Atom AN      X      Y      Z        X      Y      Z        X      Y      Z
   1   6     0.01  -0.08  -0.00     0.27  -0.18  -0.01     0.26  -0.16  -0.00
   2   6     0.15   0.38   0.02    -0.03  -0.01  -0.00    -0.07   0.01  -0.00
   3   6     0.15  -0.29  -0.01    -0.02   0.05   0.00     0.02   0.00   0.00
   4   6    -0.41  -0.05  -0.01     0.03  -0.01   0.00    -0.01  -0.01  -0.00
   5   6     0.22   0.31   0.02    -0.02  -0.04  -0.00    -0.01   0.01   0.00
   6   6     0.19  -0.30  -0.01    -0.02   0.02   0.00     0.07   0.01   0.00
   7   6    -0.41   0.03  -0.00     0.02  -0.00   0.00    -0.01  -0.01  -0.00
   8   8     0.06  -0.08  -0.00    -0.01   0.01   0.00     0.01   0.01   0.00
   9   6     0.01   0.06   0.00     0.23   0.16   0.01    -0.27  -0.19  -0.01
  10   1    -0.04   0.05   0.00    -0.22   0.30   0.01    -0.19   0.26   0.01
  11   1     0.05   0.04  -0.03    -0.33   0.16  -0.14    -0.29   0.14  -0.13
  12   1     0.05   0.03   0.04    -0.33   0.14   0.15    -0.29   0.13   0.13
  13   1     0.04  -0.08  -0.00     0.02  -0.03  -0.00     0.01  -0.00  -0.00
  14   1     0.04  -0.01   0.00     0.01  -0.00   0.00     0.01  -0.00   0.00
  15   1     0.02   0.01   0.00     0.02   0.02   0.00    -0.01  -0.00  -0.00
  16   1    -0.08   0.21   0.01     0.01  -0.03  -0.00    -0.01   0.03   0.00
  17   1    -0.07  -0.07  -0.01    -0.19  -0.24  -0.01     0.20   0.26   0.02
  18   1     0.02  -0.03  -0.02    -0.28  -0.15  -0.17     0.31   0.17   0.19
  19   1     0.02  -0.03   0.02    -0.29  -0.17   0.14     0.32   0.19  -0.16
                     34                     35                     36
                        a                      a                      a 
 Frequencies --  1460.1013              1467.9983              1469.2874
 Red. masses --     2.6834                 1.0566                 2.2084
 Frc consts  --     0.0000                 0.0000                 0.0000
 IR Inten    --    71.9186                 2.9075                10.5325
 Raman Activ --     0.0000                 0.0000                 0.0000
 Depolar     --     0.0000                 0.0000                 0.0000
 Atom AN      X      Y      Z        X      Y      Z        X      Y      Z
   1   6     0.14   0.10   0.01    -0.00  -0.01   0.22     0.02  -0.12  -0.00
   2   6    -0.33  -0.20  -0.02     0.00  -0.01   0.04    -0.27   0.21   0.01
   3   6     0.16  -0.03   0.00     0.00   0.00   0.00    -0.06  -0.26  -0.01
   4   6    -0.09   0.12   0.00    -0.01  -0.00  -0.00     0.37   0.04   0.01
   5   6    -0.11  -0.12  -0.01     0.00  -0.00  -0.00    -0.15   0.20   0.01
   6   6     0.39  -0.11   0.00     0.00   0.01  -0.00    -0.03  -0.32  -0.02
   7   6    -0.05   0.46   0.02    -0.00  -0.00  -0.00     0.19   0.16   0.01
   8   8     0.01  -0.14  -0.01     0.00   0.00  -0.00    -0.05  -0.03  -0.00
   9   6    -0.12   0.04   0.00     0.00  -0.00   0.00    -0.04   0.12   0.01
  10   1    -0.03   0.08   0.00     0.01   0.04  -0.72     0.10  -0.13  -0.02
  11   1    -0.08  -0.25   0.17     0.43   0.16  -0.06     0.09   0.19  -0.13
  12   1    -0.07  -0.23  -0.19    -0.43  -0.16  -0.10     0.07   0.17   0.15
  13   1    -0.04   0.13   0.01     0.00  -0.00  -0.00    -0.15   0.14   0.01
  14   1     0.06   0.04   0.00     0.00  -0.00   0.00    -0.27   0.01  -0.00
  15   1     0.10   0.18   0.01     0.00   0.00   0.00    -0.11  -0.05  -0.00
  16   1    -0.00  -0.01  -0.00    -0.00   0.00   0.00     0.02  -0.07  -0.00
  17   1    -0.01   0.01  -0.00    -0.00  -0.00   0.00     0.07   0.10   0.01
  18   1     0.04  -0.12  -0.09    -0.00   0.00   0.00     0.11  -0.17  -0.13
  19   1     0.04  -0.13   0.08    -0.00   0.00  -0.00     0.11  -0.18   0.12
                     37                     38                     39
                        a                      a                      a 
 Frequencies --  1490.9856              1497.4177              1500.9439
 Red. masses --     1.4284                 1.0553                 1.2675
 Frc consts  --     0.0000                 0.0000                 0.0000
 IR Inten    --    40.3952                 4.6285                 5.2297
 Raman Activ --     0.0000                 0.0000                 0.0000
 Depolar     --     0.0000                 0.0000                 0.0000
 Atom AN      X      Y      Z        X      Y      Z        X      Y      Z
   1   6     0.12   0.08   0.01    -0.00  -0.00   0.00     0.06  -0.01   0.00
   2   6     0.07   0.22   0.01     0.00  -0.00  -0.00    -0.15   0.15   0.01
   3   6    -0.16   0.00  -0.00     0.00   0.00  -0.00     0.00  -0.17  -0.01
   4   6     0.18  -0.12  -0.00    -0.00  -0.00  -0.00     0.17   0.06   0.01
   5   6     0.05   0.24   0.01     0.00  -0.00   0.00    -0.11   0.05   0.00
   6   6    -0.21  -0.13  -0.01    -0.00   0.00   0.03     0.03  -0.21  -0.01
   7   6     0.09  -0.19  -0.01    -0.00  -0.00  -0.00     0.08   0.12   0.01
   8   8    -0.02   0.07   0.00     0.00   0.00  -0.00    -0.03  -0.02  -0.00
   9   6     0.02   0.05   0.00    -0.01  -0.01   0.22     0.16  -0.09   0.00
  10   1    -0.20   0.27   0.01     0.00  -0.00  -0.00    -0.02   0.04   0.00
  11   1    -0.10  -0.40   0.25     0.00   0.00  -0.00    -0.00  -0.08   0.05
  12   1    -0.09  -0.37  -0.30    -0.00   0.00   0.00    -0.00  -0.07  -0.05
  13   1     0.00  -0.08  -0.00     0.00  -0.00   0.00    -0.08   0.08   0.00
  14   1    -0.12  -0.04  -0.00     0.00  -0.00   0.00    -0.11   0.02  -0.00
  15   1    -0.11  -0.14  -0.01     0.00   0.00  -0.00    -0.01   0.05   0.00
  16   1     0.01  -0.01  -0.00    -0.00   0.00   0.02     0.02  -0.08  -0.00
  17   1     0.07   0.08   0.00     0.02   0.04  -0.71    -0.24  -0.31  -0.03
  18   1     0.06  -0.08  -0.06     0.42  -0.19  -0.08    -0.15   0.41   0.30
  19   1     0.06  -0.08   0.05    -0.42   0.19  -0.07    -0.15   0.44  -0.26
                     40                     41                     42
                        a                      a                      a 
 Frequencies --  1598.1484              1602.9759              2973.8939
 Red. masses --     8.3124                 7.2687                 1.0931
 Frc consts  --     0.0000                 0.0000                 0.0000
 IR Inten    --    11.1865                 8.0823                36.8383
 Raman Activ --     0.0000                 0.0000                 0.0000
 Depolar     --     0.0000                 0.0000                 0.0000
 Atom AN      X      Y      Z        X      Y      Z        X      Y      Z
   1   6    -0.06   0.01  -0.00     0.02  -0.03  -0.00     0.00   0.00  -0.00
   2   6     0.31  -0.10  -0.00     0.12   0.45   0.03    -0.00  -0.00   0.00
   3   6    -0.32   0.30   0.01     0.07  -0.39  -0.02    -0.00   0.00  -0.00
   4   6     0.46  -0.06   0.00     0.17   0.21   0.01     0.00   0.00  -0.00
   5   6    -0.21  -0.02  -0.00    -0.25  -0.47  -0.03    -0.00  -0.00   0.00
   6   6     0.33  -0.19  -0.00     0.08   0.38   0.02    -0.00  -0.00   0.01
   7   6    -0.50   0.06  -0.00    -0.17  -0.17  -0.01     0.00   0.00  -0.00
   8   8     0.05  -0.03  -0.00     0.02  -0.00   0.00     0.00   0.00  -0.00
   9   6    -0.04   0.01  -0.00    -0.04  -0.03  -0.00    -0.01  -0.02   0.29
  10   1    -0.00  -0.00  -0.00    -0.05   0.06   0.00     0.00   0.00  -0.00
  11   1     0.00   0.03  -0.02     0.02  -0.06   0.03    -0.00   0.00   0.00
  12   1     0.00   0.03   0.02     0.02  -0.05  -0.04    -0.00  -0.00   0.00
  13   1     0.03  -0.10  -0.01    -0.08   0.06   0.00     0.00   0.00   0.00
  14   1    -0.09  -0.02  -0.00    -0.04   0.05   0.00     0.00  -0.00  -0.00
  15   1    -0.02   0.04   0.00     0.07   0.11   0.01    -0.00  -0.00   0.00
  16   1    -0.04   0.11   0.01    -0.01   0.04   0.00    -0.00  -0.00   0.00
  17   1    -0.04  -0.04  -0.00     0.03   0.04   0.00    -0.00  -0.00   0.04
  18   1     0.01   0.01   0.01    -0.01  -0.05  -0.03     0.05   0.44  -0.52
  19   1     0.01   0.01  -0.01    -0.01  -0.05   0.03    -0.03  -0.38  -0.56
                     43                     44                     45
                        a                      a                      a 
 Frequencies --  2984.0797              3008.8342              3025.4845
 Red. masses --     1.0527                 1.0919                 1.0497
 Frc consts  --     0.0000                 0.0000                 0.0000
 IR Inten    --    26.4862                21.6192                16.5059
 Raman Activ --     0.0000                 0.0000                 0.0000
 Depolar     --     0.0000                 0.0000                 0.0000
 Atom AN      X      Y      Z        X      Y      Z        X      Y      Z
   1   6    -0.00  -0.00  -0.00    -0.00  -0.01   0.29    -0.01   0.21   0.01
   2   6    -0.00   0.00   0.00    -0.00  -0.00   0.01    -0.01   0.01   0.00
   3   6    -0.00   0.00  -0.00    -0.00  -0.00   0.00    -0.00  -0.00  -0.00
   4   6     0.00  -0.00  -0.00     0.00   0.00  -0.00    -0.00  -0.00  -0.00
   5   6     0.00  -0.00  -0.00     0.00  -0.00  -0.00    -0.00  -0.00  -0.00
   6   6     0.01   0.01   0.00     0.00  -0.00   0.00     0.00   0.00   0.00
   7   6    -0.00   0.00   0.00     0.00   0.00  -0.00     0.00   0.00   0.00
   8   8     0.00  -0.00  -0.00     0.00   0.00  -0.00     0.00  -0.00  -0.00
   9   6     0.00   0.21   0.01    -0.00  -0.00   0.00    -0.00   0.00   0.00
  10   1     0.00  -0.00  -0.00    -0.00  -0.00   0.04     0.00   0.03   0.00
  11   1    -0.00   0.00   0.01     0.03  -0.39  -0.56     0.03  -0.35  -0.59
  12   1    -0.00   0.01  -0.01    -0.01   0.44  -0.50     0.01  -0.42   0.56
  13   1    -0.00  -0.00  -0.00    -0.00  -0.00   0.00     0.01   0.00   0.00
  14   1    -0.00  -0.00  -0.00     0.00   0.00  -0.00     0.00   0.00   0.00
  15   1    -0.01   0.00   0.00    -0.00   0.00   0.00     0.00  -0.00  -0.00
  16   1    -0.01  -0.01  -0.00    -0.00  -0.00   0.00    -0.01  -0.00  -0.00
  17   1     0.06  -0.02  -0.00    -0.00  -0.00   0.00     0.00  -0.00  -0.00
  18   1    -0.06  -0.40   0.56     0.00   0.00  -0.00    -0.00  -0.01   0.01
  19   1    -0.04  -0.34  -0.60    -0.00  -0.00  -0.00    -0.00  -0.00  -0.01
                     46                     47                     48
                        a                      a                      a 
 Frequencies --  3046.2762              3052.3787              3073.4615
 Red. masses --     1.0716                 1.0664                 1.0763
 Frc consts  --     0.0000                 0.0000                 0.0000
 IR Inten    --    26.7966                13.7882                10.1427
 Raman Activ --     0.0000                 0.0000                 0.0000
 Depolar     --     0.0000                 0.0000                 0.0000
 Atom AN      X      Y      Z        X      Y      Z        X      Y      Z
   1   6    -0.20  -0.16  -0.01     0.01   0.01   0.00     0.01   0.00   0.00
   2   6    -0.01  -0.01  -0.00     0.00   0.00   0.00     0.00   0.00   0.00
   3   6     0.02   0.01   0.00    -0.00  -0.00  -0.00     0.06   0.03   0.00
   4   6    -0.00  -0.00  -0.00    -0.00   0.00   0.00     0.00  -0.12  -0.01
   5   6    -0.00   0.00   0.00     0.03  -0.01  -0.00    -0.19   0.11   0.00
   6   6    -0.00  -0.00  -0.00    -0.01   0.00   0.00    -0.01  -0.00  -0.00
   7   6     0.00  -0.00  -0.00     0.00   0.00   0.00     0.00  -0.00  -0.00
   8   8     0.00   0.00   0.00     0.00  -0.00  -0.00    -0.00   0.00   0.00
   9   6    -0.01   0.01   0.00    -0.19   0.15   0.00    -0.02   0.01   0.00
  10   1     0.75   0.60   0.05    -0.03  -0.02  -0.00    -0.02  -0.02  -0.00
  11   1    -0.03  -0.02   0.00     0.00   0.00   0.00     0.00   0.00  -0.00
  12   1    -0.03  -0.02  -0.00     0.00   0.00  -0.00     0.00   0.00   0.00
  13   1    -0.06  -0.03  -0.00     0.01   0.00   0.00    -0.23  -0.13  -0.01
  14   1     0.00   0.01   0.00     0.00  -0.02  -0.00    -0.00   0.46   0.02
  15   1     0.00  -0.00  -0.00    -0.09   0.05   0.00     0.69  -0.39  -0.01
  16   1    -0.00  -0.00  -0.00    -0.00  -0.00  -0.00     0.00  -0.00   0.00
  17   1     0.03  -0.02  -0.00     0.73  -0.62  -0.02     0.07  -0.06  -0.00
  18   1    -0.00   0.00  -0.00    -0.02   0.06  -0.04    -0.00   0.00  -0.00
  19   1    -0.00   0.00   0.00    -0.02   0.05   0.05    -0.00   0.00   0.00
                     49                     50                     51
                        a                      a                      a 
 Frequencies --  3078.0443              3093.1295              3533.1929
 Red. masses --     1.0807                 1.0889                 1.0645
 Frc consts  --     0.0000                 0.0000                 0.0000
 IR Inten    --    49.9250                61.5534                42.6106
 Raman Activ --     0.0000                 0.0000                 0.0000
 Depolar     --     0.0000                 0.0000                 0.0000
 Atom AN      X      Y      Z        X      Y      Z        X      Y      Z
   1   6    -0.01  -0.01  -0.00     0.00   0.00   0.00     0.00  -0.00  -0.00
   2   6    -0.01   0.00  -0.00     0.00  -0.00  -0.00    -0.00  -0.00  -0.00
   3   6    -0.20  -0.12  -0.01     0.11   0.06   0.01     0.00   0.00   0.00
   4   6    -0.00   0.07   0.00    -0.00   0.24   0.01    -0.00  -0.00  -0.00
   5   6    -0.10   0.06   0.00    -0.09   0.05   0.00     0.00   0.00   0.00
   6   6    -0.00  -0.00  -0.00    -0.00  -0.00  -0.00    -0.00  -0.00  -0.00
   7   6     0.00   0.00   0.00    -0.00  -0.00  -0.00     0.00   0.01   0.00
   8   8    -0.00  -0.00  -0.00    -0.00   0.00  -0.00     0.22   0.09   0.01
   9   6    -0.01   0.01   0.00    -0.00   0.00   0.00    -0.00  -0.00  -0.00
  10   1     0.05   0.04   0.00    -0.02  -0.01  -0.00    -0.00  -0.00  -0.00
  11   1    -0.00   0.00   0.00     0.00  -0.00  -0.00    -0.00   0.00   0.00
  12   1    -0.00   0.00  -0.00     0.00  -0.00   0.00    -0.00   0.00  -0.00
  13   1     0.71   0.42   0.03    -0.35  -0.21  -0.02    -0.00   0.00   0.00
  14   1     0.00  -0.25  -0.01     0.01  -0.80  -0.04    -0.00  -0.00  -0.00
  15   1     0.36  -0.21  -0.01     0.28  -0.16  -0.00     0.00  -0.00  -0.00
  16   1    -0.00  -0.00  -0.00     0.00  -0.00  -0.00    -0.90  -0.37  -0.03
  17   1     0.03  -0.02  -0.00     0.02  -0.01  -0.00    -0.00   0.00   0.00
  18   1    -0.00   0.00   0.00    -0.00   0.00   0.00     0.00   0.00  -0.01
  19   1    -0.00   0.00  -0.00    -0.00   0.00  -0.00     0.00  -0.00   0.01
