      -----------------------------------------------------------      
     |                   =====================                   |     
     |                           x T B                           |     
     |                   =====================                   |     
     |                         S. Grimme                         |     
     |          Mulliken Center for Theoretical Chemistry        |     
     |                    University of Bonn                     |     
      -----------------------------------------------------------      

   * xtb version 6.7.1 (41059b4) compiled by 'michael@archlinux' on 2025-03-24

   xtb is free software: you can redistribute it and/or modify it under
   the terms of the GNU Lesser General Public License as published by
   the Free Software Foundation, either version 3 of the License, or
   (at your option) any later version.
   
   xtb is distributed in the hope that it will be useful,
   but WITHOUT ANY WARRANTY; without even the implied warranty of
   MERCHANTABILITY or FITNESS FOR A PARTICULAR PURPOSE.  See the
   GNU Lesser General Public License for more details.
   
   Cite this work as:
   * C. Bannwarth, E. Caldeweyher, S. Ehlert, A. Hansen, P. Pracht,
     J. Seibert, S. Spicher, S. Grimme, WIREs Comput. Mol. Sci., 2020, 11,
     e01493. DOI: 10.1002/wcms.1493
   
   for GFN2-xTB:
   * C. Bannwarth, S. Ehlert and S. Grimme., J. Chem. Theory Comput., 2019,
     15, 1652-1671. DOI: 10.1021/acs.jctc.8b01176
   for GFN1-xTB:
   * S. Grimme, C. Bannwarth, P. Shushkov, J. Chem. Theory Comput., 2017,
     13, 1989-2009. DOI: 10.1021/acs.jctc.7b00118
   for GFN0-xTB:
   * P. Pracht, E. Caldeweyher, S. Ehlert, S. Grimme, ChemRxiv, 2019, preprint.
     DOI: 10.26434/chemrxiv.8326202.v1
   for GFN-FF:
   * S. Spicher and S. Grimme, Angew. Chem. Int. Ed., 2020, 59, 15665-15673.
     DOI: 10.1002/anie.202004239
   
   for ALPB and GBSA implicit solvation:
   * S. Ehlert, M. Stahn, S. Spicher, S. Grimme, J. Chem. Theory Comput.,
     2021, 17, 4250-4261. DOI: 10.1021/acs.jctc.1c00471
   
   for ddCOSMO and CPCM-X implicit solvation:
   * M. Stahn, S. Ehlert, S. Grimme, J. Phys. Chem. A,
     2023, XX, XXXX-XXXX. DOI: 10.1021/acs.jpca.3c04382
   
   for DFT-D4:
   * E. Caldeweyher, C. Bannwarth and S. Grimme, J. Chem. Phys., 2017,
     147, 034112. DOI: 10.1063/1.4993215
   * E. Caldeweyher, S. Ehlert, A. Hansen, H. Neugebauer, S. Spicher,
     C. Bannwarth and S. Grimme, J. Chem. Phys., 2019, 150, 154122.
     DOI: 10.1063/1.5090222
   * E. Caldeweyher, J.-M. Mewes, S. Ehlert and S. Grimme, Phys. Chem. Chem. Phys.
     2020, 22, 8499-8512. DOI: 10.1039/D0CP00502A
   
   for sTDA-xTB:
   * S. Grimme and C. Bannwarth, J. Chem. Phys., 2016, 145, 054103.
     DOI: 10.1063/1.4959605
   
   in the mass-spec context:
   * V. Asgeirsson, C. Bauer and S. Grimme, Chem. Sci., 2017, 8, 4879.
     DOI: 10.1039/c7sc00601b
   * J. Koopman and S. Grimme, ACS Omega 2019, 4, 12, 15120-15133.
     DOI: 10.1021/acsomega.9b02011
   
   for metadynamics refer to:
   * S. Grimme, J. Chem. Theory Comput., 2019, 155, 2847-2862
     DOI: 10.1021/acs.jctc.9b00143
   
   for SPH calculations refer to:
   * S. Spicher and S. Grimme, J. Chem. Theory Comput., 2021, 17, 1701-1714
     DOI: 10.1021/acs.jctc.0c01306
   
   for ONIOM refer to:
   * C. Plett, A. Katbashev, S. Ehlert, S. Grimme, M. Bursch,
     Phys. Chem. Chem. Phys., 2023, 25, 17860-17868. DOI: 10.1039/D3CP02178E
   
   for DIPRO refer to:
   * J. Kohn, N. Gildemeister, S. Grimme, D. Fazzi, A. Hansen,
     J. Chem. Phys., 2023, just accepted.
   
   for PTB refer to:
   * S. Grimme, M. Mueller, A. Hansen, J. Chem. Phys., 2023, 158, 124111.
     DOI: 10.1063/5.0137838
   
   with help from (in alphabetical order)
   P. Atkinson, C. Bannwarth, F. Bohle, G. Brandenburg, E. Caldeweyher
   M. Checinski, S. Dohm, S. Ehlert, S. Ehrlich, I. Gerasimov, C. Hölzer
   A. Katbashev, J. Kohn, J. Koopman, C. Lavigne, S. Lehtola, F. März, M. Müller,
   F. Musil, H. Neugebauer, J. Pisarek, C. Plett, P. Pracht, F. Pultar,
   J. Seibert, P. Shushkov, S. Spicher, M. Stahn, M. Steiner, T. Strunk,
   J. Stückrath, T. Rose, and J. Unsleber
   
 * started run on 2025/04/09 at 00:29:03.349     
   ID    Z sym.   atoms
    1    6 C      1-7, 9
    2    8 O      8
    3    1 H      10-19

           -------------------------------------------------
          |                Calculation Setup                |
           -------------------------------------------------

          program call               : /usr/bin/xtb xtb_rrho.coord --gfn2 --ohess vtight --chrg 0 --enso --norestart -I rrho-xcontrol-inp --parallel 1
          coordinate file            : xtb_rrho.coord
          omp threads                :                     1


           -------------------------------------------------
          |                 G F N 2 - x T B                 |
           -------------------------------------------------

        Reference                      10.1021/acs.jctc.8b01176
      * Hamiltonian:
        H0-scaling (s, p, d)           1.850000    2.230000    2.230000
        zeta-weighting                 0.500000
      * Dispersion:
        s8                             2.700000
        a1                             0.520000
        a2                             5.000000
        s9                             5.000000
      * Repulsion:
        kExp                           1.500000    1.000000
        rExp                           1.000000
      * Coulomb:
        alpha                          2.000000
        third order                    shell-resolved
        anisotropic                    true
        a3                             3.000000
        a5                             4.000000
        cn-shift                       1.200000
        cn-exp                         4.000000
        max-rad                        5.000000


          ...................................................
          :                      SETUP                      :
          :.................................................:
          :  # basis functions                  46          :
          :  # atomic orbitals                  46          :
          :  # shells                           28          :
          :  # electrons                        48          :
          :  max. iterations                   250          :
          :  Hamiltonian                  GFN2-xTB          :
          :  restarted?                      false          :
          :  GBSA solvation                  false          :
          :  PC potential                    false          :
          :  electronic temp.          300.0000000     K    :
          :  accuracy                    1.0000000          :
          :  -> integral cutoff          0.2500000E+02      :
          :  -> integral neglect         0.1000000E-07      :
          :  -> SCF convergence          0.1000000E-05 Eh   :
          :  -> wf. convergence          0.1000000E-03 e    :
          :  Broyden damping             0.4000000          :
          :  net charge                          0          :
          :  unpaired electrons                  0          :
          ...................................................

 iter      E             dE          RMSdq      gap      omega  full diag
   1    -26.6788937 -0.266789E+02  0.396E+00    4.17       0.0  T
   2    -26.6941568 -0.152631E-01  0.230E+00    4.23       1.0  T
   3    -26.6930864  0.107042E-02  0.577E-01    4.17       1.0  T
   4    -26.6949968 -0.191047E-02  0.260E-01    4.28       1.0  T
   5    -26.6957597 -0.762860E-03  0.653E-02    4.26       1.0  T
   6    -26.6957654 -0.565066E-05  0.336E-02    4.25       1.0  T
   7    -26.6957713 -0.592739E-05  0.115E-02    4.25       2.0  T
   8    -26.6957717 -0.397141E-06  0.332E-03    4.25       6.9  T
   9    -26.6957717 -0.430997E-07  0.147E-03    4.25      15.6  T
  10    -26.6957717 -0.130994E-07  0.795E-04    4.25      28.9  T
  11    -26.6957717 -0.484995E-08  0.179E-04    4.25     128.4  T

   *** convergence criteria satisfied after 11 iterations ***

         #    Occupation            Energy/Eh            Energy/eV
      -------------------------------------------------------------
         1        2.0000           -0.6999732             -19.0472
       ...           ...                  ...                  ...
        18        2.0000           -0.4665802             -12.6963
        19        2.0000           -0.4471248             -12.1669
        20        2.0000           -0.4435906             -12.0707
        21        2.0000           -0.4237468             -11.5307
        22        2.0000           -0.4185072             -11.3882
        23        2.0000           -0.3856663             -10.4945
        24        2.0000           -0.3706604             -10.0862 (HOMO)
        25                         -0.2144300              -5.8349 (LUMO)
        26                         -0.2071435              -5.6367
        27                         -0.0874440              -2.3795
        28                          0.0657383               1.7888
        29                          0.0893092               2.4302
       ...                                ...                  ...
        46                          0.6411358              17.4462
      -------------------------------------------------------------
                  HL-Gap            0.1562304 Eh            4.2512 eV
             Fermi-level           -0.2925452 Eh           -7.9606 eV

 SCC (total)                   0 d,  0 h,  0 min,  0.012 sec
 SCC setup                      ...        0 min,  0.000 sec (  0.896%)
 Dispersion                     ...        0 min,  0.000 sec (  1.095%)
 classical contributions        ...        0 min,  0.000 sec (  0.270%)
 integral evaluation            ...        0 min,  0.002 sec ( 14.794%)
 iterations                     ...        0 min,  0.006 sec ( 45.508%)
 molecular gradient             ...        0 min,  0.004 sec ( 35.945%)
 printout                       ...        0 min,  0.000 sec (  1.382%)

         :::::::::::::::::::::::::::::::::::::::::::::::::::::
         ::                     SUMMARY                     ::
         :::::::::::::::::::::::::::::::::::::::::::::::::::::
         :: total energy             -26.292573802723 Eh    ::
         :: gradient norm              0.019170162807 Eh/a0 ::
         :: HOMO-LUMO gap              4.251245983939 eV    ::
         ::.................................................::
         :: SCC energy               -26.695717920691 Eh    ::
         :: -> isotropic ES            0.023263995565 Eh    ::
         :: -> anisotropic ES          0.005584302189 Eh    ::
         :: -> anisotropic XC          0.011456933018 Eh    ::
         :: -> dispersion             -0.014668615145 Eh    ::
         :: repulsion energy           0.403144117968 Eh    ::
         :: add. restraining           0.000000000000 Eh    ::
         :: total charge              -0.000000000000 e     ::
         :::::::::::::::::::::::::::::::::::::::::::::::::::::

      ----------------------------------------------------------- 
     |                   =====================                   |
     |                        A N C O P T                        |
     |                   =====================                   |
     |               Approximate Normal Coordinate               |
     |                Rational Function Optimizer                |
      ----------------------------------------------------------- 

          ...................................................
          :                      SETUP                      :
          :.................................................:
          :   optimization level         verytight          :
          :   max. optcycles                   380          :
          :   ANC micro-cycles                  20          :
          :   degrees of freedom                51          :
          :.................................................:
          :   RF solver                   davidson          :
          :   write xtbopt.log                true          :
          :   linear?                        false          :
          :   energy convergence         0.1000000E-06 Eh   :
          :   grad. convergence          0.2000000E-03 Eh/α :
          :   maximum RF displ.          1.0000000          :
          :   Hlow (freq-cutoff)         0.1000000E-01      :
          :   Hmax (freq-cutoff)         5.0000000          :
          :   S6 in model hess.         20.0000000          :
          ...................................................

generating ANC from exact Hessian ...
Using Lindh-Hessian (1995)
 Shifting diagonal of input Hessian by    6.9770226164825814E-003
 Lowest  eigenvalues of input Hessian
    0.000000    0.000000    0.000000    0.000000    0.000000    0.000000
    0.010000    0.012508    0.015487    0.016619    0.017175    0.019056
    0.023845    0.027324    0.039162    0.041250    0.048424    0.053982
 Highest eigenvalues
    1.443077    1.598459    1.703704    1.862746    1.982601    2.014197


........................................................................
.............................. CYCLE    1 ..............................
........................................................................

 iter      E             dE          RMSdq      gap      omega  full diag
   1    -26.6957717 -0.266958E+02  0.659E-05    4.25       0.0  T
   2    -26.6957717 -0.168967E-10  0.395E-05    4.25     581.3  T
   3    -26.6957717 -0.523670E-11  0.250E-05    4.25     917.2  T
     SCC iter.                  ...        0 min,  0.002 sec
     gradient                   ...        0 min,  0.004 sec
 * total energy  :   -26.2925738 Eh     change       -0.4252243E-10 Eh
   gradient norm :     0.0191704 Eh/α   predicted     0.0000000E+00 (-100.00%)
   displ. norm   :     0.1106274 α      lambda       -0.1177850E-02
   maximum displ.:     0.0796064 α      in ANC's #11, #15, #13, ...

........................................................................
.............................. CYCLE    2 ..............................
........................................................................

 iter      E             dE          RMSdq      gap      omega  full diag
   1    -26.7093785 -0.267094E+02  0.105E-01    4.30       0.0  T
   2    -26.7093822 -0.365421E-05  0.602E-02    4.31       1.0  T
   3    -26.7093800  0.219702E-05  0.139E-02    4.30       1.6  T
   4    -26.7093826 -0.263145E-05  0.291E-03    4.31       7.9  T
   5    -26.7093827 -0.150720E-06  0.900E-04    4.31      25.5  T
   6    -26.7093827 -0.112277E-08  0.491E-04    4.31      46.7  T
     SCC iter.                  ...        0 min,  0.003 sec
     gradient                   ...        0 min,  0.004 sec
 * total energy  :   -26.2932945 Eh     change       -0.7207135E-03 Eh
   gradient norm :     0.0078727 Eh/α   predicted    -0.5962593E-03 ( -17.27%)
   displ. norm   :     0.0334306 α      lambda       -0.1054643E-03
   maximum displ.:     0.0245473 α      in ANC's #11, #13, #7, ...

........................................................................
.............................. CYCLE    3 ..............................
........................................................................

 iter      E             dE          RMSdq      gap      omega  full diag
   1    -26.7130672 -0.267131E+02  0.390E-02    4.32       0.0  T
   2    -26.7130687 -0.146995E-05  0.218E-02    4.32       1.1  T
   3    -26.7130681  0.540099E-06  0.105E-02    4.32       2.2  T
   4    -26.7130690 -0.844839E-06  0.162E-03    4.32      14.1  T
   5    -26.7130690 -0.199652E-07  0.400E-04    4.32      57.3  T
   6    -26.7130690 -0.103488E-08  0.218E-04    4.32     105.1  T
     SCC iter.                  ...        0 min,  0.003 sec
     gradient                   ...        0 min,  0.004 sec
 * total energy  :   -26.2933537 Eh     change       -0.5915717E-04 Eh
   gradient norm :     0.0027168 Eh/α   predicted    -0.5289101E-04 ( -10.59%)
   displ. norm   :     0.0066881 α      lambda       -0.7157459E-05
   maximum displ.:     0.0043442 α      in ANC's #7, #5, #11, ...

........................................................................
.............................. CYCLE    4 ..............................
........................................................................

 iter      E             dE          RMSdq      gap      omega  full diag
   1    -26.7130258 -0.267130E+02  0.998E-03    4.32       0.0  T
   2    -26.7130260 -0.241239E-06  0.585E-03    4.32       3.9  T
   3    -26.7130261 -0.435087E-07  0.347E-03    4.32       6.6  T
   4    -26.7130261 -0.468029E-07  0.616E-04    4.32      37.3  T
   5    -26.7130261 -0.161363E-08  0.182E-04    4.32     126.2  T
     SCC iter.                  ...        0 min,  0.003 sec
     gradient                   ...        0 min,  0.004 sec
 * total energy  :   -26.2933587 Eh     change       -0.5042880E-05 Eh
   gradient norm :     0.0009361 Eh/α   predicted    -0.3852614E-05 ( -23.60%)
   displ. norm   :     0.0056392 α      lambda       -0.9440350E-06
   maximum displ.:     0.0027860 α      in ANC's #7, #5, #21, ...

........................................................................
.............................. CYCLE    5 ..............................
........................................................................

 iter      E             dE          RMSdq      gap      omega  full diag
   1    -26.7125934 -0.267126E+02  0.661E-03    4.32       0.0  T
   2    -26.7125935 -0.153027E-06  0.414E-03    4.32       5.5  T
   3    -26.7125936 -0.542979E-07  0.235E-03    4.32       9.8  T
   4    -26.7125936 -0.119676E-07  0.499E-04    4.32      46.0  T
   5    -26.7125936 -0.933710E-09  0.159E-04    4.32     144.5  T
     SCC iter.                  ...        0 min,  0.003 sec
     gradient                   ...        0 min,  0.004 sec
 * total energy  :   -26.2933594 Eh     change       -0.7213279E-06 Eh
   gradient norm :     0.0004220 Eh/α   predicted    -0.7832680E-06 (   8.59%)
   displ. norm   :     0.0015456 α      lambda       -0.1915805E-07
   maximum displ.:     0.0010076 α      in ANC's #7, #10, #4, ...

........................................................................
.............................. CYCLE    6 ..............................
........................................................................

 iter      E             dE          RMSdq      gap      omega  full diag
   1    -26.7126687 -0.267127E+02  0.204E-03    4.32       0.0  T
   2    -26.7126688 -0.111731E-07  0.123E-03    4.32      18.7  T
   3    -26.7126688 -0.301966E-08  0.725E-04    4.32      31.7  T
   4    -26.7126688 -0.163766E-08  0.130E-04    4.32     176.9  T
     SCC iter.                  ...        0 min,  0.002 sec
     gradient                   ...        0 min,  0.004 sec
 * total energy  :   -26.2933596 Eh     change       -0.1578501E-06 Eh
   gradient norm :     0.0000460 Eh/α   predicted    -0.1015334E-06 ( -35.68%)
   displ. norm   :     0.0009975 α      lambda       -0.7269819E-08
   maximum displ.:     0.0007817 α      in ANC's #4, #2, #3, ...

........................................................................
.............................. CYCLE    7 ..............................
........................................................................

 iter      E             dE          RMSdq      gap      omega  full diag
   1    -26.7126954 -0.267127E+02  0.304E-04    4.32       0.0  T
   2    -26.7126954 -0.391474E-10  0.178E-04    4.32     128.6  T
   3    -26.7126954  0.360529E-10  0.557E-05    4.32     412.2  T
     SCC iter.                  ...        0 min,  0.002 sec
     gradient                   ...        0 min,  0.004 sec
 * total energy  :   -26.2933596 Eh     change       -0.1182082E-07 Eh
   gradient norm :     0.0000214 Eh/α   predicted    -0.5229015E-08 ( -55.76%)
   displ. norm   :     0.0009975 α      lambda        0.0000000E+00
   maximum displ.:     0.0007817 α      in ANC's #4, #2, #3, ...

   *** GEOMETRY OPTIMIZATION CONVERGED AFTER 7 ITERATIONS ***

------------------------------------------------------------------------
 total energy gain   :        -0.0007858 Eh       -0.4931 kcal/mol
 total RMSD          :         0.0329257 a0        0.0174 Å
 total power (kW/mol):        -0.2947328 (step)  -30.3637 (real)
------------------------------------------------------------------------

 ANCopt (total)                0 d,  0 h,  0 min,  0.068 sec
 optimizer setup                ...        0 min,  0.000 sec (  0.117%)
 model hessian                  ...        0 min,  0.002 sec (  2.960%)
 ANC generation                 ...        0 min,  0.000 sec (  0.545%)
 coordinate transformation      ...        0 min,  0.000 sec (  0.114%)
 single point calculation       ...        0 min,  0.063 sec ( 92.362%)
 optimization log               ...        0 min,  0.001 sec (  1.084%)
 hessian update                 ...        0 min,  0.000 sec (  0.109%)
 rational function              ...        0 min,  0.000 sec (  0.606%)

================
 final structure:
================
$coord
       -4.73945085438840        1.37511404731399       -0.00538523138868      C
       -2.31068832483781       -0.07481247875650       -0.04342894953639      C
       -2.24997038208401       -2.68665041855702       -0.18191534842733      C
        0.02481186030536       -3.97661537479416       -0.21370425380081      C
        2.27081679327888       -2.64888205782586       -0.10601149923284      C
        2.28359924711029       -0.03044943400199        0.03404350934684      C
       -0.02493247015511        1.24548911270261        0.06426054073365      C
       -0.15391205869348        3.82101608554561        0.19919938757973      O
        4.73040378975227        1.41400775435828        0.15111777806160      C
       -6.35186468142029        0.10772762924436       -0.10337218216138      H
       -4.86380661625354        2.49844972912912        1.71443182163390      H
       -4.80637029258024        2.68155138270191       -1.59400548098913      H
       -4.00894097965856       -3.71918001444656       -0.26577343493747      H
        0.04639791785843       -6.01357163299616       -0.32221400598720      H
        4.04929024190911       -3.65159704976272       -0.13044512144251      H
        1.53302607594674        4.50477942603911        0.26282928020794      H
        6.31817840863185        0.11253735078582        0.11273170268426      H
        4.91989417796431        2.69131517174439       -1.45850775957509      H
        4.86092879683068        2.52052702671234        1.88802866779944      H
$end

 Bond Distances (Angstroems)
 ---------------------------
C1-C2=1.4970         C1-H10=1.0865        C1-H11=1.0890        C1-H12=1.0890        C2-C1=1.4970         C2-C3=1.3844         
C2-C7=1.3980         C3-C2=1.3844         C3-C4=1.3839         C3-H13=1.0802        C4-C3=1.3839         C4-C5=1.3819         
C4-H14=1.0795        C5-C4=1.3819         C5-C6=1.3876         C5-H15=1.0805        C6-C5=1.3876         C6-C7=1.3959         
C6-C9=1.5049         C7-C2=1.3980         C7-C6=1.3959         C7-O8=1.3665         O8-C7=1.3665         O8-H16=0.9638        
C9-C6=1.5049         C9-H17=1.0866        C9-H18=1.0920        C9-H19=1.0920        H10-C1=1.0865        H11-C1=1.0890        
H12-C1=1.0890        H13-C3=1.0802        H14-C4=1.0795        H15-C5=1.0805        H16-O8=0.9638        H17-C9=1.0866        
H18-C9=1.0920        H19-C9=1.0920        
 C  H  Rav=1.0861 sigma=0.0047  Rmin=1.0795  Rmax=1.0920     9
 C  C  Rav=1.4167 sigma=0.0490  Rmin=1.3819  Rmax=1.5049     8
 O  H  Rav=0.9638 sigma=0.0000  Rmin=0.9638  Rmax=0.9638     1
 O  C  Rav=1.3665 sigma=0.0000  Rmin=1.3665  Rmax=1.3665     1

 selected bond angles (degree)
 --------------------
H10-C1-C2=110.93               H11-C1-C2=110.05               H11-C1-H10=109.23              H12-C1-C2=110.05               
H12-C1-H10=109.24              H12-C1-H11=107.26              C3-C2-C1=122.16                C7-C2-C1=119.09                
C7-C2-C3=118.75                C4-C3-C2=120.88                H13-C3-C2=119.15               H13-C3-C4=119.97               
C5-C4-C3=119.79                H14-C4-C3=120.16               H14-C4-C5=120.05               C6-C5-C4=120.94                
H15-C5-C4=119.93               H15-C5-C6=119.13               C7-C6-C5=118.64                C9-C6-C5=120.90                
C9-C6-C7=120.45                C6-C7-C2=121.00                O8-C7-C2=117.22                O8-C7-C6=121.79                
H16-O8-C7=109.27               H17-C9-C6=110.04               H18-C9-C6=111.18               H18-C9-H17=107.86              
H19-C9-C6=111.19               H19-C9-H17=107.86              H19-C9-H18=108.59              

 selected dihedral angles (degree)
 ---------------------------------
C3-C2-C1-H10=359.88           C3-C2-C1-H11=120.87           C3-C2-C1-H12=238.87           C7-C2-C1-H10=179.88           
C7-C2-C1-H11=300.88           C7-C2-C1-H12= 58.87           C4-C3-C2-C1=180.01            C4-C3-C2-C7=  0.00            
H13-C3-C2-C1=  0.00           H13-C3-C2-C7=180.00           C5-C4-C3-C2=  0.00            C5-C4-C3-H13=180.00           
H14-C4-C3-C2=180.00           H14-C4-C3-H13=  0.00          C6-C5-C4-C3=  0.00            C6-C5-C4-H14=180.00           
H15-C5-C4-C3=180.00           H15-C5-C4-H14=  0.00          C7-C6-C5-C4=  0.00            C7-C6-C5-H15=180.00           
C9-C6-C5-C4=180.00            C9-C6-C5-H15=  0.00           C6-C7-C2-C1=179.99            C6-C7-C2-C3=  0.00            
O8-C7-C2-C1=  0.00            O8-C7-C2-C3=179.99            C2-C7-C6-C5=  0.00            C2-C7-C6-C9=180.00            
O8-C7-C6-C5=180.01            O8-C7-C6-C9=  0.00            H16-O8-C7-C2=180.01           H16-O8-C7-C6=  0.00           
H17-C9-C6-C5=359.85           H17-C9-C6-C7=179.85           H18-C9-C6-C5=119.28           H18-C9-C6-C7=299.29           
H19-C9-C6-C5=240.41           H19-C9-C6-C7= 60.41           
           -------------------------------------------------
          |                Final Singlepoint                |
           -------------------------------------------------

          ...................................................
          :                      SETUP                      :
          :.................................................:
          :  # basis functions                  46          :
          :  # atomic orbitals                  46          :
          :  # shells                           28          :
          :  # electrons                        48          :
          :  max. iterations                   250          :
          :  Hamiltonian                  GFN2-xTB          :
          :  restarted?                      false          :
          :  GBSA solvation                  false          :
          :  PC potential                    false          :
          :  electronic temp.          300.0000000     K    :
          :  accuracy                    1.0000000          :
          :  -> integral cutoff          0.2500000E+02      :
          :  -> integral neglect         0.1000000E-07      :
          :  -> SCF convergence          0.1000000E-05 Eh   :
          :  -> wf. convergence          0.1000000E-03 e    :
          :  Broyden damping             0.4000000          :
          :  net charge                          0          :
          :  unpaired electrons                  0          :
          ...................................................

 iter      E             dE          RMSdq      gap      omega  full diag
   1    -26.7126954 -0.267127E+02  0.105E-05    4.32       0.0  T
   2    -26.7126954 -0.561329E-12  0.659E-06    4.32    3483.6  T
   3    -26.7126954 -0.408562E-12  0.363E-06    4.32    6323.3  T

   *** convergence criteria satisfied after 3 iterations ***

         #    Occupation            Energy/Eh            Energy/eV
      -------------------------------------------------------------
         1        2.0000           -0.7016031             -19.0916
       ...           ...                  ...                  ...
        18        2.0000           -0.4659869             -12.6801
        19        2.0000           -0.4471800             -12.1684
        20        2.0000           -0.4447993             -12.1036
        21        2.0000           -0.4231854             -11.5155
        22        2.0000           -0.4173887             -11.3577
        23        2.0000           -0.3861200             -10.5069
        24        2.0000           -0.3705342             -10.0828 (HOMO)
        25                         -0.2117478              -5.7620 (LUMO)
        26                         -0.2053361              -5.5875
        27                         -0.0827402              -2.2515
        28                          0.0699388               1.9031
        29                          0.0968802               2.6362
       ...                                ...                  ...
        46                          0.6623357              18.0231
      -------------------------------------------------------------
                  HL-Gap            0.1587864 Eh            4.3208 eV
             Fermi-level           -0.2911410 Eh           -7.9224 eV

 SCC (total)                   0 d,  0 h,  0 min,  0.008 sec
 SCC setup                      ...        0 min,  0.000 sec (  1.405%)
 Dispersion                     ...        0 min,  0.000 sec (  0.763%)
 classical contributions        ...        0 min,  0.000 sec (  0.308%)
 integral evaluation            ...        0 min,  0.002 sec ( 20.310%)
 iterations                     ...        0 min,  0.002 sec ( 24.047%)
 molecular gradient             ...        0 min,  0.004 sec ( 51.800%)
 printout                       ...        0 min,  0.000 sec (  1.216%)

         :::::::::::::::::::::::::::::::::::::::::::::::::::::
         ::                     SUMMARY                     ::
         :::::::::::::::::::::::::::::::::::::::::::::::::::::
         :: total energy             -26.293359607375 Eh    ::
         :: gradient norm              0.000021288988 Eh/a0 ::
         :: HOMO-LUMO gap              4.320798836737 eV    ::
         ::.................................................::
         :: SCC energy               -26.712641170681 Eh    ::
         :: -> isotropic ES            0.023244647339 Eh    ::
         :: -> anisotropic ES          0.005373623975 Eh    ::
         :: -> anisotropic XC          0.010966321901 Eh    ::
         :: -> dispersion             -0.014730102079 Eh    ::
         :: repulsion energy           0.419281563306 Eh    ::
         :: add. restraining           0.000000000000 Eh    ::
         :: total charge              -0.000000000000 e     ::
         :::::::::::::::::::::::::::::::::::::::::::::::::::::

           ------------------------------------------------- 
          |                Numerical Hessian                |
           ------------------------------------------------- 
step length          :   0.00500
SCC accuracy         :   0.30000
Hessian scale factor :   1.00000
frozen atoms in %    :   0.00000    0
RMS gradient         :   0.00002
estimated CPU  time      0.02 min
estimated wall time      0.02 min

writing file <hessian>, containing the non-mass-weighted Hessian matrix in atomic units (Eₕ/Bohr²).

 projected vibrational frequencies (cm⁻¹)
eigval :       -0.00    -0.00    -0.00     0.00     0.00     0.00
eigval :       70.33   123.28   165.38   214.40   266.56   277.81
eigval :      310.62   394.57   469.04   471.54   486.91   513.65
eigval :      526.16   669.46   703.64   795.81   814.85   892.94
eigval :      915.83   938.00  1005.32  1028.68  1036.27  1036.96
eigval :     1129.41  1169.89  1201.63  1209.95  1258.63  1308.81
eigval :     1342.11  1403.34  1403.60  1460.10  1468.00  1469.29
eigval :     1490.99  1497.42  1500.94  1598.15  1602.98  2973.89
eigval :     2984.08  3008.83  3025.48  3046.28  3052.38  3073.46
eigval :     3078.04  3093.13  3533.19
           -------------------------------------------------
          |                Property Printout                |
           -------------------------------------------------

    * Orbital Energies and Occupations

         #    Occupation            Energy/Eh            Energy/eV
      -------------------------------------------------------------
         1        2.0000           -0.7016030             -19.0916
       ...           ...                  ...                  ...
        12        2.0000           -0.5017133             -13.6523
        13        2.0000           -0.4905890             -13.3496
        14        2.0000           -0.4875864             -13.2679
        15        2.0000           -0.4784250             -13.0186
        16        2.0000           -0.4716824             -12.8351
        17        2.0000           -0.4713547             -12.8262
        18        2.0000           -0.4659869             -12.6801
        19        2.0000           -0.4471800             -12.1684
        20        2.0000           -0.4447994             -12.1036
        21        2.0000           -0.4231854             -11.5155
        22        2.0000           -0.4173887             -11.3577
        23        2.0000           -0.3861200             -10.5069
        24        2.0000           -0.3705342             -10.0827 (HOMO)
        25                         -0.2117478              -5.7620 (LUMO)
        26                         -0.2053361              -5.5875
        27                         -0.0827402              -2.2515
        28                          0.0699389               1.9031
        29                          0.0968802               2.6362
        30                          0.1179573               3.2098
        31                          0.1376203               3.7448
        32                          0.1491985               4.0599
        33                          0.1778545               4.8397
        34                          0.2004264               5.4539
        35                          0.2097280               5.7070
       ...                                ...                  ...
        46                          0.6623357              18.0231
      -------------------------------------------------------------
                  HL-Gap            0.1587864 Eh            4.3208 eV
             Fermi-level           -0.2911410 Eh           -7.9224 eV

     #   Z          covCN         q      C6AA      α(0)
     1   6          3.758    -0.104    22.544     6.769
     2   6          2.965    -0.004    28.113     8.697
     3   6          2.925    -0.046    29.145     8.853
     4   6          2.916    -0.046    29.134     8.851
     5   6          2.926    -0.046    29.147     8.854
     6   6          2.963    -0.026    28.659     8.781
     7   6          2.856     0.125    25.254     8.237
     8   8          1.659    -0.400    20.844     6.163
     9   6          3.756    -0.104    22.540     6.769
    10   1          0.925     0.038     2.477     2.461
    11   1          0.925     0.053     2.285     2.364
    12   1          0.925     0.053     2.285     2.364
    13   1          0.926     0.032     2.553     2.499
    14   1          0.926     0.029     2.597     2.520
    15   1          0.926     0.029     2.603     2.523
    16   1          0.805     0.300     0.722     1.335
    17   1          0.925     0.045     2.382     2.413
    18   1          0.924     0.036     2.498     2.472
    19   1          0.924     0.036     2.499     2.472

 Mol. C6AA /au·bohr⁶  :       3697.064441
 Mol. C8AA /au·bohr⁸  :      86768.172991
 Mol. α(0) /au        :         95.397784


Wiberg/Mayer (AO) data.
largest (>0.10) Wiberg bond orders for each atom

 ---------------------------------------------------------------------------
     #   Z sym  total        # sym  WBO       # sym  WBO       # sym  WBO
 ---------------------------------------------------------------------------
     1   6      3.996 --     2      1.028    10      0.986    12      0.971
                            11      0.971
     2   6      3.988 --     3      1.428     7      1.341     1      1.028
                             5      0.102
     3   6      3.991 --     4      1.429     2      1.428    13      0.969
     4   6      3.992 --     5      1.441     3      1.429    14      0.971
     5   6      3.991 --     4      1.441     6      1.415    15      0.969
                             2      0.102
     6   6      3.986 --     5      1.415     7      1.359     9      1.020
     7   6      3.937 --     6      1.359     2      1.341     8      1.064
     8   8      2.113 --     7      1.064    16      0.883
     9   6      3.996 --     6      1.020    17      0.983    19      0.973
                            18      0.973
    10   1      0.998 --     1      0.986
    11   1      0.997 --     1      0.971
    12   1      0.997 --     1      0.971
    13   1      0.999 --     3      0.969
    14   1      0.999 --     4      0.971
    15   1      0.999 --     5      0.969
    16   1      0.910 --     8      0.883
    17   1      0.998 --     9      0.983
    18   1      0.999 --     9      0.973
    19   1      0.999 --     9      0.973
 ---------------------------------------------------------------------------

Topologies differ in total number of bonds
Writing topology from bond orders to xtbtopo.mol

molecular dipole:
                 x           y           z       tot (Debye)
 q only:        0.343       0.186       0.015
   full:        0.593       0.235       0.022       1.621
molecular quadrupole (traceless):
                xx          xy          yy          xz          yz          zz
 q only:        2.801       2.919      -0.469       0.238       0.146      -2.333
  q+dip:        4.598       4.393       0.335       0.387       0.353      -4.933
   full:        3.584       4.457      -0.498       0.343       0.210      -3.086

           -------------------------------------------------
          |                Geometry Summary                 |
           -------------------------------------------------

      molecular mass/u    :      122.1646996
   center of mass at/Å    :       -0.0040605      -0.0076718      -0.0014031
  moments of inertia/u·Å² :        0.2197711E+03   0.2831765E+03   0.4966775E+03
rotational constants/cm⁻¹ :        0.7670542E-01   0.5953048E-01   0.3394080E-01

 * 17 selected distances

     #   Z          #   Z                                           value/Å
     2   6          3   6                                         1.3844396
     3   6          4   6                                         1.3839432
     4   6          5   6                                         1.3818531
     5   6          6   6                                         1.3876122
     2   6          7   6                                         1.3980171 (max)
     6   6          7   6                                         1.3958901
     7   6          8   8                                         1.3664852
     1   6         10   1                                         1.0865219
     1   6         11   1                                         1.0890152
     1   6         12   1                                         1.0889963
     3   6         13   1                                         1.0802382
     4   6         14   1                                         1.0794997
     5   6         15   1                                         1.0804812
     8   8         16   1                                         0.9638207 (min)
     9   6         17   1                                         1.0865965
     9   6         18   1                                         1.0919936
     9   6         19   1                                         1.0919892

 * 4 distinct bonds (by element types)

   Z      Z             #   av. dist./Å        max./Å        min./Å
   1 H    6 C           9     1.0861480     1.0919936     1.0794997
   6 C    6 C           6     1.3886259     1.3980171     1.3818531
   1 H    8 O           1     0.9638207     0.9638207     0.9638207
   6 C    8 O           1     1.3664852     1.3664852     1.3664852

           -------------------------------------------------
          |               Frequency Printout                |
           -------------------------------------------------
 projected vibrational frequencies (cm⁻¹)
eigval :       -0.00    -0.00    -0.00     0.00     0.00     0.00
eigval :       70.33   123.28   165.38   214.40   266.56   277.81
eigval :      310.62   394.57   469.04   471.54   486.91   513.65
eigval :      526.16   669.46   703.64   795.81   814.85   892.94
eigval :      915.83   938.00  1005.32  1028.68  1036.27  1036.96
eigval :     1129.41  1169.89  1201.63  1209.95  1258.63  1308.81
eigval :     1342.11  1403.34  1403.60  1460.10  1468.00  1469.29
eigval :     1490.99  1497.42  1500.94  1598.15  1602.98  2973.89
eigval :     2984.08  3008.83  3025.48  3046.28  3052.38  3073.46
eigval :     3078.04  3093.13  3533.19
 reduced masses (amu)
    1:      5.99    2:      5.55    3:      5.07    4:      4.96    5:      4.64    6:      3.94
    7:      1.02    8:      2.53    9:      1.17   10:      2.99   11:      2.84   12:      3.59
   13:      3.47   14:      1.10   15:      3.60   16:      5.50   17:      3.43   18:      3.99
   19:      5.04   20:      6.65   21:      4.84   22:      1.20   23:      5.49   24:      1.30
   25:      1.24   26:      2.34   27:      1.45   28:      1.41   29:      1.44   30:      1.54
   31:      1.62   32:      1.21   33:      1.33   34:      4.82   35:      1.35   36:      3.03
   37:      6.09   38:      1.23   39:      1.26   40:      2.68   41:      1.06   42:      2.21
   43:      1.43   44:      1.06   45:      1.27   46:      8.31   47:      7.27   48:      1.09
   49:      1.05   50:      1.09   51:      1.05   52:      1.07   53:      1.07   54:      1.08
   55:      1.08   56:      1.09   57:      1.06
 IR intensities (km·mol⁻¹)
    1:      0.03    2:      0.00    3:      0.07    4:      0.06    5:      0.15    6:      0.32
    7:      0.01    8:      0.10    9:      3.64   10:      0.40   11:      2.43   12:      1.64
   13:      1.32   14:    135.88   15:      3.30   16:      0.12   17:      3.41   18:      2.69
   19:      3.00   20:      6.00   21:      4.50   22:     17.36   23:     12.10   24:      0.01
   25:      0.66   26:     12.01   27:     12.50   28:     11.38   29:      1.21   30:     13.45
   31:     18.66   32:    101.89   33:     52.01   34:     64.81   35:     17.32   36:     55.07
   37:     18.23   38:      3.18   39:      4.16   40:     71.92   41:      2.91   42:     10.53
   43:     40.40   44:      4.63   45:      5.23   46:     11.19   47:      8.08   48:     36.84
   49:     26.49   50:     21.62   51:     16.51   52:     26.80   53:     13.79   54:     10.14
   55:     49.92   56:     61.55   57:     42.61
 Raman intensities (Ä⁴*amu⁻¹)
    1:      0.00    2:      0.00    3:      0.00    4:      0.00    5:      0.00    6:      0.00
Molecule has the following symmetry elements: (sigma) 
It seems to be the Cs point group
    7:      0.00    8:      0.00    9:      0.00   10:      0.00   11:      0.00   12:      0.00
   13:      0.00   14:      0.00   15:      0.00   16:      0.00   17:      0.00   18:      0.00
   19:      0.00   20:      0.00   21:      0.00   22:      0.00   23:      0.00   24:      0.00
   25:      0.00   26:      0.00   27:      0.00   28:      0.00   29:      0.00   30:      0.00
   31:      0.00   32:      0.00   33:      0.00   34:      0.00   35:      0.00   36:      0.00
   37:      0.00   38:      0.00   39:      0.00   40:      0.00   41:      0.00   42:      0.00
   43:      0.00   44:      0.00   45:      0.00   46:      0.00   47:      0.00   48:      0.00
   49:      0.00   50:      0.00   51:      0.00   52:      0.00   53:      0.00   54:      0.00
   55:      0.00   56:      0.00   57:      0.00
 output can be read by thermo (or use thermo option).
 writing <g98.out> molden fake output.
 recommended (thermochemical) frequency scaling factor: 1.0
           -------------------------------------------------
          |             Thermodynamic Functions             |
           -------------------------------------------------

cs  symmetry found (for desy threshold:  0.10E+00) used in thermo

          ...................................................
          :                      SETUP                      :
          :.................................................:
          :  # frequencies                          51      :
          :  # imaginary freq.                       0      :
          :  linear?                             false      :
          :  only rotor calc.                    false      :
          :  symmetry                               cs      :
          :  rotational number                       1      :
          :  scaling factor                  1.0000000      :
          :  rotor cutoff                    0.0000000 cm⁻¹ :
          :  imag. cutoff                 -100.0000000 cm⁻¹ :
          :.................................................:

    mode    ω/cm⁻¹     T·S(HO)/kcal·mol⁻¹    T·S(FR)/kcal·mol⁻¹   T·S(vib)
   ------------------------------------------------------------------------
       1     70.33    -1.23556 (100.00%)    -0.95527 (  0.00%)    -1.23556
       2    123.28    -0.90885 (100.00%)    -0.78909 (  0.00%)    -0.90885
       3    165.38    -0.74160 (100.00%)    -0.70209 (  0.00%)    -0.74160
       4    214.40    -0.59805 (100.00%)    -0.62520 (  0.00%)    -0.59805
       5    266.56    -0.48254 (100.00%)    -0.56072 (  0.00%)    -0.48254
       6    277.81    -0.46128 (100.00%)    -0.54847 (  0.00%)    -0.46128
   ------------------------------------------------------------------------

   temp. (K)  partition function   enthalpy   heat capacity  entropy
                                   cal/mol     cal/K/mol   cal/K/mol   J/K/mol
 298.15  VIB   124.                 3927.158     28.461     22.754
         ROT  0.425E+06              888.727      2.981     28.733
         INT  0.528E+08             4815.885     31.442     51.488
         TR   0.413E+26             1481.212      4.968     40.315
         TOT                        6297.0973    36.4097    91.8025   384.1015

       T/K    H(0)-H(T)+PV         H(T)/Eh          T*S/Eh         G(T)/Eh
   ------------------------------------------------------------------------
    298.15    0.100351E-01    0.166117E+00    0.436183E-01    0.122499E+00
   ------------------------------------------------------------------------

         :::::::::::::::::::::::::::::::::::::::::::::::::::::
         ::                  THERMODYNAMIC                  ::
         :::::::::::::::::::::::::::::::::::::::::::::::::::::
         :: total free energy         -26.170860997270 Eh   ::
         ::.................................................::
         :: total energy              -26.293359607375 Eh   ::
         :: zero point energy           0.156081858826 Eh   ::
         :: G(RRHO) w/o ZPVE           -0.033583248722 Eh   ::
         :: G(RRHO) contrib.            0.122498610105 Eh   ::
         :::::::::::::::::::::::::::::::::::::::::::::::::::::

optimized geometry written to: xtbopt.coord


           -------------------------------------------------
          | TOTAL ENERGY              -26.293359607375 Eh   |
          | TOTAL ENTHALPY            -26.127242685179 Eh   |
          | TOTAL FREE ENERGY         -26.170860997270 Eh   |
          | GRADIENT NORM               0.000021297817 Eh/α |
          | HOMO-LUMO GAP               4.320798615711 eV   |
           -------------------------------------------------

------------------------------------------------------------------------
 * finished run on 2025/04/09 at 00:29:08.228     
------------------------------------------------------------------------
 total:
 * wall-time:     0 d,  0 h,  0 min,  4.880 sec
 *  cpu-time:     0 d,  0 h,  0 min,  1.158 sec
 * ratio c/w:     0.237 speedup
 SCF:
 * wall-time:     0 d,  0 h,  0 min,  0.012 sec
 *  cpu-time:     0 d,  0 h,  0 min,  0.012 sec
 * ratio c/w:     0.978 speedup
 ANC optimizer:
 * wall-time:     0 d,  0 h,  0 min,  0.077 sec
 *  cpu-time:     0 d,  0 h,  0 min,  0.076 sec
 * ratio c/w:     0.986 speedup
 analytical hessian:
 * wall-time:     0 d,  0 h,  0 min,  4.552 sec
 *  cpu-time:     0 d,  0 h,  0 min,  1.060 sec
 * ratio c/w:     0.233 speedup

