14
 energy: -270.471034102547 gnorm: 0.000995742133 xtb: 6.7.1 (41059b4)
C            1.44097895034909        0.93631725549581       -0.30977921783441
C            0.75722675773550       -0.35927474196274        0.08409972590634
O            1.40904301955048       -1.36321314145830        0.30803224820667
C           -0.72041423747426       -0.37762109977749        0.23477380392630
C           -1.50095238065218        0.88313199051471        0.55463048475681
C           -1.61459738755843        0.28580992993156       -0.80297307828324
H            0.85742723640912        1.55088140490412       -1.00038460443679
H            1.60440621199913        1.52745759830524        0.59890760143088
H            2.41423874067918        0.70625471183779       -0.74484614128790
H           -1.08587712063832       -1.30862212087343        0.65548268774629
H           -2.33294104674216        0.77312452514316        1.24131438737738
H           -0.94211501587550        1.80624599920853        0.66309398478483
H           -2.52024169833920       -0.25131345707624       -1.06155379895033
H           -1.13570511523696        0.79050481886222       -1.63471588768320
14
 energy: -270.471035636660 gnorm: 0.000267239751 xtb: 6.7.1 (41059b4)
C            1.44121205458508        0.93654893020767       -0.30955999844045
C            0.75716862380672       -0.35883619619778        0.08382116278724
O            1.40911462086088       -1.36258001548122        0.30755945343487
C           -0.72063058621774       -0.37769616157409        0.23514167662921
C           -1.50199560732608        0.88323918885905        0.55486627195452
C           -1.61479594105526        0.28562728100839       -0.80300383723714
H            0.85808995038381        1.55202828522803       -0.99948314142302
H            1.60655455907064        1.52803978750904        0.59878020061800
H            2.41326922401036        0.70446915634959       -0.74574841313884
H           -1.08528778974545       -1.30892925718562        0.65582127998370
H           -2.33438075792021        0.77315768966611        1.24083497301427
H           -0.94255210400550        1.80582069288274        0.66287450172642
H           -2.52026194909080       -0.25151285859766       -1.06179577132100
H           -1.13502737888441        0.79030716724445       -1.63402606565809
14
 energy: -270.471035636660 gnorm: 0.000267239751 xtb: 6.7.1 (41059b4)
C            1.44121205458508        0.93654893020767       -0.30955999844045
C            0.75716862380672       -0.35883619619778        0.08382116278724
O            1.40911462086088       -1.36258001548122        0.30755945343487
C           -0.72063058621774       -0.37769616157409        0.23514167662921
C           -1.50199560732608        0.88323918885905        0.55486627195452
C           -1.61479594105526        0.28562728100839       -0.80300383723714
H            0.85808995038381        1.55202828522803       -0.99948314142302
H            1.60655455907064        1.52803978750904        0.59878020061800
H            2.41326922401036        0.70446915634959       -0.74574841313884
H           -1.08528778974545       -1.30892925718562        0.65582127998370
H           -2.33438075792021        0.77315768966611        1.24083497301427
H           -0.94255210400550        1.80582069288274        0.66287450172642
H           -2.52026194909080       -0.25151285859766       -1.06179577132100
H           -1.13502737888441        0.79030716724445       -1.63402606565809
