
                                 *****************
                                 * O   R   C   A *
                                 *****************

                                            #,                                       
                                            ###                                      
                                            ####                                     
                                            #####                                    
                                            ######                                   
                                           ########,                                 
                                     ,,################,,,,,                         
                               ,,#################################,,                 
                          ,,##########################################,,             
                       ,#########################################, ''#####,          
                    ,#############################################,,   '####,        
                  ,##################################################,,,,####,       
                ,###########''''           ''''###############################       
              ,#####''   ,,,,##########,,,,          '''####'''          '####       
            ,##' ,,,,###########################,,,                        '##       
           ' ,,###''''                  '''############,,,                           
         ,,##''                                '''############,,,,        ,,,,,,###''
      ,#''                                            '''#######################'''  
     '                                                          ''''####''''         
             ,#######,   #######,   ,#######,      ##                                
            ,#'     '#,  ##    ##  ,#'     '#,    #''#        ,####,   ,####,        
            ##       ##  ##   ,#'  ##            #'  '#       #'       #'  '#        
            ##       ##  #######   ##           ,######,      #####,   #    #        
            '#,     ,#'  ##    ##  '#,     ,#' ,#      #,     #,   #   #,  ,#        
             '#######'   ##     ##  '#######'  #'      '#     '####' # '####'        



                #########################################################
                #                        -***-                          #
                #          Department of theory and spectroscopy        #
                #                                                       #
                #                      Frank Neese                      #
                #                                                       #
                #     Directorship, Architecture, Infrastructure        #
                #                    SHARK, DRIVERS                     #
                #        Core code/Algorithms in most modules           #
                #                                                       #
                #        Max Planck Institute fuer Kohlenforschung      #
                #                Kaiser Wilhelm Platz 1                 #
                #                 D-45470 Muelheim/Ruhr                 #
                #                      Germany                          #
                #                                                       #
                #                  All rights reserved                  #
                #                        -***-                          #
                #########################################################


                         Program Version 6.0.1  -  RELEASE   -


 With contributions from (in alphabetic order):
[Max-Planck-Institut fuer Kohlenforschung]                               
  Daniel Aravena         : Magnetic Suceptibility                        
  Michael Atanasov       : Ab Initio Ligand Field Theory (pilot matlab implementation)
  Alexander A. Auer      : GIAO ZORA, VPT2 properties, NMR spectrum      
  Ute Becker             : All parallelization in ORCA, NUMFREQ, NUMCALC 
  Giovanni Bistoni       : ED, misc. LED, open-shell LED, HFLD           
  Martin Brehm           : Molecular dynamics                            
  Dmytro Bykov           : pre 5.0 version of the SCF Hessian            
  Marcos Casanova-Páez   : Triplet and SCS-CIS(D). UHF-(DLPNO)-IP/EA/STEOM-CCSD. UHF-CVS-IP/STEOM-CCSD   
  Vijay G. Chilkuri      : MRCI spin determinant printing, contributions to CSF-ICE 
  Pauline Colinet        : FMM embedding                                 
  Dipayan Datta          : RHF DLPNO-CCSD density                        
  Achintya Kumar Dutta   : EOM-CC, STEOM-CC                              
  Nicolas Foglia         : Exact transition moments, OPA infrastructure, MCD improvements    
  Dmitry Ganyushin       : Spin-Orbit,Spin-Spin,Magnetic field MRCI      
  Miquel Garcia-Rates    : C-PCM and meta-GGA Hessian, CCSD/C-PCM, Gaussian charge scheme 
  Tiago L. C. Gouveia    : GS-ROHF, GS-ROCIS                             
  Yang Guo               : DLPNO-NEVPT2, F12-NEVPT2, CIM, IAO-localization        
  Andreas Hansen         : Spin unrestricted coupled pair/coupled cluster methods 
  Ingolf Harden          : AUTO-CI MPn and infrastructure                
  Benjamin Helmich-Paris : MC-RPA, TRAH-(SCF,CASSCF), AVAS, COSX integrals, SCF dyn. polar. 
  Lee Huntington         : MR-EOM, pCC                                   
  Robert Izsak           : Overlap fitted RIJCOSX, COSX-SCS-MP3, EOM     
  Riya Kayal             : Wick's Theorem for AUTO-CI, AUTO-CI UHF-CCSDT 
  Emily Kempfer          : AUTO-CI, RHF CISDT and CCSDT                  
  Christian Kollmar      : KDIIS, OOCD, Brueckner-CCSD(T), CCSD density, CASPT2, CASPT2-K, improved NEVPT2 
  Axel Koslowski         : Symmetry handling                             
  Simone Kossmann        : meta-GGA functionals, TD-DFT gradient, OOMP2, (MP2 Hessian; deprecated post 5.0) 
  Lucas Lang             : DCDCAS                                        
  Marvin Lechner         : AUTO-CI (C++ implementation), FIC-MRCC        
  Spencer Leger          : CASSCF response                               
  Dagmar Lenk            : GEPOL surface, SMD, ORCA-2-JSON               
  Dimitrios Liakos       : Extrapolation schemes; Compound Job, initial MDCI parallelization 
  Dimitrios Manganas     : Further ROCIS development; embedding schemes. LFT, Crystal Embedding 
  Dimitrios Pantazis     : SARC Basis sets                               
  Anastasios Papadopoulos: AUTO-CI, single reference methods and gradients 
  Taras Petrenko         : pre 6.0 DFT Hessian and TD-DFT gradient, (ASA, deprecated), ECA, 1-Electron XAS/XES, NRVS 
  Peter Pinski           : DLPNO-MP2, DLPNO-MP2 Gradient                 
  Christoph Reimann      : Effective Core Potentials                     
  Marius Retegan         : Local ZFS, SOC                                
  Christoph Riplinger    : Optimizer, TS searches, QM/MM, DLPNO-CCSD(T), (RO)-DLPNO pert. Triples 
  Michael Roemelt        : Original ROCIS implementation                 
  Masaaki Saitow         : Open-shell DLPNO-CCSD energy and density      
  Barbara Sandhoefer     : DKH picture change effects                    
  Kantharuban Sivalingam : CASSCF convergence/infrastructure, NEVPT2 and variants, FIC-MRCI 
  Bernardo de Souza      : ESD, SOC TD-DFT                               
  Georgi L. Stoychev     : AutoAux, RI-MP2 NMR, DLPNO-MP2 response, X2C  
  Van Anh Tran           : RI-MP2 g-tensors                              
  Willem Van den Heuvel  : Paramagnetic NMR                              
  Zikuan Wang            : NOTCH, Electric field optimization            
  Frank Wennmohs         : Technical directorship and infrastructure     
  Hang Xu                : AUTO-CI-Response properties                   
                                                                         
[FACCTs GmbH]                                                            
  Markus Bursch, Miquel Garcia-Rates, Christoph Riplinger, Bernardo de Souza, Georgi L. Stoychev 
                                                                 
  APM, Basis sets (HGBS, AHGBS, def-TZVP (Ac-Lr), def2-XVPD (La-Lu)), CI-OPT, improved COSX, DLPNO-Multilevel,           
  DOCKER, DRACO, updates on ESD, GOAT, IRC, LR-CPCM, MBIS, meta-GGA TD-DFT gradient, ML-optimized integration grids, 
  MM, NACMEs, nearIR, NEB, NEB-TS, NL-DFT gradient (VV10), 2- and 3-layer-ONIOM, interface openCOSMO-RS, QMMM,   
  Crystal-QMMM, SF, symmetry and pop. for TD-DFT, r2SCAN hybrids, SOLVATOR                                   
                                                                         
[Other institutions]                                                     
  V. Asgeirsson          : NEB                                           
  Christoph Bannwarth    : sTDA-DFT, sTD-DFT, PBEh-3c, B97-3c, D3        
  Sebastian Ehlert       : rSCAN, r2SCAN, r2SCAN-3c, D4, dhf basis sets  
  Marvin Friede          : D4 for Fr, Ra, Ac-Lr                          
  Lars Goerigk           : TD-DFT with DH, B97 family of functionals     
  Stefan Grimme          : VdW corrections, initial TS optimization, DFT functionals, gCP, sTDA/sTD-DF 
  Waldemar Hujo          : DFT-NL                                        
  H. Jonsson             : NEB                                           
  Holger Kruse           : gCP                                           
  Marcel Mueller         : wB97X-3c, vDZP basis set                      
  Hagen Neugebauer       : wr2SCAN                                       
  Tobias Risthaus        : range-separated hybrid DFT                    
  Lukas Wittmann         : regularized MP2, r2SCAN double-hybrids, wr2SCAN        
                                                                         
We gratefully acknowledge several colleagues who have allowed us to      
interface, adapt or use parts of their codes:                            
  Ed Valeev, F. Pavosevic, A. Kumar             : LibInt (2-el integral package), F12 methods 
  Garnet Chan, S. Sharma, J. Yang, R. Olivares  : DMRG                   
  Ulf Ekstrom                                   : XCFun DFT Library      
  Mihaly Kallay                                 : mrcc  (arbitrary order and MRCC methods)
  Frank Weinhold                                : gennbo (NPA and NBO analysis)           
  Simon Mueller                                 : openCOSMO-RS                            
  Christopher J. Cramer and Donald G. Truhlar   : smd solvation model                     
  S Lehtola, MJT Oliveira, MAL Marques          : LibXC Library                           
  Liviu Ungur et al                             : ANISO software                          


 Your calculation uses the libint2 library for the computation of 2-el integrals
 For citations please refer to: http://libint.valeyev.net

 Your ORCA version has been built with support for libXC version: 6.2.2
 For citations please refer to: https://libxc.gitlab.io

 This ORCA versions uses:
   CBLAS   interface :  Fast vector & matrix operations
   LAPACKE interface :  Fast linear algebra routines
   SCALAPACK package :  Parallel linear algebra routines
   Shared memory     :  Shared parallel matrices
   BLAS/LAPACK       :  OpenBLAS 0.3.27  USE64BITINT DYNAMIC_ARCH NO_AFFINITY Zen SINGLE_THREADED
        Core in use  :  Zen
   Copyright (c) 2011-2014, The OpenBLAS Project


Your calculation utilizes the geometrical counterpoise correction gCP
Please cite in your paper:
H.Kruse, S. Grimme J.Chem.Phys., 136, (2012), 154101 
   

Your calculation utilizes the atom-pairwise dispersion correction
based on EEQ partial charges (D4)


================================================================================

----- Orbital basis set information -----
Your calculation utilizes the basis: def2-SV(P)
   F. Weigend and R. Ahlrichs, Phys. Chem. Chem. Phys. 7, 3297 (2005).

----- AuxJ basis set information -----
Your calculation utilizes the auxiliary basis: def2/J
   F. Weigend, Phys. Chem. Chem. Phys. 8, 1057 (2006).

================================================================================
                                        WARNINGS
                       Please study these warnings very carefully!
================================================================================


================================================================================
                                       INPUT FILE
================================================================================
NAME = sp.inp
|  1> ! pbe def2-sv(p) def2/J RI DEFGRID1 loosescf d4 GCP(DFT/SV(P)) printgap
|  2> %output
|  3>     printlevel normal
|  4> end
|  5> * xyz 0 1
|  6> C -2.4116848723 -0.0776341269 -4.8305e-06
|  7> C -1.8396476219 -1.3369929981 -8.8417e-06
|  8> C -0.4611428087 -1.4686135621 -1.45682e-05
|  9> C 0.3405775277 -0.3419985471 -1.38943e-05
| 10> C -0.2251479834 0.9355436158 -5.6979e-06
| 11> C -1.6100155759 1.0500451517 -2.2688e-06
| 12> O 0.5951815703 2.0142507119 8.921e-07
| 13> Cl 2.0596915788 -0.4956565477 1.65065e-05
| 14> H -3.4851858695 0.0329017265 -9.0398e-06
| 15> H -2.461805424 -2.2180351306 -1.584e-07
| 16> H 0.0006082436 -2.4430172429 3.6413e-06
| 17> H -2.0561115323 2.0357476568 -3.9389e-06
| 18> H 0.0733549147 2.825710364 1.17678e-05
| 19> *
| 20> 
| 21>                          ****END OF INPUT****
================================================================================

                       ****************************
                       * Single Point Calculation *
                       ****************************

---------------------------------
CARTESIAN COORDINATES (ANGSTROEM)
---------------------------------
  C     -2.411685   -0.077634   -0.000005
  C     -1.839648   -1.336993   -0.000009
  C     -0.461143   -1.468614   -0.000015
  C      0.340578   -0.341999   -0.000014
  C     -0.225148    0.935544   -0.000006
  C     -1.610016    1.050045   -0.000002
  O      0.595182    2.014251    0.000001
  Cl     2.059692   -0.495657    0.000017
  H     -3.485186    0.032902   -0.000009
  H     -2.461805   -2.218035   -0.000000
  H      0.000608   -2.443017    0.000004
  H     -2.056112    2.035748   -0.000004
  H      0.073355    2.825710    0.000012

----------------------------
CARTESIAN COORDINATES (A.U.)
----------------------------
  NO LB      ZA    FRAG     MASS         X           Y           Z
   0 C     6.0000    0    12.011   -4.557424   -0.146707   -0.000009
   1 C     6.0000    0    12.011   -3.476430   -2.526551   -0.000017
   2 C     6.0000    0    12.011   -0.871434   -2.775277   -0.000028
   3 C     6.0000    0    12.011    0.643598   -0.646284   -0.000026
   4 C     6.0000    0    12.011   -0.425468    1.767921   -0.000011
   5 C     6.0000    0    12.011   -3.042489    1.984298   -0.000004
   6 O     8.0000    0    15.999    1.124730    3.806382    0.000002
   7 Cl   17.0000    0    35.453    3.892253   -0.936655    0.000031
   8 H     1.0000    0     1.008   -6.586047    0.062175   -0.000017
   9 H     1.0000    0     1.008   -4.652138   -4.191479   -0.000000
  10 H     1.0000    0     1.008    0.001149   -4.616634    0.000007
  11 H     1.0000    0     1.008   -3.885488    3.847006   -0.000007
  12 H     1.0000    0     1.008    0.138621    5.339819    0.000022

--------------------------------
INTERNAL COORDINATES (ANGSTROEM)
--------------------------------
 C      0   0   0     0.000000000000     0.00000000     0.00000000
 C      1   0   0     1.383188845506     0.00000000     0.00000000
 C      2   1   0     1.384774166756   119.88302887     0.00000000
 C      3   2   1     1.382756988708   119.98226147     0.00000000
 C      4   3   2     1.397196955323   120.67875162     0.00000000
 C      1   2   3     1.383594671926   120.16198464     0.00000000
 O      5   4   3     1.355193556616   118.86304476   179.99970019
 Cl     4   3   2     1.725967526566   120.32872354   179.99855747
 H      1   2   3     1.079176800109   120.30781592   179.99946623
 H      2   1   3     1.078571077875   120.34282001   179.99954604
 H      3   2   1     1.078274810885   120.80947325   179.99867664
 H      6   1   2     1.081947794896   120.24099265   179.99970526
 H      7   5   4     0.964764129515   110.00400658   180.00035571

---------------------------
INTERNAL COORDINATES (A.U.)
---------------------------
 C      0   0   0     0.000000000000     0.00000000     0.00000000
 C      1   0   0     2.613848109501     0.00000000     0.00000000
 C      2   1   0     2.616843932499   119.88302887     0.00000000
 C      3   2   1     2.613032018424   119.98226147     0.00000000
 C      4   3   2     2.640319600709   120.67875162     0.00000000
 C      1   2   3     2.614615010292   120.16198464     0.00000000
 O      5   4   3     2.560944680459   118.86304476   179.99970019
 Cl     4   3   2     3.261605941252   120.32872354   179.99855747
 H      1   2   3     2.039348602288   120.30781592   179.99946623
 H      2   1   3     2.038203953153   120.34282001   179.99954604
 H      3   2   1     2.037644089678   120.80947325   179.99867664
 H      6   1   2     2.044585023553   120.24099265   179.99970526
 H      7   5   4     1.823139988615   110.00400658   180.00035571

---------------------
BASIS SET INFORMATION
---------------------
There are 4 groups of distinct atoms

 Group   1 Type C   : 7s4p1d contracted to 3s2p1d pattern {511/31/1}
 Group   2 Type O   : 7s4p1d contracted to 3s2p1d pattern {511/31/1}
 Group   3 Type Cl  : 10s7p1d contracted to 4s3p1d pattern {5311/511/1}
 Group   4 Type H   : 4s contracted to 2s pattern {31}

Atom   0C    basis set group =>   1
Atom   1C    basis set group =>   1
Atom   2C    basis set group =>   1
Atom   3C    basis set group =>   1
Atom   4C    basis set group =>   1
Atom   5C    basis set group =>   1
Atom   6O    basis set group =>   2
Atom   7Cl   basis set group =>   3
Atom   8H    basis set group =>   4
Atom   9H    basis set group =>   4
Atom  10H    basis set group =>   4
Atom  11H    basis set group =>   4
Atom  12H    basis set group =>   4
---------------------------------
AUXILIARY/J BASIS SET INFORMATION
---------------------------------
There are 4 groups of distinct atoms

 Group   1 Type C   : 12s5p4d2f1g contracted to 6s4p3d1f1g pattern {711111/2111/211/2/1}
 Group   2 Type O   : 12s5p4d2f1g contracted to 6s4p3d1f1g pattern {711111/2111/211/2/1}
 Group   3 Type Cl  : 14s5p5d2f1g contracted to 8s4p3d1f1g pattern {71111111/2111/311/2/1}
 Group   4 Type H   : 5s2p1d contracted to 3s1p1d pattern {311/2/1}

Atom   0C    basis set group =>   1
Atom   1C    basis set group =>   1
Atom   2C    basis set group =>   1
Atom   3C    basis set group =>   1
Atom   4C    basis set group =>   1
Atom   5C    basis set group =>   1
Atom   6O    basis set group =>   2
Atom   7Cl   basis set group =>   3
Atom   8H    basis set group =>   4
Atom   9H    basis set group =>   4
Atom  10H    basis set group =>   4
Atom  11H    basis set group =>   4
Atom  12H    basis set group =>   4

Checking for AutoStart:
The File: sp.gbw exists
Trying to determine its content:
     ... Fine, the file contains calculation information
     ... Fine, the calculation information was read
     ... Fine, the file contains a basis set
     ... Fine, the basis set was read
     ... Fine, the file contains a geometry
     ... Fine, the geometry was read
     ... The file does not contain orbitals - skipping AutoStart
------------------------------------------------------------------------------
                             ORCA STARTUP CALCULATIONS
                           -- RI-GTO INTEGRALS CHOSEN --
------------------------------------------------------------------------------
------------------------------------------------------------------------------
                   ___                                                        
                  /   \      - P O W E R E D   B Y -                         
                 /     \                                                     
                 |  |  |   _    _      __       _____    __    __             
                 |  |  |  | |  | |    /  \     |  _  \  |  |  /  |          
                  \  \/   | |  | |   /    \    | | | |  |  | /  /          
                 / \  \   | |__| |  /  /\  \   | |_| |  |  |/  /          
                |  |  |   |  __  | /  /__\  \  |    /   |      \           
                |  |  |   | |  | | |   __   |  |    \   |  |\   \          
                \     /   | |  | | |  |  |  |  | |\  \  |  | \   \       
                 \___/    |_|  |_| |__|  |__|  |_| \__\ |__|  \__/        
                                                                              
                      - O R C A' S   B I G   F R I E N D -                    
                                      &                                       
                       - I N T E G R A L  F E E D E R -                       
                                                                              
 v1 FN, 2020, v2 2021, v3 2022-2024                                           
------------------------------------------------------------------------------


----------------------
SHARK INTEGRAL PACKAGE
----------------------

Number of atoms                             ...     13
Number of basis functions                   ...    126
Number of shells                            ...     60
Maximum angular momentum                    ...      2
Integral batch strategy                     ... SHARK/LIBINT Hybrid
RI-J (if used) integral strategy            ... SPLIT-RIJ (Revised 2003 algorithm where possible)
Printlevel                                  ...      1
Contraction scheme used                     ... SEGMENTED contraction
Prescreening option                         ... SCHWARTZ
   Thresh                                   ... 1.000e-09
   Tcut                                     ... 1.000e-10
   Tpresel                                  ... 1.000e-10 
Coulomb Range Separation                    ... NOT USED
Exchange Range Separation                   ... NOT USED
Multipole approximations                    ... NOT USED
Finite Nucleus Model                        ... NOT USED
CABS basis                                  ... NOT available
Auxiliary Coulomb fitting basis             ... AVAILABLE
   # of basis functions in Aux-J            ...    449
   # of shells in Aux-J                     ...    147
   Maximum angular momentum in Aux-J        ...      4
Auxiliary J/K fitting basis                 ... NOT available
Auxiliary Correlation fitting basis         ... NOT available
Auxiliary 'external' fitting basis          ... NOT available

Checking pre-screening integrals            ... done (  0.0 sec) Dimension = 60
Check shell pair data                       ... done (  0.0 sec)
Shell pair information
Shell pair cut-off parameter TPreSel        ...   1.0e-10
Total number of shell pairs                 ...      1830
Shell pairs after pre-screening             ...      1723
Total number of primitive shell pairs       ...      7632
Primitive shell pairs kept                  ...      5088
          la=0 lb=0:    576 shell pairs
          la=1 lb=0:    567 shell pairs
          la=1 lb=1:    150 shell pairs
          la=2 lb=0:    262 shell pairs
          la=2 lb=1:    132 shell pairs
          la=2 lb=2:     36 shell pairs

Calculating one electron integrals          ... done (  0.0 sec)
Calculating RI/J V-Matrix + Cholesky decomp.... done (  0.0 sec)
Calculating Nuclear repulsion               ... done (  0.0 sec) ENN=    407.530927536005 Eh

Diagonalization of the overlap matrix:
Smallest eigenvalue                        ... 2.251e-04
Time for diagonalization                   ...    0.001 sec
Threshold for overlap eigenvalues          ... 1.000e-07
Number of eigenvalues below threshold      ... 0
Time for construction of square roots      ...    0.000 sec
Total time needed                          ...    0.002 sec

-------------------
DFT GRID GENERATION
-------------------

General Integration Accuracy     IntAcc      ... 4.159
Radial Grid Type                 RadialGrid  ... OptM3 with GC (2021)
Angular Grid (max. ang.)         AngularGrid ... 3 (Lebedev-194)
Angular grid pruning method      GridPruning ... 4 (adaptive)
Weight generation scheme         WeightScheme... mBecke (2022)
Basis function cutoff            BFCut       ... 1.0000e-10
Integration weight cutoff        WCut        ... 1.0000e-14
Partially contracted basis set               ... off
Rotationally invariant grid construction     ... off
Angular grids for H and He will be reduced by one unit

Total number of grid points                  ...    34236
Total number of batches                      ...      541
Average number of points per batch           ...       63
Average number of grid points per atom       ...     2634
Initializing property integral containers    ... done (  0.0 sec)

SHARK setup successfully completed in   0.2 seconds

Maximum memory used throughout the entire STARTUP-calculation: 18.0 MB
-------------------------------------------------------------------------------
                                 ORCA GUESS
                   Start orbitals & Density for SCF / CASSCF
-------------------------------------------------------------------------------

------------
SCF SETTINGS
------------
Hamiltonian:
 Density Functional     Method          .... DFT(GTOs)
 Exchange Functional    Exchange        .... PBE
   PBE kappa parameter   XKappa         ....  0.804000
   PBE mue parameter    XMuePBE         ....  0.219520
 Correlation Functional Correlation     .... PBE
   PBE beta parameter  CBetaPBE         ....  0.066725
 LDA part of GGA corr.  LDAOpt          .... PW91-LDA
 Gradients option       PostSCFGGA      .... off
   NL short-range parameter             ....  6.400000
 RI-approximation to the Coulomb term is turned on
   Number of AuxJ basis functions       .... 449


General Settings:
 Integral files         IntName         .... sp
 Hartree-Fock type      HFTyp           .... RHF
 Total Charge           Charge          ....    0
 Multiplicity           Mult            ....    1
 Number of Electrons    NEL             ....   66
 Basis Dimension        Dim             ....  126
 Nuclear Repulsion      ENuc            ....    407.5309275360 Eh

Convergence Acceleration:
 AO-DIIS                CNVDIIS         .... on
   Start iteration      DIISMaxIt       ....    12
   Startup error        DIISStart       ....  0.200000
   # of expansion vecs  DIISMaxEq       ....     5
   Bias factor          DIISBfac        ....   1.050
   Max. coefficient     DIISMaxC        ....  10.000
 MO-DIIS                CNVKDIIS        .... off
 Trust-Rad. Augm. Hess. CNVTRAH         .... auto
   Auto Start mean grad. ratio tolernc. ....  1.125000
   Auto Start start iteration           ....    50
   Auto Start num. interpolation iter.  ....    10
   Max. Number of Micro iterations      ....    24
   Max. Number of Macro iterations      .... Maxiter - #DIIS iter
   Number of Davidson start vectors     ....     2
   Converg. threshold    (grad. norm)   ....   1.000e-04
   Grad. Scal. Fac. for Micro threshold ....   0.100
   Minimum threshold for Micro iter.    ....   1.000e-02
   NR start threshold (gradient norm)   ....   1.000e-04
   Initial trust radius                 ....   0.400
   Minimum AH scaling param. (alpha)    ....   1.000
   Maximum AH scaling param. (alpha)    .... 1000.000
   Quad. conv. algorithm                .... NR
   White noise on init. David. guess    .... on
   Maximum white noise                  ....   0.010
   Pseudo random numbers                .... off
   Inactive MOs                         .... canonical
   Orbital update algorithm             .... Taylor
   Preconditioner                       .... Diag
   Full preconditioner red. dimension   ....   250
 SOSCF                  CNVSOSCF        .... on
   Start iteration      SOSCFMaxIt      ....   150
   Startup grad/error   SOSCFStart      ....  0.003300
   Hessian update       SOSCFHessUp     .... L-BFGS
 Level Shifting         CNVShift        .... on
   Level shift para.    LevelShift      ....    0.2500
   Turn off err/grad.   ShiftErr        ....    0.0010
 Zerner damping         CNVZerner       .... off
 Static damping         CNVDamp         .... on
   Fraction old density DampFac         ....    0.7000
   Max. Damping (<1)    DampMax         ....    0.9800
   Min. Damping (>=0)   DampMin         ....    0.0000
   Turn off err/grad.   DampErr         ....    0.1000

SCF Procedure:
 Maximum # iterations   MaxIter         ....   125
 SCF integral mode      SCFMode         .... Direct
   Integral package                     .... SHARK and LIBINT hybrid scheme
 Reset frequency        DirectResetFreq ....    20
 Integral Threshold     Thresh          ....  1.000e-09 Eh
 Primitive CutOff       TCut            ....  1.000e-10 Eh

Convergence Tolerance:
 Convergence Check Mode ConvCheckMode   .... Total+1el-Energy
 Convergence forced     ConvForced      .... 0
 Energy Change          TolE            ....  1.000e-05 Eh
 1-El. energy change                    ....  1.000e-02 Eh
 Orbital Gradient       TolG            ....  1.000e-04
 Orbital Rotation angle TolX            ....  1.000e-04
 DIIS Error             TolErr          ....  5.000e-04

------------------------------
INITIAL GUESS: MODEL POTENTIAL
------------------------------
Loading Hartree-Fock densities                     ... done
Calculating cut-offs                               ... done
Initializing the effective Hamiltonian             ... done
Setting up the integral package (SHARK)            ... done
Starting the Coulomb interaction                   ... done (   0.0 sec)
Making the grid                                    ... done (   0.1 sec)
Mapping shells                                     ... done
Starting the XC term evaluation                    ... done (   0.1 sec)
  promolecular density results
     # of electrons  =     65.996037617
     EX              =    -67.735599422
     EC              =     -2.306417396
     EX+EC           =    -70.042016818
Transforming the Hamiltonian                       ... done (   0.0 sec)
Diagonalizing the Hamiltonian                      ... done (   0.0 sec)
Back transforming the eigenvectors                 ... done (   0.0 sec)
Now organizing SCF variables                       ... done
                      ------------------
                      INITIAL GUESS DONE (   0.2 sec)
                      ------------------
             **** ENERGY FILE WAS UPDATED (sp.en.tmp) ****
Finished Guess after   0.2 sec
Maximum memory used throughout the entire GUESS-calculation: 13.7 MB

-------------------------------------------------------------------------------------------
                                      ORCA LEAN-SCF
                              memory conserving SCF solver
-------------------------------------------------------------------------------------------

----------------------------------------D-I-I-S--------------------------------------------
Iteration    Energy (Eh)           Delta-E    RMSDP     MaxDP     DIISErr   Damp  Time(sec)
-------------------------------------------------------------------------------------------
               ***  Starting incremental Fock matrix formation  ***
    1    -765.9729256177749903     0.00e+00  4.33e-03  5.78e-02  1.78e-01  0.700   0.2
    2    -766.0456584099561042    -7.27e-02  2.99e-03  3.55e-02  7.98e-02  0.700   0.2
                               ***Turning on AO-DIIS***
    3    -766.0708576164108763    -2.52e-02  1.16e-03  1.36e-02  2.35e-02  0.700   0.2
    4    -766.0857407017026617    -1.49e-02  1.98e-03  2.72e-02  1.02e-02  0.000   0.2
    5    -766.1197198151942303    -3.40e-02  5.61e-04  8.91e-03  1.13e-02  0.000   0.2
                              *** Initializing SOSCF ***
---------------------------------------S-O-S-C-F--------------------------------------
Iteration    Energy (Eh)           Delta-E    RMSDP     MaxDP     MaxGrad    Time(sec)
--------------------------------------------------------------------------------------
    6    -766.1200681427521886    -3.48e-04  1.70e-04  2.47e-03  3.00e-03     0.2
               *** Restarting incremental Fock matrix formation ***
    7    -766.1201049761248214    -3.68e-05  1.23e-04  2.19e-03  2.42e-04     0.2
    8    -766.1201038687208893     1.11e-06  5.79e-05  9.10e-04  5.64e-04     0.2
                 **** Energy Check signals convergence ****

               *****************************************************
               *                     SUCCESS                       *
               *           SCF CONVERGED AFTER   8 CYCLES          *
               *****************************************************

             **** ENERGY FILE WAS UPDATED (sp.en.tmp) ****

----------------
TOTAL SCF ENERGY
----------------

Total Energy       :       -766.12010386872089 Eh          -20847.18788 eV

Components:
Nuclear Repulsion  :        407.53092753600549 Eh           11089.48032 eV
Electronic Energy  :      -1173.65103140472638 Eh          -31936.66819 eV
One Electron Energy:      -1859.12023150386767 Eh          -50589.23341 eV
Two Electron Energy:        685.46920009914118 Eh           18652.56521 eV

Virial components:
Potential Energy   :      -1528.92127415262939 Eh          -41604.06298 eV
Kinetic Energy     :        762.80117028390862 Eh           20756.87510 eV
Virial Ratio       :          2.00435098124401

DFT components:
N(Alpha)           :       32.999918931173 electrons
N(Beta)            :       32.999918931173 electrons
N(Total)           :       65.999837862347 electrons
E(X)               :      -68.385323267620 Eh       
E(C)               :       -2.318797645097 Eh       
E(XC)              :      -70.704120912717 Eh       

---------------
SCF CONVERGENCE
---------------

  Last Energy change         ...   -1.1074e-06  Tolerance :   1.0000e-05
  Last MAX-Density change    ...    9.0959e-04  Tolerance :   1.0000e-03
  Last RMS-Density change    ...    5.7938e-05  Tolerance :   1.0000e-04
  Last DIIS Error            ...    3.0038e-03  Tolerance :   5.0000e-04
  Last Orbital Gradient      ...    5.6354e-04  Tolerance :   1.0000e-04
  Last Orbital Rotation      ...    1.1322e-03  Tolerance :   1.0000e-04


----------------
ORBITAL ENERGIES
----------------

  NO   OCC          E(Eh)            E(eV) 
   0   2.0000    -100.633445     -2738.3753 
   1   2.0000     -18.791851      -511.3523 
   2   2.0000      -9.964720      -271.1538 
   3   2.0000      -9.944330      -270.5990 
   4   2.0000      -9.902450      -269.4594 
   5   2.0000      -9.902293      -269.4551 
   6   2.0000      -9.901070      -269.4218 
   7   2.0000      -9.895704      -269.2758 
   8   2.0000      -9.169239      -249.5077 
   9   2.0000      -7.000716      -190.4992 
  10   2.0000      -6.989266      -190.1876 
  11   2.0000      -6.988464      -190.1658 
  12   2.0000      -0.976559       -26.5735 
  13   2.0000      -0.807187       -21.9647 
  14   2.0000      -0.759197       -20.6588 
  15   2.0000      -0.676532       -18.4094 
  16   2.0000      -0.659291       -17.9402 
  17   2.0000      -0.579270       -15.7627 
  18   2.0000      -0.540143       -14.6980 
  19   2.0000      -0.505227       -13.7479 
  20   2.0000      -0.451801       -12.2941 
  21   2.0000      -0.433787       -11.8039 
  22   2.0000      -0.402395       -10.9497 
  23   2.0000      -0.388958       -10.5841 
  24   2.0000      -0.382875       -10.4186 
  25   2.0000      -0.352982        -9.6051 
  26   2.0000      -0.330820        -9.0021 
  27   2.0000      -0.313177        -8.5220 
  28   2.0000      -0.309223        -8.4144 
  29   2.0000      -0.292716        -7.9652 
  30   2.0000      -0.259621        -7.0647 
  31   2.0000      -0.225316        -6.1312 
  32   2.0000      -0.199003        -5.4151 
  33   0.0000      -0.042760        -1.1636 
  34   0.0000      -0.027447        -0.7469 
  35   0.0000       0.013840         0.3766 
  36   0.0000       0.017167         0.4671 
  37   0.0000       0.065505         1.7825 
  38   0.0000       0.081882         2.2281 
  39   0.0000       0.111402         3.0314 
  40   0.0000       0.117504         3.1974 
  41   0.0000       0.132084         3.5942 
  42   0.0000       0.193234         5.2582 
  43   0.0000       0.248712         6.7678 
*Only the first 10 virtual orbitals were printed.

                    ********************************
                    * MULLIKEN POPULATION ANALYSIS *
                    ********************************

-----------------------
MULLIKEN ATOMIC CHARGES
-----------------------
   0 C :   -0.037510
   1 C :   -0.058840
   2 C :   -0.097843
   3 C :    0.036898
   4 C :    0.209087
   5 C :   -0.189964
   6 O :   -0.312272
   7 Cl:   -0.064021
   8 H :    0.056133
   9 H :    0.056094
  10 H :    0.048131
  11 H :    0.033456
  12 H :    0.320649
Sum of atomic charges:    0.0000000

--------------------------------
MULLIKEN REDUCED ORBITAL CHARGES
--------------------------------
  0 C s       :     3.180643  s :     3.180643
      pz      :     0.994893  p :     2.821129
      px      :     0.843971
      py      :     0.982265
      dz2     :     0.003144  d :     0.035738
      dxz     :     0.002053
      dyz     :     0.007516
      dx2y2   :     0.013578
      dxy     :     0.009446

  1 C s       :     3.182024  s :     3.182024
      pz      :     1.023591  p :     2.841823
      px      :     0.929695
      py      :     0.888536
      dz2     :     0.003169  d :     0.034994
      dxz     :     0.005178
      dyz     :     0.003561
      dx2y2   :     0.009866
      dxy     :     0.013220

  2 C s       :     3.302489  s :     3.302489
      pz      :     0.996907  p :     2.760459
      px      :     0.885557
      py      :     0.877995
      dz2     :     0.003274  d :     0.034895
      dxz     :     0.006520
      dyz     :     0.003140
      dx2y2   :     0.009372
      dxy     :     0.012588

  3 C s       :     2.942734  s :     2.942734
      pz      :     1.100860  p :     2.970782
      px      :     0.823000
      py      :     1.046922
      dz2     :     0.003632  d :     0.049586
      dxz     :     0.008134
      dyz     :     0.006628
      dx2y2   :     0.016877
      dxy     :     0.014315

  4 C s       :     2.945789  s :     2.945789
      pz      :     0.987860  p :     2.772295
      px      :     0.845465
      py      :     0.938969
      dz2     :     0.005100  d :     0.072830
      dxz     :     0.011027
      dyz     :     0.013790
      dx2y2   :     0.019344
      dxy     :     0.023569

  5 C s       :     3.274563  s :     3.274563
      pz      :     1.079586  p :     2.882397
      px      :     0.979522
      py      :     0.823289
      dz2     :     0.003350  d :     0.033003
      dxz     :     0.005917
      dyz     :     0.002700
      dx2y2   :     0.012092
      dxy     :     0.008944

  6 O s       :     3.739152  s :     3.739152
      pz      :     1.818090  p :     4.556292
      px      :     1.558563
      py      :     1.179638
      dz2     :     0.002834  d :     0.016828
      dxz     :     0.002161
      dyz     :     0.001036
      dx2y2   :     0.002148
      dxy     :     0.008649

  7 Cls       :     5.941353  s :     5.941353
      pz      :     3.907866  p :    11.084455
      px      :     3.236905
      py      :     3.939684
      dz2     :     0.005109  d :     0.038213
      dxz     :     0.010832
      dyz     :     0.000155
      dx2y2   :     0.015508
      dxy     :     0.006609

  8 H s       :     0.943867  s :     0.943867

  9 H s       :     0.943906  s :     0.943906

 10 H s       :     0.951869  s :     0.951869

 11 H s       :     0.966544  s :     0.966544

 12 H s       :     0.679351  s :     0.679351


------------------------
MULLIKEN OVERLAP CHARGES
------------------------
B(  0-C ,  1-C ) :   0.1906 B(  0-C ,  2-C ) :   0.3973 B(  0-C ,  3-C ) :  -0.4360 
B(  0-C ,  4-C ) :   0.4821 B(  0-C ,  5-C ) :   0.0924 B(  0-C ,  8-H ) :   0.8787 
B(  0-C ,  9-H ) :  -0.1861 B(  0-C , 11-H ) :  -0.1477 B(  1-C ,  2-C ) :   0.2232 
B(  1-C ,  3-C ) :   0.4287 B(  1-C ,  4-C ) :  -0.4632 B(  1-C ,  5-C ) :   0.3926 
B(  1-C ,  8-H ) :  -0.1764 B(  1-C ,  9-H ) :   0.8937 B(  1-C , 10-H ) :  -0.1744 
B(  2-C ,  3-C ) :   0.4738 B(  2-C ,  4-C ) :   0.3405 B(  2-C ,  5-C ) :  -0.3910 
B(  2-C ,  7-Cl) :  -0.1124 B(  2-C ,  9-H ) :  -0.1789 B(  2-C , 10-H ) :   0.8831 
B(  3-C ,  5-C ) :   0.2193 B(  3-C ,  6-O ) :  -0.1913 B(  3-C ,  7-Cl) :   0.4643 
B(  3-C , 10-H ) :  -0.1942 B(  4-C ,  5-C ) :   0.1782 B(  4-C ,  6-O ) :   0.9359 
B(  4-C ,  7-Cl) :  -0.1190 B(  4-C , 11-H ) :  -0.1982 B(  4-C , 12-H ) :  -0.0707 
B(  5-C ,  6-O ) :  -0.1752 B(  5-C ,  8-H ) :  -0.1654 B(  5-C , 11-H ) :   0.8483 
B(  6-O , 12-H ) :   0.5442 


                     *******************************
                     * LOEWDIN POPULATION ANALYSIS *
                     *******************************

----------------------
LOEWDIN ATOMIC CHARGES
----------------------
   0 C :   -0.121226
   1 C :   -0.141505
   2 C :   -0.132579
   3 C :   -0.161451
   4 C :    0.003514
   5 C :   -0.171201
   6 O :   -0.223284
   7 Cl:    0.138769
   8 H :    0.126436
   9 H :    0.126560
  10 H :    0.131519
  11 H :    0.123355
  12 H :    0.301093

-------------------------------
LOEWDIN REDUCED ORBITAL CHARGES
-------------------------------
  0 C s       :     2.887932  s :     2.887932
      pz      :     0.987798  p :     3.139324
      px      :     1.064101
      py      :     1.087425
      dz2     :     0.007145  d :     0.093970
      dxz     :     0.003447
      dyz     :     0.016739
      dx2y2   :     0.037337
      dxy     :     0.029301

  1 C s       :     2.886471  s :     2.886471
      pz      :     1.016646  p :     3.162690
      px      :     1.074001
      py      :     1.072042
      dz2     :     0.007184  d :     0.092343
      dxz     :     0.010986
      dyz     :     0.007043
      dx2y2   :     0.030207
      dxy     :     0.036922

  2 C s       :     2.895694  s :     2.895694
      pz      :     0.993798  p :     3.144560
      px      :     1.087870
      py      :     1.062893
      dz2     :     0.007481  d :     0.092325
      dxz     :     0.014264
      dyz     :     0.006045
      dx2y2   :     0.028190
      dxy     :     0.036344

  3 C s       :     2.900228  s :     2.900228
      pz      :     1.084146  p :     3.138929
      px      :     0.943295
      py      :     1.111488
      dz2     :     0.008573  d :     0.122293
      dxz     :     0.015879
      dyz     :     0.013741
      dx2y2   :     0.043096
      dxy     :     0.041004

  4 C s       :     2.839747  s :     2.839747
      pz      :     0.981963  p :     2.982682
      px      :     1.041408
      py      :     0.959310
      dz2     :     0.011820  d :     0.174057
      dxz     :     0.022478
      dyz     :     0.027898
      dx2y2   :     0.050657
      dxy     :     0.061204

  5 C s       :     2.891927  s :     2.891927
      pz      :     1.059907  p :     3.189796
      px      :     1.060241
      py      :     1.069648
      dz2     :     0.007605  d :     0.089478
      dxz     :     0.012562
      dyz     :     0.005068
      dx2y2   :     0.035395
      dxy     :     0.028849

  6 O s       :     3.505964  s :     3.505964
      pz      :     1.811806  p :     4.687709
      px      :     1.620190
      py      :     1.255713
      dz2     :     0.004584  d :     0.029610
      dxz     :     0.002454
      dyz     :     0.002117
      dx2y2   :     0.004239
      dxy     :     0.016216

  7 Cls       :     5.752344  s :     5.752344
      pz      :     3.891080  p :    11.063923
      px      :     3.261422
      py      :     3.911420
      dz2     :     0.006178  d :     0.044965
      dxz     :     0.011986
      dyz     :     0.000148
      dx2y2   :     0.019428
      dxy     :     0.007224

  8 H s       :     0.873564  s :     0.873564

  9 H s       :     0.873440  s :     0.873440

 10 H s       :     0.868481  s :     0.868481

 11 H s       :     0.876645  s :     0.876645

 12 H s       :     0.698907  s :     0.698907


---------------------------------
LOEWDIN BOND ORDERS (THRESH 0.050000)
---------------------------------
B(  0-C ,  1-C ) :   1.4970 B(  0-C ,  2-C ) :   0.0872 B(  0-C ,  3-C ) :   0.1060 
B(  0-C ,  4-C ) :   0.0912 B(  0-C ,  5-C ) :   1.4989 B(  0-C ,  8-H ) :   0.8868 
B(  1-C ,  2-C ) :   1.4900 B(  1-C ,  3-C ) :   0.0921 B(  1-C ,  4-C ) :   0.0981 
B(  1-C ,  5-C ) :   0.0887 B(  1-C ,  9-H ) :   0.8869 B(  2-C ,  3-C ) :   1.4744 
B(  2-C ,  4-C ) :   0.0907 B(  2-C ,  5-C ) :   0.1099 B(  2-C ,  7-Cl) :   0.1133 
B(  2-C , 10-H ) :   0.8808 B(  3-C ,  4-C ) :   1.3459 B(  3-C ,  5-C ) :   0.0895 
B(  3-C ,  6-O ) :   0.1032 B(  3-C ,  7-Cl) :   1.2602 B(  4-C ,  5-C ) :   1.4212 
B(  4-C ,  6-O ) :   1.3509 B(  4-C ,  7-Cl) :   0.1039 B(  5-C ,  6-O ) :   0.1176 
B(  5-C , 11-H ) :   0.8774 B(  6-O , 12-H ) :   0.8695 

------------------------------------------
LOEWDIN REDUCED ORBITAL POPULATIONS PER MO
-------------------------------------------
THRESHOLD FOR PRINTING IS 0.1%%
                      0         1         2         3         4         5   
                 -100.63345 -18.79185  -9.96472  -9.94433  -9.90245  -9.90229
                   2.00000   2.00000   2.00000   2.00000   2.00000   2.00000
                  --------  --------  --------  --------  --------  --------
 0 C  s               0.0       0.0       0.0       0.0       0.8       0.1
 1 C  px              0.0       0.0       0.0       0.0       0.0       0.1
 2 C  s               0.0       0.0       0.0       0.0       3.7      95.8
 2 C  py              0.0       0.0       0.0       0.1       0.0       0.0
 3 C  s               0.0       0.0       0.0      99.6       0.0       0.0
 3 C  py              0.0       0.0       0.1       0.0       0.0       0.1
 4 C  s               0.0       0.0      99.5       0.0       0.0       0.0
 4 C  px              0.0       0.0       0.0       0.0       0.1       0.0
 4 C  py              0.0       0.0       0.0       0.1       0.0       0.0
 5 C  s               0.0       0.0       0.0       0.0      95.1       3.6
 5 C  px              0.0       0.0       0.1       0.0       0.0       0.0
 6 O  s               0.0      99.9       0.0       0.0       0.0       0.0
 7 Cl s             100.0       0.0       0.0       0.0       0.0       0.0

                      6         7         8         9        10        11   
                  -9.90107  -9.89570  -9.16924  -7.00072  -6.98927  -6.98846
                   2.00000   2.00000   2.00000   2.00000   2.00000   2.00000
                  --------  --------  --------  --------  --------  --------
 0 C  s              98.6       0.1       0.0       0.0       0.0       0.0
 0 C  py              0.0       0.1       0.0       0.0       0.0       0.0
 1 C  s               0.1      99.5       0.0       0.0       0.0       0.0
 1 C  py              0.1       0.0       0.0       0.0       0.0       0.0
 2 C  px              0.0       0.1       0.0       0.0       0.0       0.0
 3 C  px              0.0       0.0       0.1       0.0       0.0       0.0
 5 C  s               0.9       0.0       0.0       0.0       0.0       0.0
 7 Cl s               0.0       0.0      99.8       0.0       0.0       0.0
 7 Cl pz              0.0       0.0       0.0       0.0     100.0       0.0
 7 Cl px              0.0       0.0       0.0      98.9       0.0       1.1
 7 Cl py              0.0       0.0       0.0       1.1       0.0      98.9

                     12        13        14        15        16        17   
                  -0.97656  -0.80719  -0.75920  -0.67653  -0.65929  -0.57927
                   2.00000   2.00000   2.00000   2.00000   2.00000   2.00000
                  --------  --------  --------  --------  --------  --------
 0 C  s               0.1       3.2      12.8       0.2      15.7       1.7
 0 C  px              0.1       1.0       1.9       0.1       0.1       0.6
 0 C  py              0.0       0.0       0.0       9.1       0.0       7.5
 0 C  dz2             0.0       0.0       0.2       0.0       0.1       0.0
 0 C  dxy             0.0       0.0       0.0       0.3       0.0       0.1
 1 C  s               0.0       4.2       9.6      12.3       4.0       4.8
 1 C  px              0.0       1.0       0.1       2.6       4.2       4.6
 1 C  py              0.0       0.5       1.9       0.9       1.9       0.2
 1 C  dz2             0.0       0.1       0.1       0.1       0.0       0.0
 1 C  dx2y2           0.0       0.0       0.0       0.1       0.2       0.1
 2 C  s               0.1       9.3       2.9      16.6       3.3       4.8
 2 C  px              0.0       0.3       3.3       1.4       2.4       3.9
 2 C  py              0.1       2.6       0.2       0.2       1.2       0.1
 2 C  dz2             0.0       0.1       0.0       0.1       0.0       0.0
 2 C  dx2y2           0.0       0.0       0.0       0.1       0.1       0.0
 3 C  s               1.1      22.7       0.3       0.1       8.6       0.0
 3 C  px              0.0       1.0      12.8       0.5       6.5       0.4
 3 C  py              1.3       0.1       0.0       8.8       0.6      11.6
 3 C  dz2             0.0       0.3       0.0       0.0       0.0       0.0
 3 C  dx2y2           0.0       0.1       0.2       0.0       0.4       0.0
 3 C  dxy             0.0       0.0       0.0       0.3       0.0       0.1
 4 C  s              11.3       5.1       2.2       8.3       6.7       2.1
 4 C  px              2.9       0.0       5.0       4.0       1.1      12.1
 4 C  py              6.4       6.1       0.1       0.1       3.7       0.3
 4 C  dz2             0.4       0.0       0.0       0.0       0.0       0.0
 4 C  dx2y2           0.1       0.0       0.0       0.2       0.1       0.0
 4 C  dxy             0.6       0.1       0.0       0.1       0.0       0.1
 5 C  s               1.0       3.3      10.5      15.1       2.0       6.4
 5 C  px              1.5       0.3       0.0       0.9       6.6       0.0
 5 C  py              0.0       1.0       1.9       0.1       0.7       1.8
 5 C  dz2             0.0       0.0       0.1       0.1       0.0       0.0
 5 C  dx2y2           0.0       0.0       0.0       0.1       0.1       0.0
 5 C  dxy             0.0       0.0       0.0       0.0       0.2       0.0
 6 O  s              57.4       1.8       0.3       2.1       0.7       0.0
 6 O  px              3.6       0.1       0.1       0.3       0.0       0.4
 6 O  py              0.1       0.9       0.1       3.0       4.3      20.0
 6 O  dxy             0.0       0.0       0.0       0.1       0.1       0.2
 7 Cl s               0.1      28.9      28.1       0.5      15.5       0.1
 7 Cl px              0.1       2.3       0.5       0.0       0.9       0.0
 7 Cl py              0.0       0.0       0.0       0.1       0.0       0.6
 7 Cl dx2y2           0.0       0.2       0.1       0.0       0.0       0.0
 8 H  s               0.0       0.4       1.8       0.1       4.0       0.8
 9 H  s               0.0       0.5       1.3       2.7       1.0       2.2
10 H  s               0.0       1.4       0.2       3.6       0.5       2.3
11 H  s               0.2       0.3       1.5       3.3       0.7       3.8
12 H  s              11.3       0.7       0.0       1.4       1.5       6.0

                     18        19        20        21        22        23   
                  -0.54014  -0.50523  -0.45180  -0.43379  -0.40239  -0.38896
                   2.00000   2.00000   2.00000   2.00000   2.00000   2.00000
                  --------  --------  --------  --------  --------  --------
 0 C  s               6.5       1.8       0.2       0.9       0.8       0.3
 0 C  px              1.6       4.6       8.6       0.3       9.3      13.2
 0 C  py              0.7       5.4       3.6       9.6       1.5       0.1
 0 C  dx2y2           0.0       0.0       0.0       0.1       0.4       0.0
 0 C  dxy             0.0       0.0       0.0       0.1       0.1       0.2
 1 C  s               4.6       1.2       1.5       0.4       1.8       0.0
 1 C  px              1.7       0.2      14.6       3.7       0.5       0.4
 1 C  py              7.4       0.6       6.1      10.2       3.6       0.2
 1 C  dx2y2           0.1       0.0       0.0       0.0       0.0       0.4
 1 C  dxy             0.0       0.0       0.0       0.1       0.1       0.0
 2 C  s               0.9       4.2       0.9       0.0       0.7       0.3
 2 C  px              7.3       4.1       2.5       9.2       1.6       0.8
 2 C  py              6.0       4.6       0.4       2.5      14.3      11.9
 2 C  dx2y2           0.2       0.0       0.0       0.0       0.4       0.0
 2 C  dxy             0.1       0.0       0.2       0.0       0.1       0.2
 3 C  s               7.3       0.0       3.5       0.2       0.6       0.3
 3 C  px              0.1       1.5       3.1       0.6       2.4      13.5
 3 C  py              0.1       4.4       0.0      13.5       3.8       0.0
 3 C  dx2y2           0.0       0.2       0.0       0.0       0.3       0.1
 3 C  dxy             0.0       0.2       0.1       0.0       0.3       0.2
 4 C  s               1.9       0.4       0.4       0.4       2.8       0.0
 4 C  px              3.9       5.2       0.8       4.0       0.7       1.1
 4 C  py              7.3       6.7       0.1       9.1       3.3       0.4
 4 C  dx2y2           0.2       0.0       0.0       0.0       0.0       0.5
 4 C  dxy             0.0       0.3       0.8       0.3       0.0       0.0
 5 C  s               1.6       0.9       0.1       1.4       0.6       0.5
 5 C  px              6.4      10.4       1.3       9.9       2.7       1.4
 5 C  py              5.6       1.7      10.4       0.3       6.2      12.9
 5 C  dx2y2           0.1       0.0       0.0       0.1       0.6       0.0
 5 C  dxy             0.0       0.1       0.1       0.1       0.0       0.2
 6 O  s               1.2       0.1       1.6       0.7       0.1       0.0
 6 O  px              2.0       0.1       2.4       8.6       0.0       0.0
 6 O  py              5.3      19.7       3.8       2.7       1.7       0.0
 6 O  dxy             0.1       0.2       0.0       0.1       0.0       0.0
 7 Cl s               4.9       1.3       3.7       0.2       1.3       2.7
 7 Cl px              3.5       1.1      11.2       0.7       9.7      20.1
 7 Cl py              0.0       0.0       0.0       3.2       0.0       0.0
 7 Cl dx2y2           0.1       0.0       0.2       0.0       0.1       0.2
 7 Cl dxy             0.0       0.0       0.0       0.1       0.0       0.0
 8 H  s               3.9       3.7       2.0       0.5       8.1       6.0
 9 H  s               3.3       0.2      10.5       1.8       0.3       0.0
10 H  s               1.1       6.4       0.0       0.0      11.5       5.2
11 H  s               1.4       3.0       3.1       3.6       7.3       6.6
12 H  s               1.6       5.5       1.6       0.5       0.4       0.0

                     24        25        26        27        28        29   
                  -0.38288  -0.35298  -0.33082  -0.31318  -0.30922  -0.29272
                   2.00000   2.00000   2.00000   2.00000   2.00000   2.00000
                  --------  --------  --------  --------  --------  --------
 0 C  s               0.0       0.5       0.1       0.0       0.2       0.0
 0 C  pz              3.7       0.0       0.0       4.2       0.0      22.1
 0 C  px              0.0       3.3       0.0       0.0       8.5       0.0
 0 C  py              0.0       0.2      16.1       0.0       0.2       0.0
 0 C  dx2y2           0.0       0.4       0.0       0.0       0.8       0.0
 0 C  dxy             0.0       0.2       0.4       0.0       0.0       0.0
 1 C  s               0.0       0.1       0.1       0.0       0.0       0.0
 1 C  pz              3.1       0.0       0.0      10.0       0.0      14.7
 1 C  px              0.0      14.3       0.1       0.0       4.9       0.0
 1 C  py              0.0       1.6      17.3       0.0       0.9       0.0
 1 C  dyz             0.0       0.0       0.0       0.0       0.0       0.1
 1 C  dx2y2           0.0       0.3       0.0       0.0       0.3       0.0
 1 C  dxy             0.0       0.4       1.0       0.0       0.0       0.0
 2 C  s               0.0       0.3       0.4       0.0       0.2       0.0
 2 C  pz              5.7       0.0       0.0      14.4       0.0       1.4
 2 C  px              0.0      11.1       0.2       0.0       4.2       0.0
 2 C  py              0.0       0.4       6.5       0.0       1.5       0.0
 2 C  dxz             0.0       0.0       0.0       0.0       0.0       0.2
 2 C  dx2y2           0.0       0.1       0.1       0.0       0.3       0.0
 2 C  dxy             0.0       0.1       0.9       0.0       0.1       0.0
 3 C  s               0.0       0.0       0.3       0.0       0.3       0.0
 3 C  pz             17.8       0.0       0.0      10.8       0.0       5.3
 3 C  px              0.0       3.0       0.2       0.0       1.2       0.0
 3 C  py              0.0       3.0       3.7       0.0       2.5       0.0
 3 C  dxz             0.0       0.0       0.0       0.0       0.0       0.3
 3 C  dyz             0.1       0.0       0.0       0.2       0.0       0.0
 3 C  dx2y2           0.0       0.2       0.0       0.0       0.6       0.0
 4 C  s               0.0       0.2       0.1       0.0       0.1       0.0
 4 C  pz             29.6       0.0       0.0       3.9       0.0       0.1
 4 C  px              0.0       0.5       0.2       0.0       9.9       0.0
 4 C  py              0.0       0.6       1.5       0.0       1.0       0.0
 4 C  dxz             0.0       0.0       0.0       0.1       0.0       0.3
 4 C  dyz             0.0       0.0       0.0       0.7       0.0       0.0
 4 C  dx2y2           0.0       0.3       0.1       0.0       1.0       0.0
 4 C  dxy             0.0       0.2       0.5       0.0       0.0       0.0
 5 C  s               0.0       1.4       0.1       0.0       0.2       0.0
 5 C  pz              9.3       0.0       0.0       0.0       0.0      12.2
 5 C  px              0.0       0.0       1.1       0.0      10.2       0.0
 5 C  py              0.0       0.1      10.3       0.0       0.2       0.0
 5 C  dxz             0.1       0.0       0.0       0.1       0.0       0.0
 5 C  dyz             0.0       0.0       0.0       0.0       0.0       0.1
 5 C  dx2y2           0.0       0.0       0.2       0.0       0.5       0.0
 5 C  dxy             0.0       0.1       0.4       0.0       0.0       0.0
 6 O  s               0.0       5.5       0.3       0.0       3.3       0.0
 6 O  pz             24.9       0.0       0.0      38.9       0.0       1.4
 6 O  px              0.0      29.2       9.4       0.0      23.8       0.0
 6 O  py              0.0       0.6       0.5       0.0       0.1       0.0
 7 Cl s               0.0       0.3       0.0       0.0       0.1       0.0
 7 Cl pz              5.3       0.0       0.0      16.3       0.0      41.5
 7 Cl px              0.0       5.1       0.1       0.0       6.5       0.0
 7 Cl py              0.0       1.1       3.6       0.0       0.4       0.0
 7 Cl dxz             0.1       0.0       0.0       0.1       0.0       0.1
 8 H  s               0.0       4.2       0.0       0.0       8.2       0.0
 9 H  s               0.0       8.3      10.6       0.0       0.4       0.0
10 H  s               0.0       0.2       7.4       0.0       3.3       0.0
11 H  s               0.0       0.4       6.0       0.0       2.1       0.0
12 H  s               0.0       2.1       0.3       0.0       2.1       0.0

                     30        31        32        33        34        35   
                  -0.25962  -0.22532  -0.19900  -0.04276  -0.02745   0.01384
                   2.00000   2.00000   2.00000   0.00000   0.00000   0.00000
                  --------  --------  --------  --------  --------  --------
 0 C  s               0.0       0.0       0.0       0.0       0.0       1.6
 0 C  pz              0.0      10.4       9.1      21.1      10.9       0.0
 0 C  px              0.1       0.0       0.0       0.0       0.0       0.1
 0 C  py              0.2       0.0       0.0       0.0       0.0       0.1
 0 C  dxz             0.0       0.0       0.0       0.3       0.1       0.0
 0 C  dyz             0.0       0.4       0.3       0.4       1.1       0.0
 1 C  s               0.1       0.0       0.0       0.0       0.0       1.3
 1 C  pz              0.0       5.8      17.2       0.2      30.5       0.0
 1 C  px              0.7       0.0       0.0       0.0       0.0       0.1
 1 C  py              0.2       0.0       0.0       0.0       0.0       0.8
 1 C  dxz             0.0       0.4       0.0       1.1       0.1       0.0
 1 C  dyz             0.0       0.1       0.0       0.5       0.3       0.0
 1 C  dxy             0.1       0.0       0.0       0.0       0.0       0.4
 2 C  s               0.5       0.0       0.0       0.0       0.0       0.9
 2 C  pz              0.0      28.2       0.1      25.0       7.0       0.0
 2 C  px              1.9       0.0       0.0       0.0       0.0       0.2
 2 C  py              0.6       0.0       0.0       0.0       0.0       1.5
 2 C  dxz             0.0       0.0       0.5       0.1       1.3       0.0
 2 C  dyz             0.0       0.0       0.1       0.5       0.0       0.0
 2 C  dx2y2           0.0       0.0       0.0       0.0       0.0       1.2
 2 C  dxy             0.0       0.0       0.0       0.0       0.0       0.5
 3 C  s               0.0       0.0       0.0       0.0       0.0       4.8
 3 C  pz              0.0       4.6      15.7      20.2       6.1       0.0
 3 C  px              0.1       0.0       0.0       0.0       0.0      14.8
 3 C  py              2.0       0.0       0.0       0.0       0.0       0.4
 3 C  dz2             0.0       0.0       0.0       0.0       0.0       0.5
 3 C  dxz             0.0       0.2       0.2       0.1       0.0       0.0
 3 C  dyz             0.0       0.3       0.1       0.5       1.3       0.0
 3 C  dx2y2           0.0       0.0       0.0       0.0       0.0       1.7
 3 C  dxy             1.0       0.0       0.0       0.0       0.0       0.1
 4 C  s               0.4       0.0       0.0       0.0       0.0       0.6
 4 C  pz              0.0       1.1      14.4       0.3      28.3       0.0
 4 C  px              0.5       0.0       0.0       0.0       0.0       1.2
 4 C  py              1.4       0.0       0.0       0.0       0.0       1.7
 4 C  dz2             0.0       0.0       0.0       0.0       0.0       0.1
 4 C  dxz             0.0       0.6       0.2       1.1       0.0       0.0
 4 C  dyz             0.0       0.0       0.7       0.6       0.0       0.0
 4 C  dx2y2           0.0       0.0       0.0       0.0       0.0       1.0
 4 C  dxy             0.0       0.0       0.0       0.0       0.0       1.4
 5 C  s               0.1       0.0       0.0       0.0       0.0       0.5
 5 C  pz              0.0      26.9       4.6      24.0       3.6       0.0
 5 C  px              0.0       0.0       0.0       0.0       0.0       0.4
 5 C  py              0.3       0.0       0.0       0.0       0.0       0.2
 5 C  dxz             0.0       0.0       0.4       0.1       1.4       0.0
 5 C  dyz             0.0       0.0       0.0       0.5       0.1       0.0
 5 C  dxy             0.1       0.0       0.0       0.0       0.0       0.9
 6 O  s               0.2       0.0       0.0       0.0       0.0       3.7
 6 O  pz              0.0       4.9      20.6       0.0       6.4       0.0
 6 O  px              0.8       0.0       0.0       0.0       0.0       2.7
 6 O  dyz             0.0       0.0       0.1       0.0       0.2       0.0
 7 Cl s               0.0       0.0       0.0       0.0       0.0       3.0
 7 Cl pz              0.0      15.9      15.5       2.6       0.9       0.0
 7 Cl px              1.2       0.0       0.0       0.0       0.0      18.3
 7 Cl py             86.3       0.0       0.0       0.0       0.0       0.6
 7 Cl dz2             0.0       0.0       0.0       0.0       0.0       1.2
 7 Cl dxz             0.0       0.0       0.2       0.8       0.3       0.0
 7 Cl dx2y2           0.0       0.0       0.0       0.0       0.0       3.4
 7 Cl dxy             0.0       0.0       0.0       0.0       0.0       0.2
 8 H  s               0.1       0.0       0.0       0.0       0.0       2.4
 9 H  s               0.6       0.0       0.0       0.0       0.0       3.7
10 H  s               0.2       0.0       0.0       0.0       0.0       7.3
11 H  s               0.4       0.0       0.0       0.0       0.0       1.9
12 H  s               0.0       0.0       0.0       0.0       0.0      12.3

                     36        37        38        39        40        41   
                   0.01717   0.06551   0.08188   0.11140   0.11750   0.13208
                   0.00000   0.00000   0.00000   0.00000   0.00000   0.00000
                  --------  --------  --------  --------  --------  --------
 0 C  s               0.2       3.7       0.6       0.0       1.9       6.4
 0 C  pz              0.0       0.0       0.0      15.0       0.0       0.0
 0 C  px              0.9       8.2       0.3       0.0       2.2       3.2
 0 C  py              0.1       0.2       0.4       0.0       0.2       0.1
 0 C  dz2             0.0       0.1       0.0       0.0       0.1       0.4
 0 C  dxz             0.0       0.0       0.0       0.7       0.0       0.0
 0 C  dx2y2           0.5       0.8       0.0       0.0       0.1       0.5
 0 C  dxy             0.0       0.0       0.1       0.0       0.1       0.0
 1 C  s               0.6       1.2       2.8       0.0       1.2       7.6
 1 C  pz              0.0       0.0       0.0      14.9       0.0       0.0
 1 C  px              0.2       2.3       2.3       0.0       0.1       1.5
 1 C  py              0.1       2.3       4.0       0.0       1.3       1.8
 1 C  dz2             0.0       0.0       0.0       0.0       0.1       0.5
 1 C  dxz             0.0       0.0       0.0       0.2       0.0       0.0
 1 C  dyz             0.0       0.0       0.0       0.4       0.0       0.0
 1 C  dx2y2           0.1       0.3       0.0       0.0       0.2       0.0
 1 C  dxy             0.2       0.2       0.3       0.0       0.0       0.6
 2 C  s               0.1       0.6       1.7       0.0       8.5       1.7
 2 C  pz              0.0       0.0       0.0      14.2       0.0       0.0
 2 C  px              0.0       0.2       1.2       0.0       1.4       0.1
 2 C  py              0.5       0.2       5.8       0.0       3.5       2.2
 2 C  dz2             0.0       0.0       0.0       0.0       0.4       0.1
 2 C  dxz             0.0       0.0       0.0       0.1       0.0       0.0
 2 C  dyz             0.0       0.0       0.0       0.6       0.0       0.0
 2 C  dx2y2           0.0       0.2       0.1       0.0       0.1       0.2
 2 C  dxy             0.1       0.0       0.3       0.0       0.2       0.0
 3 C  s               1.8       2.4       0.2       0.0       2.1       0.3
 3 C  pz              0.0       0.0       0.0      14.4       0.0       0.0
 3 C  px              1.0       9.5       0.2       0.0       1.2       0.4
 3 C  py              0.2       0.0       1.0       0.0       0.4       0.1
 3 C  dz2             0.2       0.3       0.1       0.0       0.4       0.0
 3 C  dxz             0.0       0.0       0.0       0.6       0.0       0.0
 3 C  dx2y2           0.0       0.1       0.1       0.0       0.2       0.0
 3 C  dxy             0.0       0.0       0.5       0.0       0.1       0.0
 4 C  s               0.1       0.3       0.4       0.0       0.1       0.4
 4 C  pz              0.0       0.0       0.0      18.1       0.0       0.0
 4 C  px              0.3       0.1       0.5       0.0       1.3       0.2
 4 C  py              0.1       0.7       2.1       0.0       0.2       0.1
 4 C  dyz             0.0       0.0       0.0       0.1       0.0       0.0
 4 C  dx2y2           0.2       0.1       0.0       0.0       0.1       0.0
 4 C  dxy             0.4       0.0       1.1       0.0       0.1       0.0
 5 C  s               2.9       0.5       2.0       0.0       3.3       1.5
 5 C  pz              0.0       0.0       0.0      15.5       0.0       0.0
 5 C  px              1.2       1.2       1.3       0.0       1.4       0.7
 5 C  py              4.1       1.1       5.3       0.0       1.8       0.7
 5 C  dz2             0.0       0.0       0.0       0.0       0.2       0.1
 5 C  dxz             0.0       0.0       0.0       0.2       0.0       0.0
 5 C  dyz             0.0       0.0       0.0       0.6       0.0       0.0
 5 C  dx2y2           0.3       0.4       0.0       0.0       0.1       0.0
 5 C  dxy             0.0       0.1       0.7       0.0       0.0       0.0
 6 O  s               5.2       0.8       1.3       0.0       0.7       0.6
 6 O  pz              0.0       0.0       0.0       2.0       0.0       0.0
 6 O  px              1.8       0.3       0.8       0.0       0.1       0.1
 6 O  py              7.5       0.6       0.1       0.0       0.0       0.1
 6 O  dyz             0.0       0.0       0.0       0.2       0.0       0.0
 7 Cl s               0.2       1.4       0.3       0.0       0.9       0.2
 7 Cl pz              0.0       0.0       0.0       0.8       0.0       0.0
 7 Cl px              1.9       8.6       0.3       0.0       2.3       0.0
 7 Cl py              0.0       0.0       0.0       0.0       0.3       0.1
 7 Cl dz2             0.1       0.8       0.0       0.0       0.3       0.0
 7 Cl dxz             0.0       0.0       0.0       1.4       0.0       0.0
 7 Cl dx2y2           0.7       3.0       0.0       0.0       0.9       0.2
 7 Cl dxy             0.0       0.1       0.1       0.0       0.1       0.0
 8 H  s               2.3      27.6       1.6       0.0       9.4      23.0
 9 H  s               2.2      10.1      19.8       0.0       5.3      25.1
10 H  s               0.8       0.2      19.3       0.0      30.2       9.6
11 H  s              15.1       4.3      18.9       0.0      13.9       7.9
12 H  s              45.4       4.8       2.3       0.0       1.4       1.4

                     42        43        44        45        46        47   
                   0.19323   0.24871   0.25238   0.25869   0.27796   0.31275
                   0.00000   0.00000   0.00000   0.00000   0.00000   0.00000
                  --------  --------  --------  --------  --------  --------
 0 C  s               0.2       0.9       0.1      12.0       2.1       6.1
 0 C  px              0.1       1.0       0.4       6.0       0.7       1.9
 0 C  py              4.0       1.5       4.0       1.2       8.6       1.6
 0 C  dz2             0.0       0.4       0.0       2.8       0.2       0.3
 0 C  dx2y2           0.4       0.1       0.1       2.1       1.5       0.2
 0 C  dxy             2.0       1.2       0.7       1.7       4.0       1.3
 1 C  s               2.0       4.7       3.5       0.4       0.7      11.0
 1 C  px              0.1       3.4       0.1      10.5       2.1       1.1
 1 C  py              1.4       1.3       2.8       3.2       3.0       0.7
 1 C  dz2             0.3       0.9       0.6       0.0       0.1       2.5
 1 C  dx2y2           0.0       0.2       0.2       9.1       0.0       0.3
 1 C  dxy             0.6       0.1       2.6       0.1       0.1       0.6
 2 C  s               0.1       3.0       3.5       6.3       0.6      14.6
 2 C  px              2.2       4.7       5.5       4.0       3.0       1.0
 2 C  py              0.7       0.2       5.4       1.2       1.0       4.3
 2 C  dz2             0.0       0.9       0.8       1.8       0.0       0.8
 2 C  dx2y2           0.7       4.2       0.6       0.1       1.9       0.1
 2 C  dxy             0.8       0.3       4.5       0.6       0.0       0.8
 3 C  s               5.4       6.1       6.6       2.2       5.5      16.8
 3 C  px              0.1       1.6       1.7       3.1       1.3       0.0
 3 C  py              0.4       5.9       8.2       0.2       0.7       1.1
 3 C  dz2             0.1       1.8       1.8       0.0       1.0       2.6
 3 C  dx2y2           0.9       1.1       0.2       0.2       2.1       0.2
 3 C  dxy             0.1       5.0       3.8       0.3       0.1       0.2
 4 C  s              15.9       9.3      14.8       1.2       3.1      10.8
 4 C  px              3.4       0.6       0.2       1.3       9.3       1.8
 4 C  py              8.3       8.1       0.0       1.0       2.4       1.0
 4 C  dz2             5.8       0.3       3.4       0.2       0.4       0.0
 4 C  dx2y2           0.0       0.1       1.1       0.3       3.1       0.2
 4 C  dxy             1.7       2.1       0.7       0.7       0.3       0.5
 5 C  s               6.0       0.8       3.0       2.6      13.0       3.0
 5 C  px              0.8       3.9       4.9       6.0       3.5       0.1
 5 C  py              0.0       1.2       0.7       4.2       2.0       1.8
 5 C  dz2             0.2       0.3       0.2       0.5       3.8       0.1
 5 C  dx2y2           1.7       1.4       0.2       2.9       2.4       0.0
 5 C  dxy             0.8       2.7       0.6       2.3       0.8       0.1
 6 O  s               4.0       0.2       0.3       0.0       0.3       0.3
 6 O  px              2.1       0.3       0.0       0.5       1.6       0.7
 6 O  py             13.3       1.0       0.6       0.2       2.1       2.8
 6 O  dz2             0.0       0.0       0.2       0.0       0.0       0.1
 6 O  dx2y2           0.0       0.2       0.0       0.0       0.6       0.1
 6 O  dxy             1.0       0.0       0.1       0.0       0.1       0.7
 7 Cl s               0.2       0.0       0.0       0.2       1.6       3.3
 7 Cl px              0.4       0.2       0.0       0.5       0.1       0.1
 7 Cl py              0.0       1.5       0.2       0.1       0.0       0.0
 7 Cl dz2             0.1       0.5       0.4       0.0       0.2       0.3
 7 Cl dx2y2           1.3       0.5       0.3       0.5       1.8       0.2
 7 Cl dxy             0.1       6.5       4.2       0.7       0.3       0.0
 8 H  s               0.4       1.1       1.5       1.6       1.1       0.3
 9 H  s               0.6       2.1       2.2       0.8       0.1       0.3
10 H  s               0.1       0.1       0.4       0.8       2.6       0.5
11 H  s               6.0       3.0       0.3       1.3       0.6       0.4
12 H  s               3.2       1.4       1.7       0.3       2.7       0.2

                     48        49        50        51        52        53   
                   0.35738   0.36523   0.39876   0.40714   0.42327   0.44267
                   0.00000   0.00000   0.00000   0.00000   0.00000   0.00000
                  --------  --------  --------  --------  --------  --------
 0 C  s              12.6       8.9       0.1       0.5       0.0      10.0
 0 C  pz              0.0       0.0       0.0       0.0      16.0       0.0
 0 C  px              1.1       0.3       0.3       1.1       0.0       0.0
 0 C  py              1.4       1.3      10.6       5.1       0.0       3.9
 0 C  dz2             1.0       2.9       0.0       0.4       0.0       5.9
 0 C  dx2y2           0.3       0.2       1.1       1.5       0.0       0.0
 0 C  dxy             0.4       0.6       0.2       0.5       0.0       0.0
 1 C  s               1.5      16.0       0.7       1.7       0.0      10.1
 1 C  pz              0.0       0.0       0.0       0.0      15.2       0.0
 1 C  px              0.9       0.5       4.5       8.8       0.0       1.4
 1 C  py              1.1       0.9       6.4       1.0       0.0       1.3
 1 C  dz2             0.5       1.4       0.2       0.6       0.0       6.3
 1 C  dx2y2           0.3       0.1       0.8       1.6       0.0       0.0
 1 C  dxy             0.4       1.0       1.9       0.6       0.0       0.0
 2 C  s               5.0      10.0       0.6       2.0       0.0       3.7
 2 C  pz              0.0       0.0       0.0       0.0      15.5       0.0
 2 C  px              1.5       1.7       3.8       6.9       0.0       7.4
 2 C  py              0.2       1.1       2.8       0.6       0.0       1.2
 2 C  dz2             1.7       3.3       0.0       1.1       0.0       0.1
 2 C  dx2y2           0.4       0.0       0.0       0.6       0.0       0.0
 2 C  dxy             0.3       1.1       1.3       0.1       0.0       0.2
 3 C  s              12.3       1.3       0.2       2.5       0.0       0.9
 3 C  pz              0.0       0.0       0.0       0.0      15.0       0.0
 3 C  px              2.8       0.3       3.9       6.9       0.0       0.3
 3 C  py              0.6       0.7       3.3       4.0       0.0       0.4
 3 C  dz2             1.1       0.4       0.0       0.3       0.0       0.0
 3 C  dx2y2           0.6       0.1       0.4       0.2       0.0       0.0
 3 C  dxy             0.0       0.1       1.6       1.0       0.0       0.0
 4 C  s               2.4       9.7       0.8       2.4       0.0       0.5
 4 C  pz              0.0       0.0       0.0       0.0      17.5       0.0
 4 C  px              1.1       1.8       4.0       0.5       0.0       1.7
 4 C  py              0.7       1.1       0.2       2.9       0.0       0.5
 4 C  dz2             0.0       0.0       0.7       1.3       0.0       0.0
 4 C  dx2y2           0.2       0.0       1.3       0.8       0.0       0.0
 4 C  dxy             0.0       0.0       0.0       0.8       0.0       0.0
 5 C  s              17.1       0.7       2.2       0.5       0.0       3.8
 5 C  pz              0.0       0.0       0.0       0.0      19.8       0.0
 5 C  px              0.1       0.6      11.3       0.6       0.0       5.7
 5 C  py              0.4       0.0       0.5       2.3       0.0       2.4
 5 C  dz2             3.9       0.2       0.7       0.0       0.0       0.1
 5 C  dx2y2           0.3       0.1       2.2       0.1       0.0       0.4
 5 C  dxy             0.0       0.0       0.3       2.3       0.0       0.1
 6 O  s               0.1       0.0       0.2       0.1       0.0       0.0
 6 O  pz              0.0       0.0       0.0       0.0       0.3       0.0
 6 O  px              0.0       1.0       0.8       0.1       0.0       0.0
 6 O  py              0.2       0.7       1.1       0.3       0.0       0.4
 6 O  dz2             0.1       0.3       0.1       0.0       0.0       0.0
 6 O  dx2y2           0.0       0.1       0.1       0.2       0.0       0.0
 6 O  dxy             0.0       0.5       0.7       0.0       0.0       0.0
 7 Cl s               4.6       4.1       3.9      10.3       0.0       2.0
 7 Cl pz              0.0       0.0       0.0       0.0       0.3       0.0
 7 Cl px              0.0       0.0       0.0       0.0       0.0       0.3
 7 Cl py              0.2       0.3       0.5       0.3       0.0       0.1
 7 Cl dz2             2.0       0.2       0.3       0.8       0.0       0.0
 7 Cl dxz             0.0       0.0       0.0       0.0       0.2       0.0
 7 Cl dx2y2           1.7       0.4       3.1       1.9       0.0       0.0
 7 Cl dxy             0.2       0.1       4.1       3.9       0.0       0.0
 8 H  s               1.6       8.1       1.0       5.7       0.0      13.3
 9 H  s               0.1       5.5       3.9       7.4       0.0      13.8
10 H  s               7.1       9.9       1.8       0.1       0.0       0.3
11 H  s               7.4       0.3       5.1       4.8       0.0       0.8
12 H  s               0.3       0.0       4.1       0.2       0.0       0.4

[...]
 4 C  s               0.1       0.0       2.7       0.0       1.2       1.1
 4 C  px              1.0       0.0       0.1       0.0       0.3       3.4
 4 C  py              0.9       0.0       0.2       0.0       2.0       0.2
 4 C  dz2             0.7       0.0       2.9       0.0       0.2       0.3
 4 C  dxz             0.0       0.0       0.0      10.6       0.0       0.0
 4 C  dyz             0.0       0.0       0.0       5.2       0.0       0.0
 4 C  dx2y2           1.4       0.0       1.8       0.0       2.1       1.4
 4 C  dxy             0.0       0.0      19.6       0.0       0.1       0.3
 5 C  s               0.0       0.0       0.0       0.0       2.8       0.8
 5 C  px              1.3       0.0       1.4       0.0       0.4       1.4
 5 C  py              0.5       0.0       0.2       0.0       1.9       0.0
 5 C  dz2             0.0       0.0       0.8       0.0       1.8       1.4
 5 C  dxz             0.0       1.0       0.0      11.6       0.0       0.0
 5 C  dyz             0.0       1.0       0.0       2.3       0.0       0.0
 5 C  dx2y2           1.1       0.0       1.7       0.0       0.1      23.2
 5 C  dxy             4.1       0.0       5.2       0.0      12.5       0.0
 6 O  s               0.0       0.0       0.4       0.0       0.0       0.0
 6 O  px              0.0       0.0       0.1       0.0       0.0       0.0
 6 O  py              0.1       0.0       1.0       0.0       0.2       0.0
 6 O  dz2             0.2       0.0       0.3       0.0       0.0       0.0
 6 O  dxz             0.0      42.4       0.0      14.6       0.0       0.0
 6 O  dyz             0.0      27.4       0.0       7.8       0.0       0.0
 6 O  dx2y2          15.9       0.0       0.6       0.0       0.2       0.1
 6 O  dxy             0.1       0.0       5.7       0.0       0.1       0.0
 7 Cl s               0.4       0.0       0.0       0.0       0.0       0.2
 7 Cl px              0.2       0.0       0.1       0.0       0.0       0.2
 7 Cl dx2y2           0.1       0.0       0.2       0.0       0.0       0.2
 7 Cl dxy             0.1       0.0       0.0       0.0       0.4       0.0
 8 H  s               0.4       0.0       0.3       0.0       0.1       0.4
 9 H  s               0.5       0.0       1.0       0.0       0.0       0.0
10 H  s               0.3       0.0       0.2       0.0       0.3       0.4
11 H  s               0.1       0.0       0.2       0.0       0.2       0.4
12 H  s               0.2       0.0       0.4       0.0       0.1       0.0

                    120       121       122       123       124       125   
                   2.78129   2.84293   2.85899   3.12248   3.17230   3.42820
                   0.00000   0.00000   0.00000   0.00000   0.00000   0.00000
                  --------  --------  --------  --------  --------  --------
 0 C  s               0.7       0.0       0.0       0.5       1.0       0.4
 0 C  px              0.1       0.0       0.0       0.2       0.1       0.1
 0 C  py              2.5       0.0       0.8       0.6       0.1       0.0
 0 C  dz2             0.2       0.0       0.0       0.2       0.8       0.1
 0 C  dx2y2           1.8       0.0       1.4       1.1       8.7       5.0
 0 C  dxy            13.1       0.0       1.3       2.5       0.2       0.1
 1 C  s               0.0       0.0       0.1       0.1       0.9       0.5
 1 C  px              4.2       0.0       0.2       0.2       0.0       0.0
 1 C  py              1.9       0.0       0.3       0.0       0.1       0.0
 1 C  dz2             0.0       0.0       0.1       0.1       0.6       0.2
 1 C  dx2y2          20.2       0.0       0.9       1.7       0.8       0.4
 1 C  dxy             1.3       0.0       2.3       0.4      10.7       3.6
 2 C  s               0.7       0.0       0.0       0.0       1.4       0.3
 2 C  px              3.3       0.0       0.1       0.6       0.0       0.0
 2 C  py              0.1       0.0       0.1       0.2       0.2       0.0
 2 C  dz2             0.2       0.0       0.0       0.0       0.9       0.1
 2 C  dx2y2          14.1       0.0       0.2       1.5       2.5       2.2
 2 C  dxy             2.8       0.0       2.1       0.2       7.2       2.4
 3 C  s               0.3       0.0       0.1       0.2       0.8       0.5
 3 C  px              0.4       0.0       0.0       0.1       0.0       0.0
 3 C  py              0.6       0.0       0.7       1.3       0.4       0.2
 3 C  dz2             0.0       0.0       0.1       0.0       0.7       0.2
 3 C  dxz             0.0       0.9       0.0       0.0       0.0       0.0
 3 C  dx2y2           2.1       0.0       0.0       0.1       4.7       6.4
 3 C  dxy             1.8       0.0       1.0       6.9       1.1       0.3
 4 C  s               0.0       0.0       0.1       0.1       4.1       0.6
 4 C  pz              0.0       0.4       0.0       0.0       0.0       0.0
 4 C  px              1.1       0.0       0.4       0.7       0.2       1.0
 4 C  py              0.4       0.0       0.0       0.1       1.1       1.8
 4 C  dz2             0.1       0.0       1.6       0.1       3.0       0.3
 4 C  dxz             0.0       7.1       0.0       0.0       0.0       0.0
 4 C  dyz             0.0      11.4       0.0       0.0       0.0       0.0
 4 C  dx2y2           1.3       0.0       0.6      23.0       2.6       1.3
 4 C  dxy             0.2       0.0       0.4       2.8       0.0      17.5
 5 C  s               0.2       0.0       0.2       0.2       1.0       0.4
 5 C  px              0.3       0.0       0.2       2.0       0.1       0.1
 5 C  py              0.5       0.0       0.2       0.1       0.1       0.0
 5 C  dz2             0.0       0.0       0.0       0.0       0.9       0.1
 5 C  dxz             0.0       0.6       0.0       0.0       0.0       0.0
 5 C  dyz             0.0       0.5       0.0       0.0       0.0       0.0
 5 C  dx2y2           2.9       0.0       1.1       1.2       4.1       2.6
 5 C  dxy             0.0       0.0       0.4       7.3       1.4       4.9
 6 O  s               0.1       0.0       2.4       0.0       3.0       2.3
 6 O  pz              0.0       0.9       0.0       0.0       0.0       0.0
 6 O  px              0.4       0.0       1.7       0.3       0.3       0.6
 6 O  py              0.2       0.0       1.1       0.0       1.6       2.6
 6 O  dz2             6.6       0.0      53.3       0.0      11.0       5.4
 6 O  dxz             0.0      31.3       0.0       0.0       0.0       0.0
 6 O  dyz             0.0      46.6       0.0       0.0       0.0       0.0
 6 O  dx2y2          12.5       0.0       0.1      31.6       7.0       1.6
 6 O  dxy             0.2       0.0      17.3      10.4      13.0      32.2
 8 H  s               0.0       0.0       0.1       0.1       0.3       0.2
 9 H  s               0.0       0.0       0.1       0.0       0.5       0.2
10 H  s               0.1       0.0       0.0       0.0       0.3       0.2
11 H  s               0.1       0.0       0.0       0.1       0.2       0.3
12 H  s               0.2       0.0       6.6       0.8       0.0       0.5



                      *****************************
                      * MAYER POPULATION ANALYSIS *
                      *****************************

  NA   - Mulliken gross atomic population
  ZA   - Total nuclear charge
  QA   - Mulliken gross atomic charge
  VA   - Mayer's total valence
  BVA  - Mayer's bonded valence
  FA   - Mayer's free valence

  ATOM       NA         ZA         QA         VA         BVA        FA
  0 C      6.0375     6.0000    -0.0375     3.8042     3.8042     0.0000
  1 C      6.0588     6.0000    -0.0588     3.7865     3.7865     0.0000
  2 C      6.0978     6.0000    -0.0978     3.9275     3.9275    -0.0000
  3 C      5.9631     6.0000     0.0369     3.9386     3.9386     0.0000
  4 C      5.7909     6.0000     0.2091     4.1032     4.1032     0.0000
  5 C      6.1900     6.0000    -0.1900     3.7835     3.7835     0.0000
  6 O      8.3123     8.0000    -0.3123     2.1967     2.1967     0.0000
  7 Cl    17.0640    17.0000    -0.0640     1.1837     1.1837     0.0000
  8 H      0.9439     1.0000     0.0561     0.9501     0.9501     0.0000
  9 H      0.9439     1.0000     0.0561     0.9505     0.9505    -0.0000
 10 H      0.9519     1.0000     0.0481     0.9723     0.9723     0.0000
 11 H      0.9665     1.0000     0.0335     0.9648     0.9648     0.0000
 12 H      0.6794     1.0000     0.3206     0.8738     0.8738    -0.0000

  Mayer bond orders larger than 0.100000
B(  0-C ,  1-C ) :   1.3690 B(  0-C ,  5-C ) :   1.3558 B(  0-C ,  8-H ) :   0.9644 
B(  1-C ,  2-C ) :   1.3456 B(  1-C ,  9-H ) :   0.9652 B(  2-C ,  3-C ) :   1.4352 
B(  2-C , 10-H ) :   0.9667 B(  3-C ,  4-C ) :   1.3742 B(  3-C ,  7-Cl) :   1.0129 
B(  4-C ,  5-C ) :   1.3197 B(  4-C ,  6-O ) :   1.2487 B(  5-C , 11-H ) :   0.9584 
B(  6-O , 12-H ) :   0.8396 

-------
TIMINGS
-------

Total SCF time: 0 days 0 hours 0 min 1 sec 

Total time                  ....       1.700 sec
Sum of individual times     ....       1.682 sec  ( 98.9%)

SCF preparation             ....       0.027 sec  (  1.6%)
Fock matrix formation       ....       1.586 sec  ( 93.3%)
  Startup                   ....       0.001 sec  (  0.1% of F)
  Split-RI-J                ....       0.713 sec  ( 45.0% of F)
  XC integration            ....       0.861 sec  ( 54.3% of F)
    XC Preparation          ....       0.000 sec  (  0.0% of XC)
    Basis function eval.    ....       0.362 sec  ( 42.1% of XC)
    Density eval.           ....       0.178 sec  ( 20.7% of XC)
    XC-Functional eval.     ....       0.070 sec  (  8.2% of XC)
    XC-Potential eval.      ....       0.209 sec  ( 24.3% of XC)
Diagonalization             ....       0.000 sec  (  0.0%)
Density matrix formation    ....       0.007 sec  (  0.4%)
Total Energy calculation    ....       0.001 sec  (  0.0%)
Population analysis         ....       0.038 sec  (  2.2%)
Orbital Transformation      ....       0.003 sec  (  0.2%)
Orbital Orthonormalization  ....       0.000 sec  (  0.0%)
DIIS solution               ....       0.016 sec  (  0.9%)
  MO trafo                  ....       0.000 sec  (  0.0 % of DIIS)
  Orb grad                  ....       0.000 sec  (  0.0 % of DIIS)
  Energy W gradient         ....       0.000 sec  (  0.0 % of DIIS)
  DIIS error                ....       0.001 sec  (  9.4 % of DIIS)
  DIIS work                 ....       0.012 sec  ( 77.8 % of DIIS)
  Form Q                    ....       0.000 sec  (  0.0 % of DIIS)
  Form QpQm                 ....       0.000 sec  (  0.0 % of DIIS)
  Exp/Cayley                ....       0.000 sec  (  0.0 % of DIIS)
  Orb update                ....       0.000 sec  (  0.0 % of DIIS)
  Wake-sleep                ....       0.000 sec  (  1.7 % of DIIS)
SOSCF solution              ....       0.004 sec  (  0.2%)
  MO trafo                  ....       0.002 sec  ( 61.3 % of SOSCF)
  Orb grad                  ....       0.000 sec  (  1.4 % of SOSCF)
  Rot update                ....       0.000 sec  (  3.9 % of SOSCF)
  Step                      ....       0.001 sec  ( 32.3 % of SOSCF)
Finished LeanSCF after   1.7 sec

Maximum memory used throughout the entire LEANSCF-calculation: 11.5 MB


-------------------------------------------------------------------------------
                          DFT DISPERSION CORRECTION                            
                                                                               
                                DFTD4 V3.4.0                                   
-------------------------------------------------------------------------------
The PBE functional is recognized
Active option DFTDOPT                   ...         5   

-------------------------   ----------------
Dispersion correction           -0.014740710
-------------------------   ----------------

------------------   -----------------
gCP correction             0.051290152
------------------   -----------------

-------------------------   --------------------
FINAL SINGLE POINT ENERGY      -766.083554425932
-------------------------   --------------------


------------------------------------------------------------------------------
                              ORCA PROPERTY CALCULATIONS
------------------------------------------------------------------------------

GBWName                                 ... sp.gbw
Number of atoms                         ...     13
Number of basis functions               ...    126
Max core memory                         ...   1024 MB

Electric properties:
Dipole moment                           ... YES
Quadrupole moment                       ...  NO
Static polarizability (Dipole/Dipole)   ...  NO
Static polarizability (Dipole/Quad.)    ...  NO
Static polarizability (Quad./Quad.)     ...  NO
Static polarizability (Velocity)        ...  NO

Atomic electric properties:
Dipole moment                           ...  NO
Quadrupole moment                       ...  NO
Static polarizability                   ...  NO

Choice of electric origin               ... Center of mass
Position of electric origin             ...    -0.000015    -0.000012    -0.000000

General magnetic properties:
Magnetizability                         ...  NO

EPR properties:
g-Tensor (aka g-matrix)                 ...  NO
Zero-Field splitting spin-orbit         ...  NO
Zero-field splitting spin-spin          ...  NO
Hyperfine couplings                     ...  NO (   0 nuclei)
Quadrupole couplings                    ...  NO (   0 nuclei)
Contact density                         ...  NO (   0 nuclei)

NMR properties:
Chemical shifts                         ...  NO (   0 nuclei)
Spin-rotation constants                 ...  NO (   0 nuclei)
Spin-spin couplings                     ...  NO (   0 nuclei,    0 pairs)

Choice of magnetic origin               ... GIAO
Position of magnetic origin             ...     0.000000     0.000000     0.000000

Properties with geometric perturbations:
SCF Hessian                             ...  NO
IR spectrum                             ...  NO
VCD spectrum                            ...  NO
X-ray spectroscopy properties:
SCF XES/XAS/RIXS spectra                ...  NO


-------------
DIPOLE MOMENT
-------------

Method             : SCF
Type of density    : Electron Density
Multiplicity       :   1
Irrep              :   0
Energy             :  -766.1201038687208893 Eh
Relativity type    : 
Basis              : AO
                                X                 Y                 Z
Electronic contribution:      9.357935681      -0.396543018       0.000030266
Nuclear contribution   :    -10.194635923       0.913967208      -0.000020010
                        -----------------------------------------
Total Dipole Moment    :     -0.836700241       0.517424190       0.000010255
                        -----------------------------------------
Magnitude (a.u.)       :      0.983765768
Magnitude (Debye)      :      2.500533862



--------------------
Rotational spectrum 
--------------------
 
Rotational constants in cm-1:             0.099495             0.051887             0.034103 
Rotational constants in MHz :          2982.782476          1555.547943          1022.371823 

Dipole components along the rotational axes: 
x,y,z [a.u.] :    -0.836521    -0.517714     0.000014 
x,y,z [Debye]:    -2.126268    -1.315924     0.000036 

 

Dipole moment calculation done in   0.0 sec 

Maximum memory used throughout the entire PROP-calculation: 7.6 MB

--------------------------------
SUGGESTED CITATIONS FOR THIS RUN
--------------------------------

Below you find a list of papers that are relevant to this ORCA run
We neither can nor want to force you to cite these papers, but we appreciate if you do
You receive ORCA, which is the product of decades of hard work by many enthusiastic individuals, for free
The only thing we kindly ask in return is that you cite our papers,
We deeply appreciate it, if you show your appreciation for ORCA by not just citing the generic ORCA reference.

Please note that relegating all ORCA citations to the supporting information does *not* help us.
SI sections are not indexed - citations you put there will not count into any citation statistics
But we need these citations in order to attract the funding resources that allow us to do what we are doing

Therefore, if you are a happy ORCA user, please consider citing a few of the papers listed below in the main body of your paper

In addition to the list printed below, the program has created the file sp.bibtex that contains the list in bibtex format
You can import this file easily into all common literature databanks and citation aid programs


List of essential papers. We consider these as the minimum necessary citations

  1. Neese,F.
     Software update: the ORCA program system, version 5.0
     WIRES Comput. Molec. Sci., 2022 12(1)e1606
     doi.org/10.1002/wcms.1606

List of papers to cite with high priority. The work reported in these papers was absolutely
necessary for this run to complete.
Our perspective: the developers of density functionals and basis sets usually get cited in chemistry papers
Good! But without the algorithms to do something with them, the functionals or basis sets would not do anything.
Hence, in our opinion, the algorithm design and method developments papers are equally worthy of getting cited

  1. Neese,F.
     An improvement of the resolution of the identity approximation for the formation of the Coulomb matrix
     J. Comp. Chem., 2003 24(14)1740-1747
     doi.org/10.1002/jcc.10318
  2. Neese,F.
     The SHARK Integral Generation and Digestion System
     J. Comp. Chem., 2022  1-16
     doi.org/10.1002/jcc.26942
  3. Caldeweyher,E.; Bannwarth,C.; Grimme,S.
     Extension of the D3 dispersion coefficient model
     J. Chem. Phys., 2017 147 034112
     doi.org/10.1063/1.4993215
  4. Caldeweyher,E.; Ehlert,S.; Hansen,A.; Neugebauer,H.; Spicher,S.; Bannwarth,C.; Grimme,S.
     A generally applicable atomic-charge dependent London dispersion correction
     J. Chem. Phys., 2019 150 154122
     doi.org/10.1063/1.5090222
  5. Caldeweyher,E.; Mewes,J.; Ehlert,S.; Grimme,S.
     Extension and evaluation of the D4 London-dispersion model for periodic systems
     Phys. Chem. Chem. Phys., 2020 22(16)8499-8512
     doi.org/10.1039/D0CP00502A
  6. Wittmann,L.; Gordiy,I.; Friede,M.; Helmich-Paris,B.; Grimme,S.; Hansen,A.; Bursch,M.
     Extension of the D3 and D4 London Dispersion Corrections to the full Actinides Series
     Phys. Chem. Chem. Phys., 2024 26(32)21379-21394
     doi.org/https://doi.org/10.1039/D4CP01514B 

List of suggested additional citations. These are papers that are important in the 'surrounding' of 
of this run, or papers that preceded the highly important papers. If you like your results we are grateful for a citation.

  1. Neese,F.
     The ORCA program system
     WIRES Comput. Molec. Sci., 2012 2(1)73-78
     doi.org/10.1002/wcms.81
  2. Neese,F.
     Software update: the ORCA program system, version 4.0
     WIRES Comput. Molec. Sci., 2018 8(1)1-6
     doi.org/10.1002/wcms.1327
  3. Neese,F.; Wennmohs,F.; Becker,U.; Riplinger,C.
     The ORCA quantum chemistry program package
     J. Chem. Phys., 2020 152 Art. No. L224108
     doi.org/10.1063/5.0004608

List of optional additional citations

  1. Neese,F.
     Approximate second-order SCF convergence for spin unrestricted wavefunctions
     Chem. Phys. Lett., 2000 325(1-3)93-98
     doi.org/10.1016/s0009-2614(00)00662-x

Timings for individual modules:

Sum of individual times          ...        2.200 sec (=   0.037 min)
Startup calculation              ...        0.219 sec (=   0.004 min)  10.0 %
SCF iterations                   ...        1.943 sec (=   0.032 min)  88.3 %
Property calculations            ...        0.038 sec (=   0.001 min)   1.7 %
                             ****ORCA TERMINATED NORMALLY****
TOTAL RUN TIME: 0 days 0 hours 0 minutes 2 seconds 283 msec
