      -----------------------------------------------------------      
     |                   =====================                   |     
     |                           x T B                           |     
     |                   =====================                   |     
     |                         S. Grimme                         |     
     |          Mulliken Center for Theoretical Chemistry        |     
     |                    University of Bonn                     |     
      -----------------------------------------------------------      

   * xtb version 6.7.1 (41059b4) compiled by 'michael@archlinux' on 2025-03-24

   xtb is free software: you can redistribute it and/or modify it under
   the terms of the GNU Lesser General Public License as published by
   the Free Software Foundation, either version 3 of the License, or
   (at your option) any later version.
   
   xtb is distributed in the hope that it will be useful,
   but WITHOUT ANY WARRANTY; without even the implied warranty of
   MERCHANTABILITY or FITNESS FOR A PARTICULAR PURPOSE.  See the
   GNU Lesser General Public License for more details.
   
   Cite this work as:
   * C. Bannwarth, E. Caldeweyher, S. Ehlert, A. Hansen, P. Pracht,
     J. Seibert, S. Spicher, S. Grimme, WIREs Comput. Mol. Sci., 2020, 11,
     e01493. DOI: 10.1002/wcms.1493
   
   for GFN2-xTB:
   * C. Bannwarth, S. Ehlert and S. Grimme., J. Chem. Theory Comput., 2019,
     15, 1652-1671. DOI: 10.1021/acs.jctc.8b01176
   for GFN1-xTB:
   * S. Grimme, C. Bannwarth, P. Shushkov, J. Chem. Theory Comput., 2017,
     13, 1989-2009. DOI: 10.1021/acs.jctc.7b00118
   for GFN0-xTB:
   * P. Pracht, E. Caldeweyher, S. Ehlert, S. Grimme, ChemRxiv, 2019, preprint.
     DOI: 10.26434/chemrxiv.8326202.v1
   for GFN-FF:
   * S. Spicher and S. Grimme, Angew. Chem. Int. Ed., 2020, 59, 15665-15673.
     DOI: 10.1002/anie.202004239
   
   for ALPB and GBSA implicit solvation:
   * S. Ehlert, M. Stahn, S. Spicher, S. Grimme, J. Chem. Theory Comput.,
     2021, 17, 4250-4261. DOI: 10.1021/acs.jctc.1c00471
   
   for ddCOSMO and CPCM-X implicit solvation:
   * M. Stahn, S. Ehlert, S. Grimme, J. Phys. Chem. A,
     2023, XX, XXXX-XXXX. DOI: 10.1021/acs.jpca.3c04382
   
   for DFT-D4:
   * E. Caldeweyher, C. Bannwarth and S. Grimme, J. Chem. Phys., 2017,
     147, 034112. DOI: 10.1063/1.4993215
   * E. Caldeweyher, S. Ehlert, A. Hansen, H. Neugebauer, S. Spicher,
     C. Bannwarth and S. Grimme, J. Chem. Phys., 2019, 150, 154122.
     DOI: 10.1063/1.5090222
   * E. Caldeweyher, J.-M. Mewes, S. Ehlert and S. Grimme, Phys. Chem. Chem. Phys.
     2020, 22, 8499-8512. DOI: 10.1039/D0CP00502A
   
   for sTDA-xTB:
   * S. Grimme and C. Bannwarth, J. Chem. Phys., 2016, 145, 054103.
     DOI: 10.1063/1.4959605
   
   in the mass-spec context:
   * V. Asgeirsson, C. Bauer and S. Grimme, Chem. Sci., 2017, 8, 4879.
     DOI: 10.1039/c7sc00601b
   * J. Koopman and S. Grimme, ACS Omega 2019, 4, 12, 15120-15133.
     DOI: 10.1021/acsomega.9b02011
   
   for metadynamics refer to:
   * S. Grimme, J. Chem. Theory Comput., 2019, 155, 2847-2862
     DOI: 10.1021/acs.jctc.9b00143
   
   for SPH calculations refer to:
   * S. Spicher and S. Grimme, J. Chem. Theory Comput., 2021, 17, 1701-1714
     DOI: 10.1021/acs.jctc.0c01306
   
   for ONIOM refer to:
   * C. Plett, A. Katbashev, S. Ehlert, S. Grimme, M. Bursch,
     Phys. Chem. Chem. Phys., 2023, 25, 17860-17868. DOI: 10.1039/D3CP02178E
   
   for DIPRO refer to:
   * J. Kohn, N. Gildemeister, S. Grimme, D. Fazzi, A. Hansen,
     J. Chem. Phys., 2023, just accepted.
   
   for PTB refer to:
   * S. Grimme, M. Mueller, A. Hansen, J. Chem. Phys., 2023, 158, 124111.
     DOI: 10.1063/5.0137838
   
   with help from (in alphabetical order)
   P. Atkinson, C. Bannwarth, F. Bohle, G. Brandenburg, E. Caldeweyher
   M. Checinski, S. Dohm, S. Ehlert, S. Ehrlich, I. Gerasimov, C. Hölzer
   A. Katbashev, J. Kohn, J. Koopman, C. Lavigne, S. Lehtola, F. März, M. Müller,
   F. Musil, H. Neugebauer, J. Pisarek, C. Plett, P. Pracht, F. Pultar,
   J. Seibert, P. Shushkov, S. Spicher, M. Stahn, M. Steiner, T. Strunk,
   J. Stückrath, T. Rose, and J. Unsleber
   
 * started run on 2025/04/08 at 22:38:17.336     
   ID    Z sym.   atoms
    1    6 C      1-3, 6
    2    8 O      4, 5
    3    1 H      7-14

           -------------------------------------------------
          |                Calculation Setup                |
           -------------------------------------------------

          program call               : /usr/bin/xtb xtb_rrho.coord --gfn2 --ohess vtight --chrg 0 --enso --norestart -I rrho-xcontrol-inp --parallel 1
          coordinate file            : xtb_rrho.coord
          omp threads                :                     1


           -------------------------------------------------
          |                 G F N 2 - x T B                 |
           -------------------------------------------------

        Reference                      10.1021/acs.jctc.8b01176
      * Hamiltonian:
        H0-scaling (s, p, d)           1.850000    2.230000    2.230000
        zeta-weighting                 0.500000
      * Dispersion:
        s8                             2.700000
        a1                             0.520000
        a2                             5.000000
        s9                             5.000000
      * Repulsion:
        kExp                           1.500000    1.000000
        rExp                           1.000000
      * Coulomb:
        alpha                          2.000000
        third order                    shell-resolved
        anisotropic                    true
        a3                             3.000000
        a5                             4.000000
        cn-shift                       1.200000
        cn-exp                         4.000000
        max-rad                        5.000000


          ...................................................
          :                      SETUP                      :
          :.................................................:
          :  # basis functions                  32          :
          :  # atomic orbitals                  32          :
          :  # shells                           20          :
          :  # electrons                        36          :
          :  max. iterations                   250          :
          :  Hamiltonian                  GFN2-xTB          :
          :  restarted?                      false          :
          :  GBSA solvation                  false          :
          :  PC potential                    false          :
          :  electronic temp.          300.0000000     K    :
          :  accuracy                    1.0000000          :
          :  -> integral cutoff          0.2500000E+02      :
          :  -> integral neglect         0.1000000E-07      :
          :  -> SCF convergence          0.1000000E-05 Eh   :
          :  -> wf. convergence          0.1000000E-03 e    :
          :  Broyden damping             0.4000000          :
          :  net charge                          0          :
          :  unpaired electrons                  0          :
          ...................................................

 iter      E             dE          RMSdq      gap      omega  full diag
   1    -20.9390957 -0.209391E+02  0.453E+00    5.93       0.0  T
   2    -20.9905865 -0.514908E-01  0.232E+00    4.76       1.0  T
   3    -20.9929981 -0.241163E-02  0.130E+00    5.26       1.0  T
   4    -20.9959242 -0.292607E-02  0.168E-01    4.96       1.0  T
   5    -20.9960654 -0.141207E-03  0.791E-02    5.01       1.0  T
   6    -20.9960689 -0.351237E-05  0.157E-02    5.01       1.7  T
   7    -20.9960692 -0.247787E-06  0.558E-03    5.01       4.8  T
   8    -20.9960692 -0.548802E-07  0.191E-03    5.01      14.0  T
   9    -20.9960692 -0.671754E-08  0.906E-04    5.01      29.5  T
  10    -20.9960692 -0.169093E-08  0.172E-04    5.01     155.7  T

   *** convergence criteria satisfied after 10 iterations ***

         #    Occupation            Energy/Eh            Energy/eV
      -------------------------------------------------------------
         1        2.0000           -0.7392714             -20.1166
       ...           ...                  ...                  ...
        12        2.0000           -0.4983760             -13.5615
        13        2.0000           -0.4901060             -13.3365
        14        2.0000           -0.4754527             -12.9377
        15        2.0000           -0.4653585             -12.6630
        16        2.0000           -0.4511069             -12.2752
        17        2.0000           -0.4465792             -12.1520
        18        2.0000           -0.4145702             -11.2810 (HOMO)
        19                         -0.2305064              -6.2724 (LUMO)
        20                         -0.0044691              -0.1216
        21                          0.0842717               2.2931
        22                          0.1171117               3.1868
        23                          0.1277388               3.4760
       ...                                ...                  ...
        32                          0.6220731              16.9275
      -------------------------------------------------------------
                  HL-Gap            0.1840638 Eh            5.0086 eV
             Fermi-level           -0.3225383 Eh           -8.7767 eV

 SCC (total)                   0 d,  0 h,  0 min,  0.008 sec
 SCC setup                      ...        0 min,  0.000 sec (  2.196%)
 Dispersion                     ...        0 min,  0.000 sec (  0.952%)
 classical contributions        ...        0 min,  0.000 sec (  0.221%)
 integral evaluation            ...        0 min,  0.001 sec ( 13.291%)
 iterations                     ...        0 min,  0.004 sec ( 43.567%)
 molecular gradient             ...        0 min,  0.003 sec ( 30.780%)
 printout                       ...        0 min,  0.001 sec (  8.872%)

         :::::::::::::::::::::::::::::::::::::::::::::::::::::
         ::                     SUMMARY                     ::
         :::::::::::::::::::::::::::::::::::::::::::::::::::::
         :: total energy             -20.781656713927 Eh    ::
         :: gradient norm              0.027993539924 Eh/a0 ::
         :: HOMO-LUMO gap              5.008630824873 eV    ::
         ::.................................................::
         :: SCC energy               -20.996056348527 Eh    ::
         :: -> isotropic ES            0.045584642470 Eh    ::
         :: -> anisotropic ES          0.002217854535 Eh    ::
         :: -> anisotropic XC          0.004528210315 Eh    ::
         :: -> dispersion             -0.006948774605 Eh    ::
         :: repulsion energy           0.214399634600 Eh    ::
         :: add. restraining           0.000000000000 Eh    ::
         :: total charge              -0.000000000000 e     ::
         :::::::::::::::::::::::::::::::::::::::::::::::::::::

      ----------------------------------------------------------- 
     |                   =====================                   |
     |                        A N C O P T                        |
     |                   =====================                   |
     |               Approximate Normal Coordinate               |
     |                Rational Function Optimizer                |
      ----------------------------------------------------------- 

          ...................................................
          :                      SETUP                      :
          :.................................................:
          :   optimization level         verytight          :
          :   max. optcycles                   280          :
          :   ANC micro-cycles                  20          :
          :   degrees of freedom                36          :
          :.................................................:
          :   RF solver                   davidson          :
          :   write xtbopt.log                true          :
          :   linear?                        false          :
          :   energy convergence         0.1000000E-06 Eh   :
          :   grad. convergence          0.2000000E-03 Eh/α :
          :   maximum RF displ.          1.0000000          :
          :   Hlow (freq-cutoff)         0.1000000E-01      :
          :   Hmax (freq-cutoff)         5.0000000          :
          :   S6 in model hess.         20.0000000          :
          ...................................................

generating ANC from exact Hessian ...
Using Lindh-Hessian (1995)
 Shifting diagonal of input Hessian by    6.4526836024056348E-003
 Lowest  eigenvalues of input Hessian
    0.000000    0.000000    0.000000    0.000000    0.000000    0.000000
    0.010000    0.010983    0.012109    0.019773    0.025439    0.029024
    0.047116    0.050622    0.059987    0.063968    0.078816    0.091467
 Highest eigenvalues
    1.144108    1.159397    1.252916    1.270332    1.712004    2.297483


........................................................................
.............................. CYCLE    1 ..............................
........................................................................

 iter      E             dE          RMSdq      gap      omega  full diag
   1    -20.9960692 -0.209961E+02  0.781E-05    5.01       0.0  T
   2    -20.9960692 -0.468958E-11  0.481E-05    5.01     555.6  T
   3    -20.9960692 -0.113687E-11  0.127E-05    5.01    2099.4  T
     SCC iter.                  ...        0 min,  0.001 sec
     gradient                   ...        0 min,  0.003 sec
 * total energy  :   -20.7816567 Eh     change       -0.1024496E-09 Eh
   gradient norm :     0.0279932 Eh/α   predicted     0.0000000E+00 (-100.00%)
   displ. norm   :     0.1304224 α      lambda       -0.1337022E-02
   maximum displ.:     0.0990043 α      in ANC's #3, #9, #6, ...

........................................................................
.............................. CYCLE    2 ..............................
........................................................................

 iter      E             dE          RMSdq      gap      omega  full diag
   1    -21.0037346 -0.210037E+02  0.129E-01    5.09       0.0  T
   2    -21.0037557 -0.210860E-04  0.754E-02    5.07       1.0  T
   3    -21.0037552  0.512991E-06  0.319E-02    5.08       1.0  T
   4    -21.0037584 -0.321533E-05  0.397E-03    5.07       6.7  T
   5    -21.0037585 -0.591522E-07  0.200E-03    5.07      13.3  T
   6    -21.0037585 -0.511594E-08  0.572E-04    5.07      46.7  T
   7    -21.0037585 -0.363649E-09  0.215E-04    5.07     124.4  T
     SCC iter.                  ...        0 min,  0.002 sec
     gradient                   ...        0 min,  0.003 sec
 * total energy  :   -20.7825027 Eh     change       -0.8460284E-03 Eh
   gradient norm :     0.0114460 Eh/α   predicted    -0.6798820E-03 ( -19.64%)
   displ. norm   :     0.0966424 α      lambda       -0.2639239E-03
   maximum displ.:     0.0868416 α      in ANC's #3, #1, #11, ...

........................................................................
.............................. CYCLE    3 ..............................
........................................................................

 iter      E             dE          RMSdq      gap      omega  full diag
   1    -21.0061252 -0.210061E+02  0.556E-02    5.10       0.0  T
   2    -21.0061399 -0.147552E-04  0.328E-02    5.08       1.0  T
   3    -21.0061405 -0.587761E-06  0.182E-02    5.09       1.5  T
   4    -21.0061406 -0.668870E-07  0.445E-03    5.09       6.0  T
   5    -21.0061407 -0.115124E-06  0.976E-04    5.09      27.4  T
   6    -21.0061407 -0.130477E-08  0.404E-04    5.09      66.1  T
     SCC iter.                  ...        0 min,  0.002 sec
     gradient                   ...        0 min,  0.003 sec
 * total energy  :   -20.7826615 Eh     change       -0.1587798E-03 Eh
   gradient norm :     0.0036945 Eh/α   predicted    -0.1331961E-03 ( -16.11%)
   displ. norm   :     0.0528274 α      lambda       -0.4019302E-04
   maximum displ.:     0.0496290 α      in ANC's #3, #1, #6, ...

........................................................................
.............................. CYCLE    4 ..............................
........................................................................

 iter      E             dE          RMSdq      gap      omega  full diag
   1    -21.0058879 -0.210059E+02  0.238E-02    5.08       0.0  T
   2    -21.0058895 -0.156525E-05  0.139E-02    5.08       1.9  T
   3    -21.0058895 -0.160937E-07  0.633E-03    5.08       4.2  T
   4    -21.0058895 -0.923425E-08  0.114E-03    5.08      23.4  T
   5    -21.0058895 -0.110320E-07  0.334E-04    5.08      80.0  T
   6    -21.0058895 -0.128960E-09  0.153E-04    5.08     174.9  T
     SCC iter.                  ...        0 min,  0.002 sec
     gradient                   ...        0 min,  0.003 sec
 * total energy  :   -20.7826860 Eh     change       -0.2451190E-04 Eh
   gradient norm :     0.0010384 Eh/α   predicted    -0.2015286E-04 ( -17.78%)
   displ. norm   :     0.0360952 α      lambda       -0.7440673E-05
   maximum displ.:     0.0281686 α      in ANC's #3, #1, #6, ...

........................................................................
.............................. CYCLE    5 ..............................
........................................................................

 iter      E             dE          RMSdq      gap      omega  full diag
   1    -21.0053527 -0.210054E+02  0.179E-02    5.08       0.0  T
   2    -21.0053527 -0.518286E-07  0.107E-02    5.08       2.5  T
   3    -21.0053527  0.175505E-07  0.179E-03    5.08      15.0  T
   4    -21.0053527 -0.295038E-07  0.409E-04    5.08      65.4  T
   5    -21.0053527 -0.124633E-09  0.206E-04    5.08     129.9  T
     SCC iter.                  ...        0 min,  0.002 sec
     gradient                   ...        0 min,  0.003 sec
 * total energy  :   -20.7826901 Eh     change       -0.4048895E-05 Eh
   gradient norm :     0.0012942 Eh/α   predicted    -0.3722506E-05 (  -8.06%)
   displ. norm   :     0.0070959 α      lambda       -0.2109532E-05
   maximum displ.:     0.0033497 α      in ANC's #3, #2, #6, ...

........................................................................
.............................. CYCLE    6 ..............................
........................................................................

 iter      E             dE          RMSdq      gap      omega  full diag
   1    -21.0054341 -0.210054E+02  0.629E-03    5.08       0.0  T
   2    -21.0054342 -0.134418E-06  0.355E-03    5.08       7.5  T
   3    -21.0054342 -0.194618E-08  0.180E-03    5.08      14.9  T
   4    -21.0054342 -0.420815E-09  0.354E-04    5.08      75.6  T
   5    -21.0054342 -0.100761E-08  0.652E-05    5.08     409.6  T
     SCC iter.                  ...        0 min,  0.002 sec
     gradient                   ...        0 min,  0.003 sec
 * total energy  :   -20.7826912 Eh     change       -0.1148448E-05 Eh
   gradient norm :     0.0004776 Eh/α   predicted    -0.1054042E-05 (  -8.22%)
   displ. norm   :     0.0031120 α      lambda       -0.5171024E-06
   maximum displ.:     0.0014116 α      in ANC's #6, #3, #4, ...

........................................................................
.............................. CYCLE    7 ..............................
........................................................................

 iter      E             dE          RMSdq      gap      omega  full diag
   1    -21.0055924 -0.210056E+02  0.324E-03    5.08       0.0  T
   2    -21.0055924 -0.950856E-08  0.189E-03    5.08      14.1  T
   3    -21.0055924 -0.123084E-09  0.462E-04    5.08      57.8  T
   4    -21.0055924 -0.719460E-10  0.567E-05    5.08     471.6  T
     SCC iter.                  ...        0 min,  0.002 sec
     gradient                   ...        0 min,  0.003 sec
 * total energy  :   -20.7826916 Eh     change       -0.3214861E-06 Eh
   gradient norm :     0.0001661 Eh/α   predicted    -0.2575394E-06 ( -19.89%)
   displ. norm   :     0.0024151 α      lambda       -0.5680194E-07
   maximum displ.:     0.0018221 α      in ANC's #3, #2, #4, ...

........................................................................
.............................. CYCLE    8 ..............................
........................................................................

 iter      E             dE          RMSdq      gap      omega  full diag
   1    -21.0055608 -0.210056E+02  0.114E-03    5.08       0.0  T
   2    -21.0055608 -0.109107E-08  0.674E-04    5.08      39.6  T
   3    -21.0055608 -0.231601E-10  0.143E-04    5.08     186.4  T
     SCC iter.                  ...        0 min,  0.001 sec
     gradient                   ...        0 min,  0.003 sec
 * total energy  :   -20.7826916 Eh     change       -0.5621028E-07 Eh
   gradient norm :     0.0000286 Eh/α   predicted    -0.2745090E-07 ( -51.16%)
   displ. norm   :     0.0034870 α      lambda       -0.3377298E-07
   maximum displ.:     0.0026117 α      in ANC's #2, #3, #1, ...

   *** GEOMETRY OPTIMIZATION CONVERGED AFTER 8 ITERATIONS ***

------------------------------------------------------------------------
 total energy gain   :        -0.0010349 Eh       -0.6494 kcal/mol
 total RMSD          :         0.0788257 a0        0.0417 Å
 total power (kW/mol):        -0.3396396 (step)  -55.1635 (real)
------------------------------------------------------------------------

 ANCopt (total)                0 d,  0 h,  0 min,  0.049 sec
 optimizer setup                ...        0 min,  0.000 sec (  0.142%)
 model hessian                  ...        0 min,  0.001 sec (  2.688%)
 ANC generation                 ...        0 min,  0.000 sec (  0.463%)
 coordinate transformation      ...        0 min,  0.000 sec (  0.079%)
 single point calculation       ...        0 min,  0.046 sec ( 92.425%)
 optimization log               ...        0 min,  0.000 sec (  0.895%)
 hessian update                 ...        0 min,  0.000 sec (  0.081%)
 rational function              ...        0 min,  0.001 sec (  1.262%)

================
 final structure:
================
$coord
       -3.60353727967097        2.28091049532297        0.35703142758953      C
       -2.85510508322325       -0.41562667470396       -0.30550523012588      C
       -0.05057637658646       -0.94026643899585       -0.14439676435485      C
        0.86272518698857       -3.02250674649127       -0.21728382137123      O
        1.32618370041163        1.16845578067360        0.06458308553275      O
        3.98529858939684        0.83401000588249        0.19806591961077      C
       -3.02789624105311        2.74106748468442        2.27393760079518      H
       -2.71094241498285        3.61601319317257       -0.92165249568961      H
       -5.64236653846709        2.49422812179184        0.21525973207831      H
       -3.43146271279594       -0.86531366543164       -2.23836535264248      H
       -3.79942938806353       -1.77018947088948        0.93256903605748      H
        4.47649081191963       -0.37754625574657        1.79431483457532      H
        4.78942763886397        2.70891057104614        0.43690890702831      H
        4.68605096317533       -0.04096953318544       -1.53430490968581      H
$end

 Bond Distances (Angstroems)
 ---------------------------
C1-C2=1.5218         C1-H7=1.0868         C1-H8=1.0863         C1-H9=1.0874         C2-C1=1.5218         C2-C3=1.5122         
C2-H10=1.0935        C2-H11=1.0921        C3-C2=1.5122         C3-O4=1.2038         C3-O5=1.3372         O4-C3=1.2038         
O5-C3=1.3372         O5-C6=1.4200         C6-O5=1.4200         C6-H12=1.0918        C6-H13=1.0869        C6-H14=1.0919        
H7-C1=1.0868         H8-C1=1.0863         H9-C1=1.0874         H10-C2=1.0935        H11-C2=1.0921        H12-C6=1.0918        
H13-C6=1.0869        H14-C6=1.0919        
 C  H  Rav=1.0896 sigma=0.0028  Rmin=1.0863  Rmax=1.0935     8
 C  C  Rav=1.5170 sigma=0.0048  Rmin=1.5122  Rmax=1.5218     2
 O  C  Rav=1.3204 sigma=0.0891  Rmin=1.2038  Rmax=1.4200     3

 selected bond angles (degree)
 --------------------
H7-C1-C2=110.62                H8-C1-C2=110.68                H8-C1-H7=108.29                H9-C1-C2=109.86                
H9-C1-H7=108.62                H9-C1-H8=108.72                C3-C2-C1=114.49                H10-C2-C1=110.30               
H10-C2-C3=106.65               H11-C2-C1=110.99               H11-C2-C3=107.14               H11-C2-H10=106.90              
O4-C3-C2=124.07                O5-C3-C2=112.71                O5-C3-O4=123.21                C6-O5-C3=116.10                
H12-C6-O5=110.34               H13-C6-O5=106.26               H13-C6-H12=110.66              H14-C6-O5=110.34               
H14-C6-H12=108.64              H14-C6-H13=110.59              

 selected dihedral angles (degree)
 ---------------------------------
C3-C2-C1-H7=300.52            C3-C2-C1-H8= 60.55            C3-C2-C1-H9=180.62            H10-C2-C1-H7=180.24           
H10-C2-C1-H8=300.27           H10-C2-C1-H9= 60.34           H11-C2-C1-H7= 61.96           H11-C2-C1-H8=181.99           
H11-C2-C1-H9=302.06           O4-C3-C2-C1=168.19            O4-C3-C2-H10=290.48           O4-C3-C2-H11= 44.67           
O5-C3-C2-C1=347.58            O5-C3-C2-H10=109.86           O5-C3-C2-H11=224.05           C6-O5-C3-C2=180.67            
C6-O5-C3-O4=  0.06            H12-C6-O5-C3=302.25           H13-C6-O5-C3=182.24           H14-C6-O5-C3= 62.31           
           -------------------------------------------------
          |                Final Singlepoint                |
           -------------------------------------------------

          ...................................................
          :                      SETUP                      :
          :.................................................:
          :  # basis functions                  32          :
          :  # atomic orbitals                  32          :
          :  # shells                           20          :
          :  # electrons                        36          :
          :  max. iterations                   250          :
          :  Hamiltonian                  GFN2-xTB          :
          :  restarted?                      false          :
          :  GBSA solvation                  false          :
          :  PC potential                    false          :
          :  electronic temp.          300.0000000     K    :
          :  accuracy                    1.0000000          :
          :  -> integral cutoff          0.2500000E+02      :
          :  -> integral neglect         0.1000000E-07      :
          :  -> SCF convergence          0.1000000E-05 Eh   :
          :  -> wf. convergence          0.1000000E-03 e    :
          :  Broyden damping             0.4000000          :
          :  net charge                          0          :
          :  unpaired electrons                  0          :
          ...................................................

 iter      E             dE          RMSdq      gap      omega  full diag
   1    -21.0055608 -0.210056E+02  0.197E-05    5.08       0.0  T
   2    -21.0055608 -0.500933E-12  0.127E-05    5.08    2112.1  T
   3    -21.0055608 -0.710543E-14  0.562E-06    5.08    4754.4  T

   *** convergence criteria satisfied after 3 iterations ***

         #    Occupation            Energy/Eh            Energy/eV
      -------------------------------------------------------------
         1        2.0000           -0.7443170             -20.2539
       ...           ...                  ...                  ...
        12        2.0000           -0.4992611             -13.5856
        13        2.0000           -0.4890743             -13.3084
        14        2.0000           -0.4737251             -12.8907
        15        2.0000           -0.4654447             -12.6654
        16        2.0000           -0.4513648             -12.2823
        17        2.0000           -0.4461083             -12.1392
        18        2.0000           -0.4129426             -11.2367 (HOMO)
        19                         -0.2263042              -6.1580 (LUMO)
        20                          0.0152528               0.4150
        21                          0.0976136               2.6562
        22                          0.1251710               3.4061
        23                          0.1322681               3.5992
       ...                                ...                  ...
        32                          0.6444509              17.5364
      -------------------------------------------------------------
                  HL-Gap            0.1866384 Eh            5.0787 eV
             Fermi-level           -0.3196234 Eh           -8.6974 eV

 SCC (total)                   0 d,  0 h,  0 min,  0.006 sec
 SCC setup                      ...        0 min,  0.000 sec (  0.881%)
 Dispersion                     ...        0 min,  0.000 sec (  0.576%)
 classical contributions        ...        0 min,  0.000 sec (  0.234%)
 integral evaluation            ...        0 min,  0.001 sec ( 16.390%)
 iterations                     ...        0 min,  0.001 sec ( 21.945%)
 molecular gradient             ...        0 min,  0.004 sec ( 58.935%)
 printout                       ...        0 min,  0.000 sec (  0.884%)

         :::::::::::::::::::::::::::::::::::::::::::::::::::::
         ::                     SUMMARY                     ::
         :::::::::::::::::::::::::::::::::::::::::::::::::::::
         :: total energy             -20.782691609220 Eh    ::
         :: gradient norm              0.000028601859 Eh/a0 ::
         :: HOMO-LUMO gap              5.078689465214 eV    ::
         ::.................................................::
         :: SCC energy               -21.005548042265 Eh    ::
         :: -> isotropic ES            0.045344679497 Eh    ::
         :: -> anisotropic ES          0.002047467539 Eh    ::
         :: -> anisotropic XC          0.003901027980 Eh    ::
         :: -> dispersion             -0.007008159626 Eh    ::
         :: repulsion energy           0.222856433045 Eh    ::
         :: add. restraining           0.000000000000 Eh    ::
         :: total charge              -0.000000000000 e     ::
         :::::::::::::::::::::::::::::::::::::::::::::::::::::

           ------------------------------------------------- 
          |                Numerical Hessian                |
           ------------------------------------------------- 
step length          :   0.00500
SCC accuracy         :   0.30000
Hessian scale factor :   1.00000
frozen atoms in %    :   0.00000    0
RMS gradient         :   0.00003
estimated CPU  time      0.01 min
estimated wall time      0.01 min

writing file <hessian>, containing the non-mass-weighted Hessian matrix in atomic units (Eₕ/Bohr²).

 projected vibrational frequencies (cm⁻¹)
eigval :       -0.00    -0.00    -0.00    -0.00     0.00     0.00
eigval :       -3.16    53.49   167.04   197.87   229.07   302.18
eigval :      472.74   575.62   611.66   812.31   863.10   990.34
eigval :     1061.81  1071.27  1111.90  1124.55  1152.48  1204.71
eigval :     1222.32  1313.64  1388.10  1413.01  1442.16  1444.94
eigval :     1464.93  1492.54  1498.83  1767.68  2961.04  2977.26
eigval :     2987.03  2989.42  3040.14  3044.20  3050.49  3057.66
           -------------------------------------------------
          |                Property Printout                |
           -------------------------------------------------

    * Orbital Energies and Occupations

         #    Occupation            Energy/Eh            Energy/eV
      -------------------------------------------------------------
         1        2.0000           -0.7443171             -20.2539
       ...           ...                  ...                  ...
         6        2.0000           -0.5977859             -16.2666
         7        2.0000           -0.5883222             -16.0091
         8        2.0000           -0.5637638             -15.3408
         9        2.0000           -0.5520707             -15.0226
        10        2.0000           -0.5245016             -14.2724
        11        2.0000           -0.5053083             -13.7501
        12        2.0000           -0.4992611             -13.5856
        13        2.0000           -0.4890743             -13.3084
        14        2.0000           -0.4737251             -12.8907
        15        2.0000           -0.4654447             -12.6654
        16        2.0000           -0.4513648             -12.2823
        17        2.0000           -0.4461083             -12.1392
        18        2.0000           -0.4129425             -11.2367 (HOMO)
        19                         -0.2263042              -6.1581 (LUMO)
        20                          0.0152528               0.4150
        21                          0.0976136               2.6562
        22                          0.1251709               3.4061
        23                          0.1322681               3.5992
        24                          0.1458021               3.9675
        25                          0.1518433               4.1319
        26                          0.1795896               4.8869
        27                          0.1921715               5.2293
        28                          0.2087882               5.6814
        29                          0.2531423               6.8884
       ...                                ...                  ...
        32                          0.6444509              17.5364
      -------------------------------------------------------------
                  HL-Gap            0.1866384 Eh            5.0787 eV
             Fermi-level           -0.3196234 Eh           -8.6974 eV

     #   Z          covCN         q      C6AA      α(0)
     1   6          3.752    -0.107    22.597     6.779
     2   6          3.801    -0.087    22.163     6.703
     3   6          2.722     0.355    20.975     7.497
     4   8          0.856    -0.417    22.016     6.291
     5   8          1.704    -0.254    18.215     5.762
     6   6          3.657     0.032    20.316     6.469
     7   1          0.925     0.048     2.350     2.397
     8   1          0.925     0.052     2.299     2.371
     9   1          0.925     0.045     2.379     2.412
    10   1          0.924     0.071     2.079     2.255
    11   1          0.924     0.070     2.090     2.261
    12   1          0.924     0.063     2.161     2.299
    13   1          0.925     0.068     2.110     2.272
    14   1          0.924     0.062     2.179     2.308

 Mol. C6AA /au·bohr⁶  :       1542.490898
 Mol. C8AA /au·bohr⁸  :      32699.246523
 Mol. α(0) /au        :         58.076690


Wiberg/Mayer (AO) data.
largest (>0.10) Wiberg bond orders for each atom

 ---------------------------------------------------------------------------
     #   Z sym  total        # sym  WBO       # sym  WBO       # sym  WBO
 ---------------------------------------------------------------------------
     1   6      3.994 --     2      1.021     7      0.987     9      0.986
                             8      0.986
     2   6      3.995 --     1      1.021     3      0.974    11      0.960
                            10      0.949
     3   6      3.916 --     4      1.750     5      1.133     2      0.974
     4   8      2.031 --     3      1.750     5      0.172
     5   8      2.311 --     3      1.133     6      0.959     4      0.172
     6   6      3.928 --    13      0.982    14      0.977    12      0.977
                             5      0.959
     7   1      0.998 --     1      0.987
     8   1      0.997 --     1      0.986
     9   1      0.998 --     1      0.986
    10   1      0.995 --     2      0.949
    11   1      0.995 --     2      0.960
    12   1      0.996 --     6      0.977
    13   1      0.995 --     6      0.982
    14   1      0.996 --     6      0.977
 ---------------------------------------------------------------------------

Topologies differ in total number of bonds
Writing topology from bond orders to xtbtopo.mol

molecular dipole:
                 x           y           z       tot (Debye)
 q only:       -0.103       0.852       0.044
   full:       -0.115       0.894       0.031       2.293
molecular quadrupole (traceless):
                xx          xy          yy          xz          yz          zz
 q only:        6.563       2.231      -5.778       0.589      -0.188      -0.786
  q+dip:        5.854       2.981      -7.294       0.572      -0.610       1.440
   full:        6.134       2.896      -7.593       0.559      -0.528       1.459

           -------------------------------------------------
          |                Geometry Summary                 |
           -------------------------------------------------

      molecular mass/u    :       88.1052794
   center of mass at/Å    :        0.0000599       0.0002237      -0.0012815
  moments of inertia/u·Å² :        0.8319719E+02   0.1844073E+03   0.2573860E+03
rotational constants/cm⁻¹ :        0.2026226E+00   0.9141522E-01   0.6549554E-01

 * 12 selected distances

     #   Z          #   Z                                           value/Å
     1   6          2   6                                         1.5218257 (max)
     3   6          4   8                                         1.2038238
     3   6          5   8                                         1.3372436
     5   8          6   6                                         1.4199872
     1   6          7   1                                         1.0867652
     1   6          8   1                                         1.0863298 (min)
     1   6          9   1                                         1.0873824
     2   6         10   1                                         1.0935362
     2   6         11   1                                         1.0921348
     6   6         12   1                                         1.0918440
     6   6         13   1                                         1.0869308
     6   6         14   1                                         1.0919213

 * 3 distinct bonds (by element types)

   Z      Z             #   av. dist./Å        max./Å        min./Å
   1 H    6 C           8     1.0896056     1.0935362     1.0863298
   6 C    6 C           1     1.5218257     1.5218257     1.5218257
   6 C    8 O           3     1.3203515     1.4199872     1.2038238

           -------------------------------------------------
          |               Frequency Printout                |
           -------------------------------------------------
 projected vibrational frequencies (cm⁻¹)
eigval :       -0.00    -0.00    -0.00    -0.00     0.00     0.00
eigval :       -3.16    53.49   167.04   197.87   229.07   302.18
eigval :      472.74   575.62   611.66   812.31   863.10   990.34
eigval :     1061.81  1071.27  1111.90  1124.55  1152.48  1204.71
eigval :     1222.32  1313.64  1388.10  1413.01  1442.16  1444.94
eigval :     1464.93  1492.54  1498.83  1767.68  2961.04  2977.26
eigval :     2987.03  2989.42  3040.14  3044.20  3050.49  3057.66
 reduced masses (amu)
    1:      4.49    2:      5.77    3:      5.36    4:      3.80    5:      6.67    6:      3.55
    7:      2.21    8:      1.07    9:      2.19   10:      2.92   11:      1.28   12:      3.74
   13:      4.37   14:      2.93   15:      3.70   16:      1.40   17:      3.58   18:      1.79
   19:      1.86   20:      2.40   21:      2.60   22:      1.29   23:      1.66   24:      5.52
   25:      1.24   26:      1.57   27:      1.15   28:      1.21   29:      1.05   30:      1.10
Molecule has no symmetry elements
It seems to be the C1 point group
   31:      1.06   32:      1.05   33:      1.06   34:     12.56   35:      1.09   36:      1.09
   37:      1.06   38:      1.04   39:      1.08   40:      1.08   41:      1.08   42:      1.05
 IR intensities (km·mol⁻¹)
    1:      0.80    2:      0.20    3:      0.02    4:      1.35    5:      0.26    6:      0.70
    7:      2.90    8:      0.23    9:      3.74   10:      2.95   11:      2.61   12:     11.72
   13:      8.13   14:     11.13   15:      4.55   16:     35.01   17:     22.75   18:     29.63
   19:     12.18   20:     28.86   21:      5.77   22:      1.25   23:     15.17   24:    325.05
   25:     14.41   26:      0.73   27:      6.38   28:      3.12   29:      6.99   30:      7.89
   31:      4.35   32:      3.51   33:      8.25   34:    433.98   35:     10.13   36:     15.92
   37:     12.18   38:     16.80   39:     33.30   40:     10.12   41:     27.58   42:     19.25
 Raman intensities (Ä⁴*amu⁻¹)
    1:      0.00    2:      0.00    3:      0.00    4:      0.00    5:      0.00    6:      0.00
    7:      0.00    8:      0.00    9:      0.00   10:      0.00   11:      0.00   12:      0.00
   13:      0.00   14:      0.00   15:      0.00   16:      0.00   17:      0.00   18:      0.00
   19:      0.00   20:      0.00   21:      0.00   22:      0.00   23:      0.00   24:      0.00
   25:      0.00   26:      0.00   27:      0.00   28:      0.00   29:      0.00   30:      0.00
   31:      0.00   32:      0.00   33:      0.00   34:      0.00   35:      0.00   36:      0.00
   37:      0.00   38:      0.00   39:      0.00   40:      0.00   41:      0.00   42:      0.00
 output can be read by thermo (or use thermo option).
 writing <g98.out> molden fake output.
 recommended (thermochemical) frequency scaling factor: 1.0
           -------------------------------------------------
          |             Thermodynamic Functions             |
           -------------------------------------------------

c1  symmetry found (for desy threshold:  0.10E+00) used in thermo
 inverting freq            1   3.1599792623292888     

          ...................................................
          :                      SETUP                      :
          :.................................................:
          :  # frequencies                          36      :
          :  # imaginary freq.                       0      :
          :  linear?                             false      :
          :  only rotor calc.                    false      :
          :  symmetry                               c1      :
          :  rotational number                       1      :
          :  scaling factor                  1.0000000      :
          :  rotor cutoff                    0.0000000 cm⁻¹ :
          :  imag. cutoff                 -100.0000000 cm⁻¹ :
          :.................................................:

    mode    ω/cm⁻¹     T·S(HO)/kcal·mol⁻¹    T·S(FR)/kcal·mol⁻¹   T·S(vib)
   ------------------------------------------------------------------------
       1      3.16    -3.07099 (100.00%)    -1.86571 (  0.00%)    -3.07099
       2     53.49    -1.39656 (100.00%)    -1.03604 (  0.00%)    -1.39656
       3    167.04    -0.73598 (100.00%)    -0.69904 (  0.00%)    -0.73598
       4    197.87    -0.64186 (100.00%)    -0.64890 (  0.00%)    -0.64186
       5    229.07    -0.56238 (100.00%)    -0.60555 (  0.00%)    -0.56238
   ------------------------------------------------------------------------

   temp. (K)  partition function   enthalpy   heat capacity  entropy
                                   cal/mol     cal/K/mol   cal/K/mol   J/K/mol
 298.15  VIB  0.226E+04             3034.125     18.710     25.527
         ROT  0.152E+06              888.727      2.981     26.689
         INT  0.344E+09             3922.853     21.691     52.216
         TR   0.253E+26             1481.212      4.968     39.341
         TOT                        5404.0650    26.6589    91.5561   383.0708

       T/K    H(0)-H(T)+PV         H(T)/Eh          T*S/Eh         G(T)/Eh
   ------------------------------------------------------------------------
    298.15    0.861193E-02    0.123798E+00    0.435013E-01    0.802964E-01
   ------------------------------------------------------------------------

         :::::::::::::::::::::::::::::::::::::::::::::::::::::
         ::                  THERMODYNAMIC                  ::
         :::::::::::::::::::::::::::::::::::::::::::::::::::::
         :: total free energy         -20.702395222467 Eh   ::
         ::.................................................::
         :: total energy              -20.782691609220 Eh   ::
         :: zero point energy           0.115185728067 Eh   ::
         :: G(RRHO) w/o ZPVE           -0.034889341314 Eh   ::
         :: G(RRHO) contrib.            0.080296386753 Eh   ::
         :::::::::::::::::::::::::::::::::::::::::::::::::::::

optimized geometry written to: xtbopt.coord


           -------------------------------------------------
          | TOTAL ENERGY              -20.782691609220 Eh   |
          | TOTAL ENTHALPY            -20.658893955457 Eh   |
          | TOTAL FREE ENERGY         -20.702395222467 Eh   |
          | GRADIENT NORM               0.000028607155 Eh/α |
          | HOMO-LUMO GAP               5.078688231825 eV   |
           -------------------------------------------------

------------------------------------------------------------------------
 * finished run on 2025/04/08 at 22:38:18.006     
------------------------------------------------------------------------
 total:
 * wall-time:     0 d,  0 h,  0 min,  0.670 sec
 *  cpu-time:     0 d,  0 h,  0 min,  0.521 sec
 * ratio c/w:     0.778 speedup
 SCF:
 * wall-time:     0 d,  0 h,  0 min,  0.008 sec
 *  cpu-time:     0 d,  0 h,  0 min,  0.008 sec
 * ratio c/w:     0.914 speedup
 ANC optimizer:
 * wall-time:     0 d,  0 h,  0 min,  0.056 sec
 *  cpu-time:     0 d,  0 h,  0 min,  0.051 sec
 * ratio c/w:     0.909 speedup
 analytical hessian:
 * wall-time:     0 d,  0 h,  0 min,  0.599 sec
 *  cpu-time:     0 d,  0 h,  0 min,  0.457 sec
 * ratio c/w:     0.763 speedup

