20
 energy: -36.130234893996 gnorm: 0.039969116441 xtb: 6.7.1 (41059b4)
C            0.57870487408956        1.72813652846992       -0.04301885946797
C            1.38112388888548        0.44558326317161       -0.25707579865221
H            1.60337937608192        0.31372628122043       -1.32765328061256
C            0.56063877617044       -0.74287627825985        0.21507560924436
H            0.40315972923708       -0.66118631200213        1.30177760950186
C           -0.78912195926534       -0.74226171798467       -0.49005942556877
H           -0.60626738606431       -0.82278174013393       -1.57536107751164
C           -1.50080431659007        0.59265012393325       -0.26729112551413
H           -2.40348871495248        0.64809940025461       -0.88986500957221
O           -0.67718289679845        1.65803240126911       -0.73120953680349
O           -1.81067914623354        0.71113607850408        1.10022708151754
O           -1.62503810106190       -1.79503123086085       -0.04454182991439
O            1.18703652303732       -1.98575265733305       -0.10994565061079
O            2.58764835975911        0.44500823878050        0.51686621488002
H            1.10053426171004        2.59487245094156       -0.46053258843621
H            0.43124027753974        1.88759833218813        1.03391735121238
H           -2.38570781127398        1.47782088826316        1.20681128805108
H           -1.09306726316648       -2.59977336127730       -0.07773081074571
H            2.03678365852799       -2.00204694546512        0.34512557963690
H            3.22269576800431        1.03659991179062        0.09805736344778
20
 energy: -36.131851460539 gnorm: 0.018600107947 xtb: 6.7.1 (41059b4)
C            0.57535024254823        1.72074351244300       -0.04536226437532
C            1.38282135325232        0.43657797888410       -0.25431945921626
H            1.60877852811459        0.30963673725959       -1.32296350296371
C            0.55266952965088       -0.75504921197202        0.21713913825979
H            0.39246207139423       -0.67604963855258        1.30138068073082
C           -0.79431802588068       -0.74607655651098       -0.50192466198477
H           -0.60534522320734       -0.83820380010443       -1.58476629454637
C           -1.49297022031072        0.59640862832378       -0.26185620169421
H           -2.39820339861395        0.65571447752883       -0.87914629991562
O           -0.67723983221399        1.65956287633055       -0.71740178405067
O           -1.79391054173556        0.72328430205280        1.09652584501311
O           -1.62727960127093       -1.79019623255325       -0.06686689483044
O            1.18659861550418       -1.98547969799477       -0.09426005986913
O            2.58619296176865        0.44233643653772        0.50503709476883
H            1.08763673444618        2.58976208810751       -0.46558504689380
H            0.42214114052986        1.87365857466729        1.03003562629726
H           -2.36802858263836        1.48921979748695        1.21230208660410
H           -1.08765245317902       -2.59155433845044       -0.07420463477516
H            2.04341852769973       -1.98391252950617        0.34807475530063
H            3.20846607177813        1.05717025149260        0.10173498222278
20
 energy: -36.132378157652 gnorm: 0.005225591771 xtb: 6.7.1 (41059b4)
C            0.57313931387233        1.71599107391489       -0.04922275765502
C            1.38489507084887        0.43004893125794       -0.25502103377156
H            1.60572626703657        0.29914307565582       -1.32423693763175
C            0.54857666759312       -0.76443468936120        0.21879055512967
H            0.37830772262800       -0.67745502525741        1.30010573648396
C           -0.79793693898429       -0.74865527850253       -0.50925979572121
H           -0.60155571054323       -0.83629962143362       -1.59091015507487
C           -1.48751287832025        0.60049711631152       -0.26095638700858
H           -2.39576666041875        0.65930363391418       -0.87577152506695
O           -0.67486188482648        1.65870055398630       -0.71233587091934
O           -1.77710557297006        0.72177008032204        1.09217935010784
O           -1.63353575044562       -1.78530378329302       -0.08825250597339
O            1.18250252166358       -1.98897127270670       -0.07622001414593
O            2.58264127238211        0.43499324071926        0.49503213361852
H            1.08443678423103        2.58276849485649       -0.47219861053706
H            0.42317754485381        1.86505305080722        1.02730804822857
H           -2.34863058582916        1.48711011212652        1.22468669033944
H           -1.08736633699269       -2.58383893453113       -0.06062484309293
H            2.05274892467395       -1.96666065327767        0.34136190783653
H            3.18970812718360        1.08379354996118        0.11911911893590
20
 energy: -36.132531869684 gnorm: 0.006923455486 xtb: 6.7.1 (41059b4)
C            0.57420304225924        1.71401589100761       -0.05324044825135
C            1.38524521605777        0.42586868961623       -0.25723058467444
H            1.59986886680016        0.29080895535968       -1.32816334776825
C            0.54593242027976       -0.76743772944984        0.22046063190332
H            0.36780544625262       -0.67075672591941        1.30050531129590
C           -0.79850976291601       -0.74995018167992       -0.51410250035933
H           -0.59668602819403       -0.82882901452223       -1.59610998657599
C           -1.48559656595444        0.60142058541971       -0.26054809388921
H           -2.39575862531125        0.66021214896337       -0.87393915915574
O           -0.67331834999490        1.65771067666456       -0.71315190291957
O           -1.76956292034591        0.71565016451831        1.09279054841177
O           -1.63765782185001       -1.78498159626733       -0.10210551833852
O            1.17850440920659       -1.99237024043285       -0.06324141726665
O            2.58134756883972        0.42819991418854        0.48945885832398
H            1.08876144121761        2.57809768484227       -0.47791215613257
H            0.43027286522472        1.86423605804821        1.02462743595160
H           -2.33845423421509        1.48120449824453        1.23613470030219
H           -1.08917580412350       -2.58121583897795       -0.05156572366677
H            2.05809531145510       -1.95659773334953        0.33491636013567
H            3.17627142294826        1.10226744919612        0.13599009675579
20
 energy: -36.132653889252 gnorm: 0.007722996011 xtb: 6.7.1 (41059b4)
C            0.57727311501366        1.71193043838675       -0.05829475201924
C            1.38444751591768        0.42043984941322       -0.26070386675699
H            1.59204672034351        0.28041577743367       -1.33375452569445
C            0.54228238887464       -0.76904004005592        0.22268762002744
H            0.35495400623371       -0.65973060303066        1.30121969446333
C           -0.79808113189030       -0.75069680622806       -0.51974640169093
H           -0.59019281421126       -0.81705748035005       -1.60229082047623
C           -1.48486229160777        0.60116623473413       -0.25983176681755
H           -2.39765068132210        0.66188091399962       -0.87006769546652
O           -0.67219729122075        1.65717483190579       -0.71439599041462
O           -1.76240450845103        0.70714270375206        1.09580964803738
O           -1.64093485947528       -1.78770538290304       -0.12052297831902
O            1.17364736352605       -1.99710564814004       -0.04552303137087
O            2.58147946246592        0.41877400649243        0.48196366271935
H            1.09638501477139        2.57238713912775       -0.48626349915133
H            0.44082390824890        1.86698117558904        1.02073297213903
H           -2.32805285327867        1.47299990821401        1.25004363461694
H           -1.08992570828843       -2.57951419280987       -0.04319942669034
H            2.06324167070254       -1.94546728316518        0.32834498205779
H            3.15930887128401        1.12257811310441        0.15736564488867
20
 energy: -36.132713256714 gnorm: 0.004482759242 xtb: 6.7.1 (41059b4)
C            0.58000774957339        1.71065495270076       -0.06082783178768
C            1.38315838659448        0.41717496165354       -0.26277554551184
H            1.58828034849961        0.27519274589706       -1.33654605220921
C            0.53954578185165       -0.76857052800941        0.22395541836137
H            0.34798854338280       -0.65327543432490        1.30143537949158
C           -0.79736477522000       -0.75041029482549       -0.52306458572096
H           -0.58680573954806       -0.80973287361030       -1.60564965715754
C           -1.48510848533219        0.60008798252071       -0.25885182095389
H           -2.39940042902810        0.66320557052266       -0.86614681028943
O           -0.67216381289844        1.65742257133839       -0.71400354224251
O           -1.75929084441737        0.70294911865729        1.09879272257524
O           -1.64099872768121       -1.79124071602976       -0.13258552022928
O            1.17071196896800       -1.99951614454149       -0.03469663341139
O            2.58286032390993        0.41326495693273        0.47705983692002
H            1.10066831725959        2.56894623660851       -0.49232131567697
H            0.44707384358751        1.87015113938391        1.01825496700918
H           -2.32368330730681        1.46871746982427        1.25640611578595
H           -1.08765593525578       -2.57870648411763       -0.03948651065496
H            2.06434533410372       -1.93984877778859        0.32554017179455
H            3.14941935659370        1.13108720267778        0.16908431798964
20
 energy: -36.132744398656 gnorm: 0.002005669781 xtb: 6.7.1 (41059b4)
C            0.58272466047897        1.70869018462384       -0.06217661480891
C            1.38210441717030        0.41390492961232       -0.26462880361876
H            1.58733293743845        0.27245758930037       -1.33832464393537
C            0.53716360206946       -0.76851867651460        0.22404238260486
H            0.34440235589774       -0.65073791367244        1.30069637363831
C           -0.79728770440512       -0.74983359553445       -0.52541261779319
H           -0.58585237419997       -0.80599751131505       -1.60764923626327
C           -1.48531552559766        0.59909475723520       -0.25783113604126
H           -2.40050276113169        0.66490927293595       -0.86244095700948
O           -0.67203574462321        1.65773382119544       -0.71239587336500
O           -1.75727860557901        0.70213454820747        1.10098317486367
O           -1.64030336543808       -1.79413737852025       -0.14107624093685
O            1.16797995290558       -2.00182075529936       -0.02806660587288
O            2.58479713494462        0.40815600984443        0.47268460149710
H            1.10282725326638        2.56563256360143       -0.49728134444993
H            0.45130211860803        1.87130784622937        1.01643880568904
H           -2.32150572750352        1.46779342979456        1.25811803345994
H           -1.08379716553593       -2.57702937714390       -0.03404489020897
H            2.06469206515910       -1.93653841391006        0.32110505086369
H            3.14014037371200        1.14035232479978        0.18083364576910
20
 energy: -36.132752723116 gnorm: 0.000783918625 xtb: 6.7.1 (41059b4)
C            0.58388690452645        1.70776101569372       -0.06243170029219
C            1.38195499133811        0.41278479457897       -0.26537100690593
H            1.58853927728830        0.27190256724759       -1.33862289766901
C            0.53659421550816       -0.76865033049319        0.22339753307201
H            0.34483740290225       -0.65139635742178        1.29999913372589
C           -0.79766036781842       -0.74950748249293       -0.52577903114437
H           -0.58689519075689       -0.80613332594417       -1.60785918734576
C           -1.48523513584951        0.59884801615473       -0.25748776707236
H           -2.40042905630030        0.66557312539150       -0.86143135314674
O           -0.67179163353287        1.65781629272211       -0.71150993590300
O           -1.75695648255623        0.70314449379680        1.10144607180359
O           -1.63985597059500       -1.79481671865848       -0.14208472514301
O            1.16674676327727       -2.00274687358561       -0.02813263571939
O            2.58556875877889        0.40651300820426        0.47168201114187
H            1.10287401897158        2.56447146869561       -0.49896553793097
H            0.45237080210215        1.87069410771736        1.01587683331818
H           -2.32205012340134        1.46861301259129        1.25646423078239
H           -1.08175202594620       -2.57543252651254       -0.02941618100531
H            2.06497975608688       -1.93615092000764        0.31628899100090
H            3.13586099361315        1.14426628779247        0.18751025851505
20
 energy: -36.132757027088 gnorm: 0.001457515777 xtb: 6.7.1 (41059b4)
C            0.58505600346042        1.70646930372080       -0.06302508159907
C            1.38256611780623        0.41154970049126       -0.26654299408156
H            1.59084640409777        0.27155501082273       -1.33938971263618
C            0.53675181020476       -0.76962607261840        0.22167160784087
H            0.34676659452690       -0.65362134890502        1.29862892972117
C           -0.79854133472944       -0.74950419909443       -0.52573275970906
H           -0.58923712302115       -0.80787272362274       -1.60788436431210
C           -1.48486483428129        0.59907219355366       -0.25748168108678
H           -2.40000742692214        0.66641045751163       -0.86125567046898
O           -0.67104219636014        1.65753034246113       -0.71132455608899
O           -1.75644627064143        0.70491334632098        1.10134567004701
O           -1.64024724803455       -1.79442336625064       -0.14023548114527
O            1.16572938653421       -2.00407895928080       -0.03131073438765
O            2.58619710790231        0.40460198174851        0.47108635189264
H            1.10311864758375        2.56313850860339       -0.50024023815665
H            0.45345726383416        1.86879576404035        1.01517897942195
H           -2.32279012911813        1.47013734166753        1.25406156347371
H           -1.08085158616804       -2.57308162233151       -0.02150845719180
H            2.06555151654160       -1.93718961977144        0.30867341160852
H            3.12957519442063        1.15277761640308        0.19885832094007
20
 energy: -36.132760072259 gnorm: 0.001224400135 xtb: 6.7.1 (41059b4)
C            0.58494359438629        1.70666267872249       -0.06318206001099
C            1.38336236441855        0.41228949534498       -0.26661699703367
H            1.59321319195377        0.27234060922525       -1.33914123410338
C            0.53801407435625       -0.77003121876139        0.22017918696123
H            0.35015961500318       -0.65635879977566        1.29786938025710
C           -0.79906294680368       -0.74968957272181       -0.52460860049110
H           -0.59163868474274       -0.81071302466045       -1.60704940431577
C           -1.48460528214581        0.59957649437649       -0.25799100396592
H           -2.39940613190037        0.66634232523071       -0.86259119271411
O           -0.67058330584446        1.65727600672146       -0.71227953454666
O           -1.75705280274973        0.70639191224284        1.10059194436592
O           -1.64065749482078       -1.79317991805003       -0.13478802197024
O            1.16632144512422       -2.00394018026471       -0.03721817891155
O            2.58579883216799        0.40595153547123        0.47296181276908
H            1.10283110649847        2.56380385788313       -0.49945602433925
H            0.45258016009014        1.86779014260817        1.01511530092186
H           -2.32471352762984        1.47115255541866        1.25167597498045
H           -1.08184027361919       -2.57207223868644       -0.01752800902761
H            2.06567515144016       -1.93975850706494        0.30421781749730
H            3.12824881245401        1.15371950221008        0.20341194775916
20
 energy: -36.132762544426 gnorm: 0.000460814652 xtb: 6.7.1 (41059b4)
C            0.58495200007110        1.70657143689301       -0.06360088757768
C            1.38394422406275        0.41230385005388       -0.26694483568616
H            1.59373084606819        0.27259926465548       -1.33972294509196
C            0.53880207844258       -0.77079148766234        0.21918202567474
H            0.35182936460947       -0.65780440170241        1.29730743406993
C           -0.79929192333255       -0.75020566587500       -0.52408702416136
H           -0.59287810246321       -0.81247686236267       -1.60678951672444
C           -1.48426581077249        0.60003168814014       -0.25859093166932
H           -2.39904511783870        0.66648294499146       -0.86356400053625
O           -0.66988356952801        1.65697716000324       -0.71364166971320
O           -1.75692556348806        0.70699548257320        1.09994632279902
O           -1.64164762605156       -1.79216626921083       -0.13154003834984
O            1.16678932115749       -2.00425859180899       -0.04048591830826
O            2.58555381355045        0.40592863402350        0.47334635945691
H            1.10384444916535        2.56389229692340       -0.49869380382299
H            0.45231518451735        1.86742505914503        1.01490573402712
H           -2.32463965029452        1.47151166707948        1.25165590602450
H           -1.08375816709801       -2.57206729341123       -0.01491957890989
H            2.06623843174836       -1.94110535514887        0.30172291096606
H            3.12592371511046        1.15771009817057        0.20808756161491
20
 energy: -36.132763129852 gnorm: 0.000412949239 xtb: 6.7.1 (41059b4)
C            0.58500580309537        1.70646000073417       -0.06364550821749
C            1.38406576005588        0.41229613099396       -0.26706628956905
H            1.59367955921245        0.27297101668957       -1.33997117769935
C            0.53907650947870       -0.77094040993671        0.21884134334837
H            0.35257726656734       -0.65849917687752        1.29707151759721
C           -0.79922332214586       -0.75033051298308       -0.52375353766616
H           -0.59345014216691       -0.81336681999739       -1.60646553734017
C           -1.48415292339672        0.60010566435239       -0.25882194599655
H           -2.39889165914785        0.66647431165137       -0.86377140513665
O           -0.66956182717240        1.65688974566265       -0.71418039162735
O           -1.75678118514722        0.70752448996100        1.09969733451447
O           -1.64177935473468       -1.79181052707611       -0.13012626144151
O            1.16713287877544       -2.00424786839205       -0.04168873249669
O            2.58580251275349        0.40580273768473        0.47298675204310
H            1.10424357786123        2.56388887107814       -0.49831125421265
H            0.45187577915624        1.86733877530806        1.01482573978014
H           -2.32444561203734        1.47192392161097        1.25165311460262
H           -1.08452279865518       -2.57240767729791       -0.01507654994338
H            2.06610095942132       -1.94183205970713        0.30171267019348
H            3.12483611586312        1.15931304201098        0.20966322334946
20
 energy: -36.132763565311 gnorm: 0.000281821844 xtb: 6.7.1 (41059b4)
C            0.58517238180962        1.70635667481394       -0.06367543125428
C            1.38404499042742        0.41217419677560       -0.26726228756864
H            1.59314656924099        0.27295023475471       -1.34032238643460
C            0.53918428055304       -0.77105007451279        0.21884444212502
H            0.35302604464945       -0.65877728982811        1.29712164623572
C           -0.79914193221069       -0.75047036437930       -0.52344971055863
H           -0.59368462862608       -0.81412389438721       -1.60614728238799
C           -1.48392280633988        0.60013295031322       -0.25889019999085
H           -2.39862761690481        0.66644563827666       -0.86377268715051
O           -0.66915985494737        1.65680973611539       -0.71459393272201
O           -1.75638512208936        0.70801309839516        1.09955354870413
O           -1.64199369281206       -1.79151400127435       -0.12914119321915
O            1.16724104350105       -2.00436230253224       -0.04199893913821
O            2.58616045984374        0.40565226790120        0.47209327490577
H            1.10462402881919        2.56388220898824       -0.49802534943431
H            0.45152351752360        1.86720195902659        1.01474878114500
H           -2.32393181112241        1.47235886204025        1.25184908300849
H           -1.08534500967649       -2.57309628425108       -0.01651487634834
H            2.06619932700021       -1.94206253694352        0.30214588512992
H            3.12345772899725        1.16103257617771        0.21101071903530
20
 energy: -36.132763759692 gnorm: 0.000177536888 xtb: 6.7.1 (41059b4)
C            0.58527631158604        1.70625056995626       -0.06379681288758
C            1.38411345525688        0.41210894863277       -0.26748155283856
H            1.59287690797439        0.27278893541372       -1.34058394368954
C            0.53928258323541       -0.77100496840945        0.21894082328884
H            0.35311590152564       -0.65864307235781        1.29719293353716
C           -0.79913276313762       -0.75042467313730       -0.52325670168635
H           -0.59370190247648       -0.81412663170338       -1.60595613822592
C           -1.48391110016654        0.60011189363224       -0.25868450993257
H           -2.39867162741343        0.66641153475192       -0.86349670676997
O           -0.66916356471354        1.65675298839865       -0.71458977598643
O           -1.75614427090811        0.70818562875178        1.09973660739550
O           -1.64192504325669       -1.79146150548303       -0.12884264855639
O            1.16732918953051       -2.00436419211279       -0.04177301560262
O            2.58654368397064        0.40557610438302        0.47141516668111
H            1.10459826782098        2.56376640192803       -0.49823573335007
H            0.45168654615083        1.86700729338804        1.01462671655763
H           -2.32373608978447        1.47255387559626        1.25190314660934
H           -1.08552025036444       -2.57347572302839       -0.01831671854999
H            2.06578880308361       -1.94245248664952        0.30323225511942
H            3.12288285972285        1.16199273351902        0.21153971296882
20
 energy: -36.132763708459 gnorm: 0.000300251461 xtb: 6.7.1 (41059b4)
C            0.58541547574305        1.70613022356442       -0.06395441427716
C            1.38418617857654        0.41201399989991       -0.26774375542012
H            1.59256717179412        0.27254791531410       -1.34088890159880
C            0.53938741124016       -0.77096257425661        0.21907961472452
H            0.35322631923178       -0.65845359836240        1.29730076037619
C           -0.79913624042021       -0.75038016363514       -0.52302083495388
H           -0.59371678311458       -0.81411201569526       -1.60572313160057
C           -1.48388928951039        0.60008608384580       -0.25842531788898
H           -2.39871819937996        0.66637255749219       -0.86315542809080
O           -0.66916135828339        1.65667666081989       -0.71457418114962
O           -1.75586070454170        0.70839138038194        1.09997161876288
O           -1.64186035850571       -1.79141019167463       -0.12850380114332
O            1.16737677041551       -2.00439723920750       -0.04146281180339
O            2.58697017859520        0.40549705778595        0.47063397905173
H            1.10457562563422        2.56362570995498       -0.49852933854431
H            0.45191576138353        1.86680848841286        1.01446849482670
H           -2.32350533809041        1.47279464271006        1.25195629013123
H           -1.08571491440343       -2.57395105100021       -0.02048739760172
H            2.06536826275130       -1.94286925789147        0.30440324471867
H            3.12216192852081        1.16314502701120        0.21222841556259
20
 energy: -36.132763847766 gnorm: 0.000065772586 xtb: 6.7.1 (41059b4)
C            0.58536806806209        1.70621727867957       -0.06394691424802
C            1.38410981321908        0.41200409377647       -0.26759632763295
H            1.59280243795983        0.27246150180060       -1.34066357220181
C            0.53925117605683       -0.77098041336789        0.21916214763588
H            0.35301817873899       -0.65826934712775        1.29735078099861
C           -0.79918409695457       -0.75039023543051       -0.52318105887428
H           -0.59357746273873       -0.81381040064302       -1.60587319528953
C           -1.48393761784708        0.60007332884156       -0.25841638664282
H           -2.39877920651225        0.66638860476453       -0.86315115089835
O           -0.66927398585213        1.65671151156997       -0.71439380393492
O           -1.75603843772896        0.70818264234187        1.10001159241543
O           -1.64184735265150       -1.79157492015143       -0.12907103970488
O            1.16714621999136       -2.00444145076678       -0.04117370943918
O            2.58662293300996        0.40559346606427        0.47116427475573
H            1.10453901766151        2.56363209737520       -0.49869743519901
H            0.45206191415170        1.86709072831242        1.01447922292483
H           -2.32365557003210        1.47261592033285        1.25194341632040
H           -1.08537058264006       -2.57376352315794       -0.01975910687132
H            2.06568005308640       -1.94246359624892        0.30371346112056
H            3.12265239865607        1.16227636850498        0.21167190884748
20
 energy: -36.132763779784 gnorm: 0.000276174231 xtb: 6.7.1 (41059b4)
C            0.58534000836073        1.70629209703970       -0.06391955018853
C            1.38403778439361        0.41198745466649       -0.26747643913096
H            1.59298409829139        0.27237763762331       -1.34047864617007
C            0.53913643150431       -0.77100887578441        0.21924142779447
H            0.35287646845495       -0.65812483419102        1.29740580411679
C           -0.79923108554447       -0.75040733752648       -0.52330219637419
H           -0.59346957186813       -0.81359292136528       -1.60598362178652
C           -1.48396740674483        0.60006815261494       -0.25841807291202
H           -2.39880752425400        0.66641049665980       -0.86317616699504
O           -0.66934363561238        1.65673988076388       -0.71424173024391
O           -1.75620584057381        0.70802877853839        1.10002259957190
O           -1.64185333255544       -1.79170336384651       -0.12951516665680
O            1.16693258517384       -2.00449596611135       -0.04093771265323
O            2.58632444483370        0.40568265736809        0.47159282936941
H            1.10452551486239        2.56365064111059       -0.49878964730283
H            0.45216768143691        1.86730959439050        1.01450847197472
H           -2.32381007190481        1.47248276986789        1.25188845304590
H           -1.08509277347449       -2.57360889417552       -0.01910575627074
H            2.06600647897588       -1.94208319796194        0.30304183577440
H            3.12303764388109        1.16154888578900        0.21121638911910
20
 energy: -36.132763862382 gnorm: 0.000030653666 xtb: 6.7.1 (41059b4)
C            0.58536597579264        1.70624116158804       -0.06405939738508
C            1.38410896490584        0.41199367239508       -0.26756616204939
H            1.59290715962819        0.27237057212253       -1.34061026571816
C            0.53921572661917       -0.77096942380364        0.21918353519362
H            0.35291885955299       -0.65817782080771        1.29736638973482
C           -0.79919644087180       -0.75039651377514       -0.52321759139049
H           -0.59353979188608       -0.81365844612716       -1.60592159828302
C           -1.48394417884130        0.60005496611771       -0.25836350167169
H           -2.39882959606542        0.66636302792630       -0.86303556882625
O           -0.66933056280216        1.65669160502824       -0.71438830407371
O           -1.75598686340266        0.70810381821728        1.10012325256182
O           -1.64184635491990       -1.79163843769577       -0.12921974072840
O            1.16704966155061       -2.00446681438047       -0.04108410690471
O            2.58653745759839        0.40561216369251        0.47134681613604
H            1.10451413010077        2.56359198872583       -0.49898528309959
H            0.45219552513253        1.86728177271157        1.01436803382094
H           -2.32356491306966        1.47256494899270        1.25208225853509
H           -1.08530906773076       -2.57380393194511       -0.01985767147226
H            2.06567854910229       -1.94245413239361        0.30359404485897
H            3.12264365724275        1.16224947888088        0.21181796484328
