
                                 *****************
                                 * O   R   C   A *
                                 *****************

                                            #,                                       
                                            ###                                      
                                            ####                                     
                                            #####                                    
                                            ######                                   
                                           ########,                                 
                                     ,,################,,,,,                         
                               ,,#################################,,                 
                          ,,##########################################,,             
                       ,#########################################, ''#####,          
                    ,#############################################,,   '####,        
                  ,##################################################,,,,####,       
                ,###########''''           ''''###############################       
              ,#####''   ,,,,##########,,,,          '''####'''          '####       
            ,##' ,,,,###########################,,,                        '##       
           ' ,,###''''                  '''############,,,                           
         ,,##''                                '''############,,,,        ,,,,,,###''
      ,#''                                            '''#######################'''  
     '                                                          ''''####''''         
             ,#######,   #######,   ,#######,      ##                                
            ,#'     '#,  ##    ##  ,#'     '#,    #''#        ,####,   ,####,        
            ##       ##  ##   ,#'  ##            #'  '#       #'       #'  '#        
            ##       ##  #######   ##           ,######,      #####,   #    #        
            '#,     ,#'  ##    ##  '#,     ,#' ,#      #,     #,   #   #,  ,#        
             '#######'   ##     ##  '#######'  #'      '#     '####' # '####'        



                #########################################################
                #                        -***-                          #
                #          Department of theory and spectroscopy        #
                #                                                       #
                #                      Frank Neese                      #
                #                                                       #
                #     Directorship, Architecture, Infrastructure        #
                #                    SHARK, DRIVERS                     #
                #        Core code/Algorithms in most modules           #
                #                                                       #
                #        Max Planck Institute fuer Kohlenforschung      #
                #                Kaiser Wilhelm Platz 1                 #
                #                 D-45470 Muelheim/Ruhr                 #
                #                      Germany                          #
                #                                                       #
                #                  All rights reserved                  #
                #                        -***-                          #
                #########################################################


                         Program Version 6.0.1  -  RELEASE   -


 With contributions from (in alphabetic order):
[Max-Planck-Institut fuer Kohlenforschung]                               
  Daniel Aravena         : Magnetic Suceptibility                        
  Michael Atanasov       : Ab Initio Ligand Field Theory (pilot matlab implementation)
  Alexander A. Auer      : GIAO ZORA, VPT2 properties, NMR spectrum      
  Ute Becker             : All parallelization in ORCA, NUMFREQ, NUMCALC 
  Giovanni Bistoni       : ED, misc. LED, open-shell LED, HFLD           
  Martin Brehm           : Molecular dynamics                            
  Dmytro Bykov           : pre 5.0 version of the SCF Hessian            
  Marcos Casanova-Páez   : Triplet and SCS-CIS(D). UHF-(DLPNO)-IP/EA/STEOM-CCSD. UHF-CVS-IP/STEOM-CCSD   
  Vijay G. Chilkuri      : MRCI spin determinant printing, contributions to CSF-ICE 
  Pauline Colinet        : FMM embedding                                 
  Dipayan Datta          : RHF DLPNO-CCSD density                        
  Achintya Kumar Dutta   : EOM-CC, STEOM-CC                              
  Nicolas Foglia         : Exact transition moments, OPA infrastructure, MCD improvements    
  Dmitry Ganyushin       : Spin-Orbit,Spin-Spin,Magnetic field MRCI      
  Miquel Garcia-Rates    : C-PCM and meta-GGA Hessian, CCSD/C-PCM, Gaussian charge scheme 
  Tiago L. C. Gouveia    : GS-ROHF, GS-ROCIS                             
  Yang Guo               : DLPNO-NEVPT2, F12-NEVPT2, CIM, IAO-localization        
  Andreas Hansen         : Spin unrestricted coupled pair/coupled cluster methods 
  Ingolf Harden          : AUTO-CI MPn and infrastructure                
  Benjamin Helmich-Paris : MC-RPA, TRAH-(SCF,CASSCF), AVAS, COSX integrals, SCF dyn. polar. 
  Lee Huntington         : MR-EOM, pCC                                   
  Robert Izsak           : Overlap fitted RIJCOSX, COSX-SCS-MP3, EOM     
  Riya Kayal             : Wick's Theorem for AUTO-CI, AUTO-CI UHF-CCSDT 
  Emily Kempfer          : AUTO-CI, RHF CISDT and CCSDT                  
  Christian Kollmar      : KDIIS, OOCD, Brueckner-CCSD(T), CCSD density, CASPT2, CASPT2-K, improved NEVPT2 
  Axel Koslowski         : Symmetry handling                             
  Simone Kossmann        : meta-GGA functionals, TD-DFT gradient, OOMP2, (MP2 Hessian; deprecated post 5.0) 
  Lucas Lang             : DCDCAS                                        
  Marvin Lechner         : AUTO-CI (C++ implementation), FIC-MRCC        
  Spencer Leger          : CASSCF response                               
  Dagmar Lenk            : GEPOL surface, SMD, ORCA-2-JSON               
  Dimitrios Liakos       : Extrapolation schemes; Compound Job, initial MDCI parallelization 
  Dimitrios Manganas     : Further ROCIS development; embedding schemes. LFT, Crystal Embedding 
  Dimitrios Pantazis     : SARC Basis sets                               
  Anastasios Papadopoulos: AUTO-CI, single reference methods and gradients 
  Taras Petrenko         : pre 6.0 DFT Hessian and TD-DFT gradient, (ASA, deprecated), ECA, 1-Electron XAS/XES, NRVS 
  Peter Pinski           : DLPNO-MP2, DLPNO-MP2 Gradient                 
  Christoph Reimann      : Effective Core Potentials                     
  Marius Retegan         : Local ZFS, SOC                                
  Christoph Riplinger    : Optimizer, TS searches, QM/MM, DLPNO-CCSD(T), (RO)-DLPNO pert. Triples 
  Michael Roemelt        : Original ROCIS implementation                 
  Masaaki Saitow         : Open-shell DLPNO-CCSD energy and density      
  Barbara Sandhoefer     : DKH picture change effects                    
  Kantharuban Sivalingam : CASSCF convergence/infrastructure, NEVPT2 and variants, FIC-MRCI 
  Bernardo de Souza      : ESD, SOC TD-DFT                               
  Georgi L. Stoychev     : AutoAux, RI-MP2 NMR, DLPNO-MP2 response, X2C  
  Van Anh Tran           : RI-MP2 g-tensors                              
  Willem Van den Heuvel  : Paramagnetic NMR                              
  Zikuan Wang            : NOTCH, Electric field optimization            
  Frank Wennmohs         : Technical directorship and infrastructure     
  Hang Xu                : AUTO-CI-Response properties                   
                                                                         
[FACCTs GmbH]                                                            
  Markus Bursch, Miquel Garcia-Rates, Christoph Riplinger, Bernardo de Souza, Georgi L. Stoychev 
                                                                 
  APM, Basis sets (HGBS, AHGBS, def-TZVP (Ac-Lr), def2-XVPD (La-Lu)), CI-OPT, improved COSX, DLPNO-Multilevel,           
  DOCKER, DRACO, updates on ESD, GOAT, IRC, LR-CPCM, MBIS, meta-GGA TD-DFT gradient, ML-optimized integration grids, 
  MM, NACMEs, nearIR, NEB, NEB-TS, NL-DFT gradient (VV10), 2- and 3-layer-ONIOM, interface openCOSMO-RS, QMMM,   
  Crystal-QMMM, SF, symmetry and pop. for TD-DFT, r2SCAN hybrids, SOLVATOR                                   
                                                                         
[Other institutions]                                                     
  V. Asgeirsson          : NEB                                           
  Christoph Bannwarth    : sTDA-DFT, sTD-DFT, PBEh-3c, B97-3c, D3        
  Sebastian Ehlert       : rSCAN, r2SCAN, r2SCAN-3c, D4, dhf basis sets  
  Marvin Friede          : D4 for Fr, Ra, Ac-Lr                          
  Lars Goerigk           : TD-DFT with DH, B97 family of functionals     
  Stefan Grimme          : VdW corrections, initial TS optimization, DFT functionals, gCP, sTDA/sTD-DF 
  Waldemar Hujo          : DFT-NL                                        
  H. Jonsson             : NEB                                           
  Holger Kruse           : gCP                                           
  Marcel Mueller         : wB97X-3c, vDZP basis set                      
  Hagen Neugebauer       : wr2SCAN                                       
  Tobias Risthaus        : range-separated hybrid DFT                    
  Lukas Wittmann         : regularized MP2, r2SCAN double-hybrids, wr2SCAN        
                                                                         
We gratefully acknowledge several colleagues who have allowed us to      
interface, adapt or use parts of their codes:                            
  Ed Valeev, F. Pavosevic, A. Kumar             : LibInt (2-el integral package), F12 methods 
  Garnet Chan, S. Sharma, J. Yang, R. Olivares  : DMRG                   
  Ulf Ekstrom                                   : XCFun DFT Library      
  Mihaly Kallay                                 : mrcc  (arbitrary order and MRCC methods)
  Frank Weinhold                                : gennbo (NPA and NBO analysis)           
  Simon Mueller                                 : openCOSMO-RS                            
  Christopher J. Cramer and Donald G. Truhlar   : smd solvation model                     
  S Lehtola, MJT Oliveira, MAL Marques          : LibXC Library                           
  Liviu Ungur et al                             : ANISO software                          


 Your calculation uses the libint2 library for the computation of 2-el integrals
 For citations please refer to: http://libint.valeyev.net

 Your ORCA version has been built with support for libXC version: 6.2.2
 For citations please refer to: https://libxc.gitlab.io

 This ORCA versions uses:
   CBLAS   interface :  Fast vector & matrix operations
   LAPACKE interface :  Fast linear algebra routines
   SCALAPACK package :  Parallel linear algebra routines
   Shared memory     :  Shared parallel matrices
   BLAS/LAPACK       :  OpenBLAS 0.3.27  USE64BITINT DYNAMIC_ARCH NO_AFFINITY Zen SINGLE_THREADED
        Core in use  :  Zen
   Copyright (c) 2011-2014, The OpenBLAS Project


Your calculation utilizes the geometrical counterpoise correction gCP
Please cite in your paper:
H.Kruse, S. Grimme J.Chem.Phys., 136, (2012), 154101 
   

Your calculation utilizes the DFT-NL dispersion correction.
Cite in your paper:
Vydrov, O. A.; Van Voorhis, T. J. Chem. Phys. 2010, 133, 244103
Hujo, W.; Grimme, S. J. Chem. Theory Comput. 2011, 7, 3866 
   

================================================================================

----- Orbital basis set information -----
Your calculation utilizes the basis: def2-TZVP
   F. Weigend and R. Ahlrichs, Phys. Chem. Chem. Phys. 7, 3297 (2005).

----- AuxJ basis set information -----
Your calculation utilizes the auxiliary basis: def2/J
   F. Weigend, Phys. Chem. Chem. Phys. 8, 1057 (2006).

================================================================================
                                        WARNINGS
                       Please study these warnings very carefully!
================================================================================

WARNING: Old DensityContainer found on disk!
         Will remove this file - 
         If you want to keep old densities, please start your calculation with a different basename. 


================================================================================
                                       INPUT FILE
================================================================================
NAME = sp.inp
|  1> ! wb97x-v def2-tzvp def2/J RIJCOSX DEFGRID2 scfconv7 GCP(DFT/TZ) printgap
|  2> %output
|  3>     printlevel normal
|  4> end
|  5> * xyz 0 1
|  6> C -2.5941156911555483 -0.6987200509640974 -0.00017544663022514735
|  7> C -2.5942355574402485 0.6982883180905031 -5.887327052910704e-05
|  8> C -1.3990019879861573 1.420662758226762 5.2459416210898077e-05
|  9> C -0.22054453563853782 0.6968401845783588 3.631937703320472e-05
| 10> C -0.22042530603227656 -0.6968625267834601 -6.848294120855559e-05
| 11> C -1.3987566888975407 -1.420888341666043 -0.00016972790655698524
| 12> C 1.1922790321118735 -1.1716471859220483 -8.117517926722621e-05
| 13> O 1.619676235997143 -2.303178063638603 -9.58476280345218e-05
| 14> N 1.962377457900064 0.00017539045878920754 1.4654625904211754e-05
| 15> C 1.1920830441579682 1.17186652955021 0.00010973888585032842
| 16> O 1.6192806505873478 2.3034713621436844 0.00021827959501277756
| 17> H -3.5404497257257175 -1.229455452210267 -0.00027902470290622384
| 18> H -3.5406635006453833 1.2288564670096704 -4.108769066268208e-05
| 19> H -1.386341965677367 2.5052344917909855 0.0001565349306944327
| 20> H -1.3859119230300476 -2.505457675510879 -0.00028677755423352956
| 21> H 2.970785538647914 0.0002468733510137478 0.0001196803749724352
| 22> *
| 23> 
| 24>                          ****END OF INPUT****
================================================================================

                       ****************************
                       * Single Point Calculation *
                       ****************************

---------------------------------
CARTESIAN COORDINATES (ANGSTROEM)
---------------------------------
  C     -2.594116   -0.698720   -0.000175
  C     -2.594236    0.698288   -0.000059
  C     -1.399002    1.420663    0.000052
  C     -0.220545    0.696840    0.000036
  C     -0.220425   -0.696863   -0.000068
  C     -1.398757   -1.420888   -0.000170
  C      1.192279   -1.171647   -0.000081
  O      1.619676   -2.303178   -0.000096
  N      1.962377    0.000175    0.000015
  C      1.192083    1.171867    0.000110
  O      1.619281    2.303471    0.000218
  H     -3.540450   -1.229455   -0.000279
  H     -3.540664    1.228856   -0.000041
  H     -1.386342    2.505234    0.000157
  H     -1.385912   -2.505458   -0.000287
  H      2.970786    0.000247    0.000120

----------------------------
CARTESIAN COORDINATES (A.U.)
----------------------------
  NO LB      ZA    FRAG     MASS         X           Y           Z
   0 C     6.0000    0    12.011   -4.902168   -1.320390   -0.000332
   1 C     6.0000    0    12.011   -4.902395    1.319574   -0.000111
   2 C     6.0000    0    12.011   -2.643731    2.684664    0.000099
   3 C     6.0000    0    12.011   -0.416769    1.316837    0.000069
   4 C     6.0000    0    12.011   -0.416543   -1.316879   -0.000129
   5 C     6.0000    0    12.011   -2.643267   -2.685090   -0.000321
   6 C     6.0000    0    12.011    2.253081   -2.214092   -0.000153
   7 O     8.0000    0    15.999    3.060745   -4.352376   -0.000181
   8 N     7.0000    0    14.007    3.708356    0.000331    0.000028
   9 C     6.0000    0    12.011    2.252710    2.214507    0.000207
  10 O     8.0000    0    15.999    3.059997    4.352930    0.000412
  11 H     1.0000    0     1.008   -6.690480   -2.323334   -0.000527
  12 H     1.0000    0     1.008   -6.690884    2.322202   -0.000078
  13 H     1.0000    0     1.008   -2.619807    4.734207    0.000296
  14 H     1.0000    0     1.008   -2.618994   -4.734629   -0.000542
  15 H     1.0000    0     1.008    5.613971    0.000467    0.000226

--------------------------------
INTERNAL COORDINATES (ANGSTROEM)
--------------------------------
 C      0   0   0     0.000000000000     0.00000000     0.00000000
 C      1   0   0     1.397008379061     0.00000000     0.00000000
 C      2   1   0     1.396570130608   121.14298129     0.00000000
 C      3   2   1     1.382997138600   117.29336211     0.00000000
 C      4   3   2     1.393702720402   121.56364210     0.00000000
 C      5   4   3     1.382996109435   121.56374741     0.00000000
 C      5   4   3     1.490353655924   108.58147744   179.99907157
 O      7   5   4     1.209557976010   129.26892400   179.99611743
 N      7   5   4     1.402219578062   104.73554337     0.00000000
 C      9   7   5     1.402217393384   113.36611959     0.00000000
 O     10   9   7     1.209556655915   125.99597349   179.99905439
 H      1   2   3     1.085001466289   119.28023297   180.00114234
 H      2   1   3     1.085001572646   119.27993580   180.00084364
 H      3   2   1     1.084645625190   121.81667098   180.00080994
 H      6   5   4     1.084645399026   120.89011570   179.99778401
 H      9   7   5     1.008408088751   123.31618103   179.99389835

---------------------------
INTERNAL COORDINATES (A.U.)
---------------------------
 C      0   0   0     0.000000000000     0.00000000     0.00000000
 C      1   0   0     2.639963243218     0.00000000     0.00000000
 C      2   1   0     2.639135073664   121.14298129     0.00000000
 C      3   2   1     2.613485835952   117.29336211     0.00000000
 C      4   3   2     2.633716453661   121.56364210     0.00000000
 C      5   4   3     2.613483891111   121.56374741     0.00000000
 C      5   4   3     2.816360252384   108.58147744   179.99907157
 O      7   5   4     2.285733317760   129.26892400   179.99611743
 N      7   5   4     2.649810982160   104.73554337     0.00000000
 C      9   7   5     2.649806853717   113.36611959     0.00000000
 O     10   9   7     2.285730823142   125.99597349   179.99905439
 H      1   2   3     2.050355626190   119.28023297   180.00114234
 H      2   1   3     2.050355827174   119.27993580   180.00084364
 H      3   2   1     2.049683183964   121.81667098   180.00080994
 H      6   5   4     2.049682756576   120.89011570   179.99778401
 H      9   7   5     1.905615118970   123.31618103   179.99389835

---------------------
BASIS SET INFORMATION
---------------------
There are 4 groups of distinct atoms

 Group   1 Type C   : 11s6p2d1f contracted to 5s3p2d1f pattern {62111/411/11/1}
 Group   2 Type O   : 11s6p2d1f contracted to 5s3p2d1f pattern {62111/411/11/1}
 Group   3 Type N   : 11s6p2d1f contracted to 5s3p2d1f pattern {62111/411/11/1}
 Group   4 Type H   : 5s1p contracted to 3s1p pattern {311/1}

Atom   0C    basis set group =>   1
Atom   1C    basis set group =>   1
Atom   2C    basis set group =>   1
Atom   3C    basis set group =>   1
Atom   4C    basis set group =>   1
Atom   5C    basis set group =>   1
Atom   6C    basis set group =>   1
Atom   7O    basis set group =>   2
Atom   8N    basis set group =>   3
Atom   9C    basis set group =>   1
Atom  10O    basis set group =>   2
Atom  11H    basis set group =>   4
Atom  12H    basis set group =>   4
Atom  13H    basis set group =>   4
Atom  14H    basis set group =>   4
Atom  15H    basis set group =>   4
---------------------------------
AUXILIARY/J BASIS SET INFORMATION
---------------------------------
There are 4 groups of distinct atoms

 Group   1 Type C   : 12s5p4d2f1g contracted to 6s4p3d1f1g pattern {711111/2111/211/2/1}
 Group   2 Type O   : 12s5p4d2f1g contracted to 6s4p3d1f1g pattern {711111/2111/211/2/1}
 Group   3 Type N   : 12s5p4d2f1g contracted to 6s4p3d1f1g pattern {711111/2111/211/2/1}
 Group   4 Type H   : 5s2p1d contracted to 3s1p1d pattern {311/2/1}

Atom   0C    basis set group =>   1
Atom   1C    basis set group =>   1
Atom   2C    basis set group =>   1
Atom   3C    basis set group =>   1
Atom   4C    basis set group =>   1
Atom   5C    basis set group =>   1
Atom   6C    basis set group =>   1
Atom   7O    basis set group =>   2
Atom   8N    basis set group =>   3
Atom   9C    basis set group =>   1
Atom  10O    basis set group =>   2
Atom  11H    basis set group =>   4
Atom  12H    basis set group =>   4
Atom  13H    basis set group =>   4
Atom  14H    basis set group =>   4
Atom  15H    basis set group =>   4

Checking for AutoStart:
The File: sp.gbw exists
Trying to determine its content:
     ... Fine, the file contains calculation information
     ... Fine, the calculation information was read
     ... Fine, the file contains a basis set
     ... Fine, the basis set was read
     ... Fine, the file contains a geometry
     ... Fine, the geometry was read
     ... Fine, the file contains a set of orbitals
     ... Fine, the orbitals can be read
     => possible old guess file was deleted
     => GBW file was renamed to GES file
     => GES file is set as startup file
     => Guess is set to MORead
     ... now leaving AutoStart

------------------------------------------------------------------------------
                             ORCA STARTUP CALCULATIONS
                           -- RI-GTO INTEGRALS CHOSEN --
------------------------------------------------------------------------------
------------------------------------------------------------------------------
                   ___                                                        
                  /   \      - P O W E R E D   B Y -                         
                 /     \                                                     
                 |  |  |   _    _      __       _____    __    __             
                 |  |  |  | |  | |    /  \     |  _  \  |  |  /  |          
                  \  \/   | |  | |   /    \    | | | |  |  | /  /          
                 / \  \   | |__| |  /  /\  \   | |_| |  |  |/  /          
                |  |  |   |  __  | /  /__\  \  |    /   |      \           
                |  |  |   | |  | | |   __   |  |    \   |  |\   \          
                \     /   | |  | | |  |  |  |  | |\  \  |  | \   \       
                 \___/    |_|  |_| |__|  |__|  |_| \__\ |__|  \__/        
                                                                              
                      - O R C A' S   B I G   F R I E N D -                    
                                      &                                       
                       - I N T E G R A L  F E E D E R -                       
                                                                              
 v1 FN, 2020, v2 2021, v3 2022-2024                                           
------------------------------------------------------------------------------


----------------------
SHARK INTEGRAL PACKAGE
----------------------

Number of atoms                             ...     16
Number of basis functions                   ...    371
Number of shells                            ...    141
Maximum angular momentum                    ...      3
Integral batch strategy                     ... SHARK/LIBINT Hybrid
RI-J (if used) integral strategy            ... SPLIT-RIJ (Revised 2003 algorithm where possible)
Printlevel                                  ...      1
Contraction scheme used                     ... SEGMENTED contraction
Prescreening option                         ... SCHWARTZ
   Thresh                                   ... 3.000e-11
   Tcut                                     ... 1.000e-12
   Tpresel                                  ... 1.000e-12 
Coulomb Range Separation                    ... NOT USED
Exchange Range Separation                   ... Long Range
   Mu parameter                             ... 3.000e-01
   Scaling (regular/separated)              ... 1.670e-01 8.330e-01
Multipole approximations                    ... NOT USED
Finite Nucleus Model                        ... NOT USED
CABS basis                                  ... NOT available
Auxiliary Coulomb fitting basis             ... AVAILABLE
   # of basis functions in Aux-J            ...    594
   # of shells in Aux-J                     ...    190
   Maximum angular momentum in Aux-J        ...      4
Auxiliary J/K fitting basis                 ... NOT available
Auxiliary Correlation fitting basis         ... NOT available
Auxiliary 'external' fitting basis          ... NOT available

Checking pre-screening integrals            ... done (  0.0 sec) Dimension = 141
Check shell pair data                       ... done (  0.0 sec)
Shell pair information
Shell pair cut-off parameter TPreSel        ...   1.0e-12
Total number of shell pairs                 ...     10011
Shell pairs after pre-screening             ...      8906
Total number of primitive shell pairs       ...     31632
Primitive shell pairs kept                  ...     20547
          la=0 lb=0:   2070 shell pairs
          la=1 lb=0:   2408 shell pairs
          la=1 lb=1:    709 shell pairs
          la=2 lb=0:   1366 shell pairs
          la=2 lb=1:    782 shell pairs
          la=2 lb=2:    238 shell pairs
          la=3 lb=0:    660 shell pairs
          la=3 lb=1:    388 shell pairs
          la=3 lb=2:    224 shell pairs
          la=3 lb=3:     61 shell pairs

Calculating one electron integrals          ... done (  0.0 sec)
Calculating RI/J V-Matrix + Cholesky decomp.... done (  0.0 sec)
Calculating Nuclear repulsion               ... done (  0.0 sec) ENN=    555.778732386997 Eh

Diagonalization of the overlap matrix:
Smallest eigenvalue                        ... 7.480e-06
Time for diagonalization                   ...    0.009 sec
Threshold for overlap eigenvalues          ... 1.000e-07
Number of eigenvalues below threshold      ... 0
Time for construction of square roots      ...    0.004 sec
Total time needed                          ...    0.015 sec

-------------------
DFT GRID GENERATION
-------------------

General Integration Accuracy     IntAcc      ... 4.388
Radial Grid Type                 RadialGrid  ... OptM3 with GC (2021)
Angular Grid (max. ang.)         AngularGrid ... 4 (Lebedev-302)
Angular grid pruning method      GridPruning ... 4 (adaptive)
Weight generation scheme         WeightScheme... mBecke (2022)
Basis function cutoff            BFCut       ... 1.0000e-11
Integration weight cutoff        WCut        ... 1.0000e-14
Partially contracted basis set               ... off
Rotationally invariant grid construction     ... off
Angular grids for H and He will be reduced by one unit

Total number of grid points                  ...    82189
Total number of batches                      ...     1294
Average number of points per batch           ...       63
Average number of grid points per atom       ...     5137

--------------------
COSX GRID GENERATION
--------------------

GRIDX 1
-------
General Integration Accuracy     IntAcc      ... 3.816
Radial Grid Type                 RadialGrid  ... OptM3 with GC (2021)
Angular Grid (max. ang.)         AngularGrid ... 1 (Lebedev-50)
Angular grid pruning method      GridPruning ... 4 (adaptive)
Weight generation scheme         WeightScheme... mBecke (2022)
Basis function cutoff            BFCut       ... 1.0000e-11
Integration weight cutoff        WCut        ... 1.0000e-14
Partially contracted basis set               ... on
Rotationally invariant grid construction     ... off
Angular grids for H and He will be reduced by one unit

Total number of grid points                  ...    10461
Total number of batches                      ...       89
Average number of points per batch           ...      117
Average number of grid points per atom       ...      654
UseSFitting                                  ... on

GRIDX 2
-------
General Integration Accuracy     IntAcc      ... 4.020
Radial Grid Type                 RadialGrid  ... OptM3 with GC (2021)
Angular Grid (max. ang.)         AngularGrid ... 2 (Lebedev-110)
Angular grid pruning method      GridPruning ... 4 (adaptive)
Weight generation scheme         WeightScheme... mBecke (2022)
Basis function cutoff            BFCut       ... 1.0000e-11
Integration weight cutoff        WCut        ... 1.0000e-14
Partially contracted basis set               ... on
Rotationally invariant grid construction     ... off
Angular grids for H and He will be reduced by one unit

Total number of grid points                  ...    23544
Total number of batches                      ...      192
Average number of points per batch           ...      122
Average number of grid points per atom       ...     1472
UseSFitting                                  ... on

GRIDX 3
-------
General Integration Accuracy     IntAcc      ... 4.338
Radial Grid Type                 RadialGrid  ... OptM3 with GC (2021)
Angular Grid (max. ang.)         AngularGrid ... 3 (Lebedev-194)
Angular grid pruning method      GridPruning ... 4 (adaptive)
Weight generation scheme         WeightScheme... mBecke (2022)
Basis function cutoff            BFCut       ... 1.0000e-11
Integration weight cutoff        WCut        ... 1.0000e-14
Partially contracted basis set               ... on
Rotationally invariant grid construction     ... off
Angular grids for H and He will be reduced by one unit

Total number of grid points                  ...    51936
Total number of batches                      ...      413
Average number of points per batch           ...      125
Average number of grid points per atom       ...     3246
UseSFitting                                  ... on
Initializing property integral containers    ... done (  0.0 sec)

SHARK setup successfully completed in   1.4 seconds

Maximum memory used throughout the entire STARTUP-calculation: 56.6 MB
-------------------------------------------------------------------------------
                                 ORCA GUESS
                   Start orbitals & Density for SCF / CASSCF
-------------------------------------------------------------------------------

------------
SCF SETTINGS
------------
Hamiltonian:
 Density Functional     Method          .... DFT(GTOs)
 Exchange Functional    Exchange        .... WB97X-V
 Correlation Functional Correlation     .... WB97X-V
 Gradients option       PostSCFGGA      .... off
 Hybrid DFT is turned on
   Fraction HF Exchange ScalHFX         ....  0.167000
   Scaling of DF-GGA-X  ScalDFX         ....  0.000000
   Scaling of DF-GGA-C  ScalDFC         ....  1.000000
   Scaling of DF-LDA-C  ScalLDAC        ....  1.000000
   Perturbative correction              ....  0.000000
 Long-range corrected/Screened/Range-Separated Hybrid DFT is turned on
   Amount of maximum screened exact exchange              ....  0.833000
   Range separation parameter mu (erf(mu*r12)/r12)        ....  0.300000
   NL short-range parameter             ....  6.000000
   NL long-range parameter              ....  0.010000
 RI-approximation to the Coulomb term is turned on
   Number of AuxJ basis functions       .... 594
   RIJ-COSX (HFX calculated with COS-X)).... on


General Settings:
 Integral files         IntName         .... sp
 Hartree-Fock type      HFTyp           .... RHF
 Total Charge           Charge          ....    0
 Multiplicity           Mult            ....    1
 Number of Electrons    NEL             ....   76
 Basis Dimension        Dim             ....  371
 Nuclear Repulsion      ENuc            ....    555.7787323870 Eh

Convergence Acceleration:
 AO-DIIS                CNVDIIS         .... on
   Start iteration      DIISMaxIt       ....    12
   Startup error        DIISStart       ....  0.200000
   # of expansion vecs  DIISMaxEq       ....     5
   Bias factor          DIISBfac        ....   1.050
   Max. coefficient     DIISMaxC        ....  10.000
 MO-DIIS                CNVKDIIS        .... off
 Trust-Rad. Augm. Hess. CNVTRAH         .... auto
   Auto Start mean grad. ratio tolernc. ....  1.125000
   Auto Start start iteration           ....     1
   Auto Start num. interpolation iter.  ....    10
   Max. Number of Micro iterations      ....    24
   Max. Number of Macro iterations      .... Maxiter - #DIIS iter
   Number of Davidson start vectors     ....     2
   Converg. threshold    (grad. norm)   ....   1.000e-04
   Grad. Scal. Fac. for Micro threshold ....   0.100
   Minimum threshold for Micro iter.    ....   1.000e-02
   NR start threshold (gradient norm)   ....   1.000e-04
   Initial trust radius                 ....   0.400
   Minimum AH scaling param. (alpha)    ....   1.000
   Maximum AH scaling param. (alpha)    .... 1000.000
   Quad. conv. algorithm                .... NR
   White noise on init. David. guess    .... on
   Maximum white noise                  ....   0.010
   Pseudo random numbers                .... off
   Inactive MOs                         .... canonical
   Orbital update algorithm             .... Taylor
   Preconditioner                       .... Diag
   Full preconditioner red. dimension   ....   250
 SOSCF                  CNVSOSCF        .... on
   Start iteration      SOSCFMaxIt      ....   150
   Startup grad/error   SOSCFStart      ....  0.003300
   Hessian update       SOSCFHessUp     .... L-BFGS
 Level Shifting         CNVShift        .... on
   Level shift para.    LevelShift      ....    0.2500
   Turn off err/grad.   ShiftErr        ....    0.0010
 Zerner damping         CNVZerner       .... off
 Static damping         CNVDamp         .... on
   Fraction old density DampFac         ....    0.7000
   Max. Damping (<1)    DampMax         ....    0.9800
   Min. Damping (>=0)   DampMin         ....    0.0000
   Turn off err/grad.   DampErr         ....    0.1000

SCF Procedure:
 Maximum # iterations   MaxIter         ....   125
 SCF integral mode      SCFMode         .... Direct
   Integral package                     .... SHARK and LIBINT hybrid scheme
 Reset frequency        DirectResetFreq ....    20
 Integral Threshold     Thresh          ....  3.000e-11 Eh
 Primitive CutOff       TCut            ....  1.000e-12 Eh

Convergence Tolerance:
 Convergence Check Mode ConvCheckMode   .... Total+1el-Energy
 Convergence forced     ConvForced      .... 0
 Energy Change          TolE            ....  1.000e-07 Eh
 1-El. energy change                    ....  1.000e-04 Eh
 Orbital Gradient       TolG            ....  1.000e-04
 Orbital Rotation angle TolX            ....  1.000e-04
 DIIS Error             TolErr          ....  1.000e-07

---------------------
INITIAL GUESS: MOREAD
---------------------
Guess MOs are being read from file: sp.ges
Input Geometry matches current geometry (good)
Atom 0: N(Shells)= 11 and 9 - projection required
Input basis set needs projection
NBasis(read)= 249
NBasis(calc)= 371
Basis set overlap was calculated
Using GuessMode=FMatrix for the initial guess
C*T matrix was formed
Effective Fockian was calculated
Effective Fockian was diagonalized
Initial density was built
                      ------------------
                      INITIAL GUESS DONE (   0.0 sec)
                      ------------------
             **** ENERGY FILE WAS UPDATED (sp.en.tmp) ****
Finished Guess after   0.1 sec
Maximum memory used throughout the entire GUESS-calculation: 39.9 MB

-------------------------------------------------------------------------------------------
                                      ORCA LEAN-SCF
                              memory conserving SCF solver
-------------------------------------------------------------------------------------------

----------------------------------------D-I-I-S--------------------------------------------
Iteration    Energy (Eh)           Delta-E    RMSDP     MaxDP     DIISErr   Damp  Time(sec)
-------------------------------------------------------------------------------------------
               ***  Starting incremental Fock matrix formation  ***
    1    -513.4025727484047366     0.00e+00  1.34e-03  6.44e-02  6.67e-02  0.700  15.8
    2    -513.4104579990184902    -7.89e-03  1.11e-03  5.27e-02  4.89e-02  0.700   7.0
                               ***Turning on AO-DIIS***
    3    -513.4164198941227824    -5.96e-03  8.92e-04  4.02e-02  3.52e-02  0.700   7.0
    4    -513.4208224625290313    -4.40e-03  2.18e-03  9.60e-02  2.48e-02  0.000   6.9
                              *** Initializing SOSCF ***
---------------------------------------S-O-S-C-F--------------------------------------
Iteration    Energy (Eh)           Delta-E    RMSDP     MaxDP     MaxGrad    Time(sec)
--------------------------------------------------------------------------------------
    5    -513.4320860143836853    -1.13e-02  8.83e-05  3.06e-03  1.71e-03     7.3
               *** Restarting incremental Fock matrix formation ***
    6    -513.4321410428888157    -5.50e-05  4.01e-05  1.12e-03  8.86e-04    15.8
    7    -513.4321595087578771    -1.85e-05  1.92e-05  5.51e-04  2.98e-04    12.1
    8    -513.4321623311980147    -2.82e-06  3.65e-06  2.31e-04  9.31e-05    11.6
    9    -513.4321624399894972    -1.09e-07  2.01e-06  9.80e-05  5.95e-05    10.2
   10    -513.4321625313375534    -9.13e-08  2.24e-06  1.23e-04  1.27e-05     9.6
                 **** Energy Check signals convergence ****

               *****************************************************
               *                     SUCCESS                       *
               *           SCF CONVERGED AFTER  10 CYCLES          *
               *****************************************************


------------------
NL GRID GENERATION
------------------

General Integration Accuracy     IntAcc      ... 4.004
Radial Grid Type                 RadialGrid  ... OptM3 with GC (2021)
Angular Grid (max. ang.)         AngularGrid ... 2 (Lebedev-110)
Angular grid pruning method      GridPruning ... 4 (adaptive)
Weight generation scheme         WeightScheme... mBecke (2022)
Basis function cutoff            BFCut       ... 1.0000e-10
Integration weight cutoff        WCut        ... 1.0000e-14
Partially contracted basis set               ... off
Rotationally invariant grid construction     ... off
Angular grids for H and He will be reduced by one unit

Total number of grid points                  ...    27294
Total number of batches                      ...      433
Average number of points per batch           ...       63
Average number of grid points per atom       ...     1706
Final grid set up in    0.1 sec

-------------------------------------------------------------------------------
                    post-SCF DFT-NL dispersion correction                      
-------------------------------------------------------------------------------

SCF Energy:     -513.432162531 
NL    Energy:      0.290385195 
SC+NL Energy:   -513.141777337 
NL done in  :              2.2 sec
-------------------------------------------------------------------------------
Recomputing exchange energy using gridx3       ... done (   30.604 sec)
Old exchange energy                            :    -21.039945825 Eh
New exchange energy                            :    -21.039927505 Eh
Exchange energy change after final integration :      0.000018320 Eh
Total energy after final integration           :   -513.141759017 Eh
             **** ENERGY FILE WAS UPDATED (sp.en.tmp) ****

----------------
TOTAL SCF ENERGY
----------------

Total Energy       :       -513.14175901685906 Eh          -13963.29714 eV

Components:
Nuclear Repulsion  :        555.77873238699681 Eh           15123.50817 eV
Electronic Energy  :      -1069.21089491833436 Eh          -29094.70760 eV
One Electron Energy:      -1797.97284653567772 Eh          -48925.32847 eV
Two Electron Energy:        728.76195161734324 Eh           19830.62087 eV

Virial components:
Potential Energy   :      -1024.42222203108349 Eh          -27875.94585 eV
Kinetic Energy     :        511.28046301422432 Eh           13912.64870 eV
Virial Ratio       :          2.00364045985967

DFT components:
N(Alpha)           :       38.000009708817 electrons
N(Beta)            :       38.000009708817 electrons
N(Total)           :       76.000019417633 electrons
E(X)               :      -45.344318476996 Eh       
E(C)               :       -3.234958367521 Eh       
NL Energy, E(C,NL) :        0.290385194707 Eh       
E(XC)              :      -48.288891649810 Eh       

---------------
SCF CONVERGENCE
---------------

  Last Energy change         ...    9.1348e-08  Tolerance :   1.0000e-07
  Last MAX-Density change    ...    1.2255e-04  Tolerance :   1.0000e-05
  Last RMS-Density change    ...    2.2393e-06  Tolerance :   1.0000e-06
  Last DIIS Error            ...    1.7117e-03  Tolerance :   1.0000e-07
  Last Orbital Gradient      ...    1.2661e-05  Tolerance :   1.0000e-04
  Last Orbital Rotation      ...    3.7347e-05  Tolerance :   1.0000e-04


----------------
ORBITAL ENERGIES
----------------

  NO   OCC          E(Eh)            E(eV) 
   0   2.0000     -19.219328      -522.9845 
   1   2.0000     -19.219327      -522.9845 
   2   2.0000     -14.467186      -393.6721 
   3   2.0000     -10.411294      -283.3057 
   4   2.0000     -10.411273      -283.3051 
   5   2.0000     -10.313152      -280.6351 
   6   2.0000     -10.312659      -280.6217 
   7   2.0000     -10.311401      -280.5875 
   8   2.0000     -10.311392      -280.5872 
   9   2.0000     -10.309924      -280.5473 
  10   2.0000     -10.309410      -280.5333 
  11   2.0000      -1.215340       -33.0711 
  12   2.0000      -1.195968       -32.5439 
  13   2.0000      -1.100290       -29.9404 
  14   2.0000      -1.028071       -27.9752 
  15   2.0000      -0.930159       -25.3109 
  16   2.0000      -0.919629       -25.0244 
  17   2.0000      -0.808799       -22.0086 
  18   2.0000      -0.803831       -21.8734 
  19   2.0000      -0.742428       -20.2025 
  20   2.0000      -0.720631       -19.6094 
  21   2.0000      -0.653313       -17.7776 
  22   2.0000      -0.640803       -17.4371 
  23   2.0000      -0.612971       -16.6798 
  24   2.0000      -0.603943       -16.4341 
  25   2.0000      -0.579110       -15.7584 
  26   2.0000      -0.578667       -15.7463 
  27   2.0000      -0.561791       -15.2871 
  28   2.0000      -0.560986       -15.2652 
  29   2.0000      -0.523179       -14.2364 
  30   2.0000      -0.508664       -13.8415 
  31   2.0000      -0.502307       -13.6685 
  32   2.0000      -0.488670       -13.2974 
  33   2.0000      -0.412405       -11.2221 
  34   2.0000      -0.405779       -11.0418 
  35   2.0000      -0.385370       -10.4865 
  36   2.0000      -0.381044       -10.3687 
  37   2.0000      -0.377908       -10.2834 
  38   0.0000      -0.015558        -0.4233 
  39   0.0000       0.024107         0.6560 
  40   0.0000       0.105280         2.8648 
  41   0.0000       0.115273         3.1367 
  42   0.0000       0.125996         3.4285 
  43   0.0000       0.147358         4.0098 
  44   0.0000       0.154013         4.1909 
  45   0.0000       0.158038         4.3004 
  46   0.0000       0.170408         4.6370 
  47   0.0000       0.175575         4.7776 
  48   0.0000       0.206650         5.6232 
*Only the first 10 virtual orbitals were printed.

                    ********************************
                    * MULLIKEN POPULATION ANALYSIS *
                    ********************************

-----------------------
MULLIKEN ATOMIC CHARGES
-----------------------
   0 C :   -0.082734
   1 C :   -0.082759
   2 C :   -0.185771
   3 C :    0.050344
   4 C :    0.050293
   5 C :   -0.185787
   6 C :    0.203533
   7 O :   -0.286703
   8 N :   -0.209772
   9 C :    0.203618
  10 O :   -0.286709
  11 H :    0.134476
  12 H :    0.134467
  13 H :    0.152847
  14 H :    0.152847
  15 H :    0.237810
Sum of atomic charges:    0.0000000

--------------------------------
MULLIKEN REDUCED ORBITAL CHARGES
--------------------------------
  0 C s       :     3.160629  s :     3.160629
      pz      :     0.943367  p :     2.830840
      px      :     0.956930
      py      :     0.930543
      dz2     :     0.004755  d :     0.083880
      dxz     :     0.009494
      dyz     :     0.017472
      dx2y2   :     0.023171
      dxy     :     0.028988
      f0      :     0.001598  f :     0.007385
      f+1     :     0.000648
      f-1     :     0.000624
      f+2     :     0.000817
      f-2     :     0.000431
      f+3     :     0.002163
      f-3     :     0.001104

  1 C s       :     3.160666  s :     3.160666
      pz      :     0.943367  p :     2.830835
      px      :     0.956924
      py      :     0.930543
      dz2     :     0.004754  d :     0.083874
      dxz     :     0.009491
      dyz     :     0.017475
      dx2y2   :     0.023165
      dxy     :     0.028989
      f0      :     0.001598  f :     0.007385
      f+1     :     0.000648
      f-1     :     0.000624
      f+2     :     0.000816
      f-2     :     0.000432
      f+3     :     0.002163
      f-3     :     0.001104

  2 C s       :     3.221873  s :     3.221873
      pz      :     0.929813  p :     2.867133
      px      :     0.928168
      py      :     1.009152
      dz2     :     0.003320  d :     0.089320
      dxz     :     0.022802
      dyz     :     0.005941
      dx2y2   :     0.037040
      dxy     :     0.020218
      f0      :     0.001569  f :     0.007444
      f+1     :     0.000579
      f-1     :     0.000695
      f+2     :     0.000161
      f-2     :     0.001138
      f+3     :     0.002247
      f-3     :     0.001056

  3 C s       :     3.203335  s :     3.203335
      pz      :     0.964349  p :     2.606405
      px      :     0.802681
      py      :     0.839375
      dz2     :     0.006332  d :     0.129285
      dxz     :     0.017771
      dyz     :     0.022376
      dx2y2   :     0.044567
      dxy     :     0.038240
      f0      :     0.001921  f :     0.010632
      f+1     :     0.000914
      f-1     :     0.000671
      f+2     :     0.001076
      f-2     :     0.000732
      f+3     :     0.003787
      f-3     :     0.001531

  4 C s       :     3.203490  s :     3.203490
      pz      :     0.964350  p :     2.606277
      px      :     0.802525
      py      :     0.839403
      dz2     :     0.006327  d :     0.129308
      dxz     :     0.017769
      dyz     :     0.022378
      dx2y2   :     0.044570
      dxy     :     0.038264
      f0      :     0.001921  f :     0.010631
      f+1     :     0.000914
      f-1     :     0.000671
      f+2     :     0.001076
      f-2     :     0.000732
      f+3     :     0.003787
      f-3     :     0.001531

  5 C s       :     3.221915  s :     3.221915
      pz      :     0.929812  p :     2.867102
      px      :     0.928179
      py      :     1.009112
      dz2     :     0.003322  d :     0.089326
      dxz     :     0.022802
      dyz     :     0.005941
      dx2y2   :     0.037035
      dxy     :     0.020227
      f0      :     0.001569  f :     0.007444
      f+1     :     0.000579
      f-1     :     0.000695
      f+2     :     0.000161
      f-2     :     0.001138
      f+3     :     0.002247
      f-3     :     0.001056

  6 C s       :     3.061181  s :     3.061181
      pz      :     0.747939  p :     2.465293
      px      :     0.926533
      py      :     0.790821
      dz2     :     0.006751  d :     0.248105
      dxz     :     0.024118
      dyz     :     0.070090
      dx2y2   :     0.067562
      dxy     :     0.079584
      f0      :     0.002859  f :     0.021889
      f+1     :     0.000940
      f-1     :     0.001561
      f+2     :     0.001759
      f-2     :     0.002972
      f+3     :     0.004424
      f-3     :     0.007374

  7 O s       :     3.789442  s :     3.789442
      pz      :     1.369056  p :     4.463303
      px      :     1.711385
      py      :     1.382863
      dz2     :     0.002757  d :     0.032101
      dxz     :     0.001513
      dyz     :     0.010452
      dx2y2   :     0.008714
      dxy     :     0.008666
      f0      :     0.000184  f :     0.001857
      f+1     :     0.000035
      f-1     :     0.000150
      f+2     :     0.000276
      f-2     :     0.000210
      f+3     :     0.000474
      f-3     :     0.000529

  8 N s       :     3.392582  s :     3.392582
      pz      :     1.611064  p :     3.764818
      px      :     1.064646
      py      :     1.089108
      dz2     :     0.004955  d :     0.048278
      dxz     :     0.003700
      dyz     :     0.007378
      dx2y2   :     0.016708
      dxy     :     0.015538
      f0      :     0.000777  f :     0.004094
      f+1     :     0.000698
      f-1     :     0.000649
      f+2     :     0.000097
      f-2     :     0.000244
      f+3     :     0.000808
      f-3     :     0.000822

  9 C s       :     3.061042  s :     3.061042
      pz      :     0.747940  p :     2.465363
      px      :     0.926592
      py      :     0.790831
      dz2     :     0.006750  d :     0.248089
      dxz     :     0.024116
      dyz     :     0.070091
      dx2y2   :     0.067506
      dxy     :     0.079626
      f0      :     0.002859  f :     0.021888
      f+1     :     0.000940
      f-1     :     0.001561
      f+2     :     0.001759
      f-2     :     0.002971
      f+3     :     0.004427
      f-3     :     0.007372

 10 O s       :     3.789452  s :     3.789452
      pz      :     1.369055  p :     4.463298
      px      :     1.711435
      py      :     1.382808
      dz2     :     0.002757  d :     0.032101
      dxz     :     0.001512
      dyz     :     0.010453
      dx2y2   :     0.008714
      dxy     :     0.008665
      f0      :     0.000184  f :     0.001857
      f+1     :     0.000035
      f-1     :     0.000150
      f+2     :     0.000276
      f-2     :     0.000210
      f+3     :     0.000474
      f-3     :     0.000529

 11 H s       :     0.843358  s :     0.843358
      pz      :     0.004379  p :     0.022166
      px      :     0.011720
      py      :     0.006068

 12 H s       :     0.843366  s :     0.843366
      pz      :     0.004379  p :     0.022166
      px      :     0.011721
      py      :     0.006066

 13 H s       :     0.824961  s :     0.824961
      pz      :     0.004128  p :     0.022192
      px      :     0.003428
      py      :     0.014637

 14 H s       :     0.824961  s :     0.824961
      pz      :     0.004127  p :     0.022192
      px      :     0.003428
      py      :     0.014637

 15 H s       :     0.724337  s :     0.724337
      pz      :     0.011220  p :     0.037852
      px      :     0.021417
      py      :     0.005215


------------------------
MULLIKEN OVERLAP CHARGES
------------------------
B(  0-C ,  1-C ) :   0.9853 B(  0-C ,  3-C ) :  -0.1152 B(  0-C ,  4-C ) :  -0.0918 
B(  0-C ,  5-C ) :   0.9270 B(  0-C , 11-H ) :   0.8588 B(  0-C , 12-H ) :  -0.0868 
B(  0-C , 14-H ) :  -0.0907 B(  1-C ,  2-C ) :   0.9271 B(  1-C ,  3-C ) :  -0.0924 
B(  1-C ,  4-C ) :  -0.1155 B(  1-C , 11-H ) :  -0.0868 B(  1-C , 12-H ) :   0.8589 
B(  1-C , 13-H ) :  -0.0907 B(  2-C ,  3-C ) :   0.7262 B(  2-C ,  4-C ) :  -0.2441 
B(  2-C ,  5-C ) :  -0.1133 B(  2-C ,  9-C ) :  -0.0722 B(  2-C , 10-O ) :   0.0718 
B(  2-C , 12-H ) :  -0.0903 B(  2-C , 13-H ) :   0.8588 B(  3-C ,  4-C ) :   0.9886 
B(  3-C ,  5-C ) :  -0.2441 B(  3-C ,  6-C ) :  -0.0688 B(  3-C ,  8-N ) :  -0.4058 
B(  3-C ,  9-C ) :  -0.1403 B(  3-C , 10-O ) :  -0.3593 B(  3-C , 13-H ) :  -0.0788 
B(  4-C ,  5-C ) :   0.7241 B(  4-C ,  6-C ) :  -0.1402 B(  4-C ,  7-O ) :  -0.3594 
B(  4-C ,  8-N ) :  -0.4060 B(  4-C ,  9-C ) :  -0.0692 B(  4-C , 14-H ) :  -0.0791 
B(  5-C ,  6-C ) :  -0.0720 B(  5-C ,  7-O ) :   0.0719 B(  5-C , 11-H ) :  -0.0903 
B(  5-C , 14-H ) :   0.8589 B(  6-C ,  7-O ) :   1.6473 B(  6-C ,  8-N ) :   0.8725 
B(  6-C ,  9-C ) :  -0.1212 B(  6-C , 15-H ) :  -0.0632 B(  7-O ,  8-N ) :  -0.2107 
B(  8-N ,  9-C ) :   0.8726 B(  8-N , 10-O ) :  -0.2106 B(  8-N , 15-H ) :   0.6972 
B(  9-C , 10-O ) :   1.6472 B(  9-C , 15-H ) :  -0.0633 


                     *******************************
                     * LOEWDIN POPULATION ANALYSIS *
                     *******************************

----------------------
LOEWDIN ATOMIC CHARGES
----------------------
   0 C :   -0.111901
   1 C :   -0.111901
   2 C :   -0.071543
   3 C :   -0.079323
   4 C :   -0.079327
   5 C :   -0.071542
   6 C :   -0.345415
   7 O :    0.116371
   8 N :    0.185803
   9 C :   -0.345416
  10 O :    0.116372
  11 H :    0.147419
  12 H :    0.147419
  13 H :    0.155829
  14 H :    0.155829
  15 H :    0.191324

-------------------------------
LOEWDIN REDUCED ORBITAL CHARGES
-------------------------------
  0 C s       :     2.764860  s :     2.764860
      pz      :     0.865773  p :     2.925710
      px      :     1.008627
      py      :     1.051311
      dz2     :     0.024959  d :     0.379195
      dxz     :     0.027435
      dyz     :     0.058506
      dx2y2   :     0.119810
      dxy     :     0.148486
      f0      :     0.003055  f :     0.042135
      f+1     :     0.003374
      f-1     :     0.004019
      f+2     :     0.005601
      f-2     :     0.002877
      f+3     :     0.015482
      f-3     :     0.007727

  1 C s       :     2.764860  s :     2.764860
      pz      :     0.865773  p :     2.925711
      px      :     1.008616
      py      :     1.051322
      dz2     :     0.024959  d :     0.379196
      dxz     :     0.027426
      dyz     :     0.058515
      dx2y2   :     0.119830
      dxy     :     0.148465
      f0      :     0.003055  f :     0.042135
      f+1     :     0.003374
      f-1     :     0.004019
      f+2     :     0.005599
      f-2     :     0.002879
      f+3     :     0.015482
      f-3     :     0.007727

  2 C s       :     2.756414  s :     2.756414
      pz      :     0.851898  p :     2.898298
      px      :     1.046854
      py      :     0.999545
      dz2     :     0.024049  d :     0.373593
      dxz     :     0.073843
      dyz     :     0.013589
      dx2y2   :     0.160613
      dxy     :     0.101499
      f0      :     0.003164  f :     0.043238
      f+1     :     0.004170
      f-1     :     0.003209
      f+2     :     0.001152
      f-2     :     0.007890
      f+3     :     0.015643
      f-3     :     0.008010

  3 C s       :     2.692938  s :     2.692938
      pz      :     0.849808  p :     2.832962
      px      :     0.977130
      py      :     1.006025
      dz2     :     0.036149  d :     0.495059
      dxz     :     0.056746
      dyz     :     0.071302
      dx2y2   :     0.172644
      dxy     :     0.158218
      f0      :     0.004011  f :     0.058364
      f+1     :     0.004600
      f-1     :     0.003978
      f+2     :     0.007908
      f-2     :     0.004260
      f+3     :     0.023266
      f-3     :     0.010341

  4 C s       :     2.692937  s :     2.692937
      pz      :     0.849808  p :     2.832964
      px      :     0.977119
      py      :     1.006037
      dz2     :     0.036149  d :     0.495061
      dxz     :     0.056739
      dyz     :     0.071309
      dx2y2   :     0.172662
      dxy     :     0.158201
      f0      :     0.004011  f :     0.058364
      f+1     :     0.004600
      f-1     :     0.003978
      f+2     :     0.007907
      f-2     :     0.004261
      f+3     :     0.023265
      f-3     :     0.010342

  5 C s       :     2.756414  s :     2.756414
      pz      :     0.851897  p :     2.898297
      px      :     1.046855
      py      :     0.999544
      dz2     :     0.024049  d :     0.373594
      dxz     :     0.073843
      dyz     :     0.013590
      dx2y2   :     0.160612
      dxy     :     0.101501
      f0      :     0.003164  f :     0.043238
      f+1     :     0.004170
      f-1     :     0.003209
      f+2     :     0.001152
      f-2     :     0.007890
      f+3     :     0.015643
      f-3     :     0.008010

  6 C s       :     2.729124  s :     2.729124
      pz      :     0.720957  p :     2.622687
      px      :     0.960481
      py      :     0.941249
      dz2     :     0.054131  d :     0.868865
      dxz     :     0.076905
      dyz     :     0.181170
      dx2y2   :     0.257348
      dxy     :     0.299312
      f0      :     0.008272  f :     0.124740
      f+1     :     0.005073
      f-1     :     0.010774
      f+2     :     0.010913
      f-2     :     0.018955
      f+3     :     0.026546
      f-3     :     0.044206

  7 O s       :     3.399987  s :     3.399987
      pz      :     1.294054  p :     4.410985
      px      :     1.615533
      py      :     1.501398
      dz2     :     0.008042  d :     0.066717
      dxz     :     0.001737
      dyz     :     0.012742
      dx2y2   :     0.022168
      dxy     :     0.022028
      f0      :     0.000429  f :     0.005940
      f+1     :     0.000207
      f-1     :     0.000869
      f+2     :     0.000496
      f-2     :     0.000339
      f+3     :     0.001825
      f-3     :     0.001776

  8 N s       :     2.923777  s :     2.923777
      pz      :     1.411259  p :     3.682632
      px      :     1.115949
      py      :     1.155425
      dz2     :     0.016019  d :     0.193521
      dxz     :     0.008805
      dyz     :     0.024508
      dx2y2   :     0.076828
      dxy     :     0.067362
      f0      :     0.001098  f :     0.014266
      f+1     :     0.001718
      f-1     :     0.001857
      f+2     :     0.000469
      f-2     :     0.001512
      f+3     :     0.002489
      f-3     :     0.005123

  9 C s       :     2.729123  s :     2.729123
      pz      :     0.720958  p :     2.622688
      px      :     0.960465
      py      :     0.941264
      dz2     :     0.054130  d :     0.868866
      dxz     :     0.076902
      dyz     :     0.181172
      dx2y2   :     0.257298
      dxy     :     0.299363
      f0      :     0.008272  f :     0.124740
      f+1     :     0.005072
      f-1     :     0.010775
      f+2     :     0.010915
      f-2     :     0.018953
      f+3     :     0.026559
      f-3     :     0.044194

 10 O s       :     3.399986  s :     3.399986
      pz      :     1.294053  p :     4.410984
      px      :     1.615549
      py      :     1.501381
      dz2     :     0.008042  d :     0.066717
      dxz     :     0.001736
      dyz     :     0.012744
      dx2y2   :     0.022170
      dxy     :     0.022026
      f0      :     0.000429  f :     0.005940
      f+1     :     0.000207
      f-1     :     0.000869
      f+2     :     0.000496
      f-2     :     0.000339
      f+3     :     0.001825
      f-3     :     0.001776

 11 H s       :     0.794201  s :     0.794201
      pz      :     0.012556  p :     0.058380
      px      :     0.029330
      py      :     0.016494

 12 H s       :     0.794201  s :     0.794201
      pz      :     0.012556  p :     0.058380
      px      :     0.029334
      py      :     0.016490

 13 H s       :     0.784811  s :     0.784811
      pz      :     0.012183  p :     0.059359
      px      :     0.010422
      py      :     0.036754

 14 H s       :     0.784812  s :     0.784812
      pz      :     0.012183  p :     0.059359
      px      :     0.010422
      py      :     0.036754

 15 H s       :     0.702160  s :     0.702160
      pz      :     0.031297  p :     0.106516
      px      :     0.059510
      py      :     0.015709


---------------------------------
LOEWDIN BOND ORDERS (THRESH 0.050000)
---------------------------------
B(  0-C ,  1-C ) :   1.5713 B(  0-C ,  2-C ) :   0.2356 B(  0-C ,  3-C ) :   0.1026 
B(  0-C ,  4-C ) :   0.2512 B(  0-C ,  5-C ) :   1.5566 B(  0-C , 11-H ) :   0.8294 
B(  0-C , 12-H ) :   0.0959 B(  0-C , 14-H ) :   0.0919 B(  1-C ,  2-C ) :   1.5566 
B(  1-C ,  3-C ) :   0.2512 B(  1-C ,  4-C ) :   0.1026 B(  1-C ,  5-C ) :   0.2356 
B(  1-C , 11-H ) :   0.0959 B(  1-C , 12-H ) :   0.8294 B(  1-C , 13-H ) :   0.0919 
B(  2-C ,  3-C ) :   1.4957 B(  2-C ,  4-C ) :   0.2181 B(  2-C ,  5-C ) :   0.1004 
B(  2-C ,  9-C ) :   0.1572 B(  2-C , 12-H ) :   0.0946 B(  2-C , 13-H ) :   0.8226 
B(  3-C ,  4-C ) :   1.3431 B(  3-C ,  5-C ) :   0.2181 B(  3-C ,  6-C ) :   0.2006 
B(  3-C ,  8-N ) :   0.1576 B(  3-C ,  9-C ) :   1.0602 B(  3-C , 10-O ) :   0.1488 
B(  3-C , 13-H ) :   0.0958 B(  4-C ,  5-C ) :   1.4957 B(  4-C ,  6-C ) :   1.0602 
B(  4-C ,  7-O ) :   0.1488 B(  4-C ,  8-N ) :   0.1576 B(  4-C ,  9-C ) :   0.2006 
B(  4-C , 14-H ) :   0.0958 B(  5-C ,  6-C ) :   0.1572 B(  5-C , 11-H ) :   0.0946 
B(  5-C , 14-H ) :   0.8226 B(  6-C ,  7-O ) :   2.6624 B(  6-C ,  8-N ) :   1.3804 
B(  6-C ,  9-C ) :   0.2051 B(  6-C , 15-H ) :   0.0802 B(  7-O ,  8-N ) :   0.1656 
B(  8-N ,  9-C ) :   1.3804 B(  8-N , 10-O ) :   0.1656 B(  8-N , 15-H ) :   0.8694 
B(  9-C , 10-O ) :   2.6624 B(  9-C , 15-H ) :   0.0802 

------------------------------------------
LOEWDIN REDUCED ORBITAL POPULATIONS PER MO
-------------------------------------------
THRESHOLD FOR PRINTING IS 0.1%%
                      0         1         2         3         4         5   
                 -19.21933 -19.21933 -14.46719 -10.41129 -10.41127 -10.31315
                   2.00000   2.00000   2.00000   2.00000   2.00000   2.00000
                  --------  --------  --------  --------  --------  --------
 2 C  s               0.0       0.0       0.0       0.0       0.0       1.3
 3 C  s               0.0       0.0       0.0       0.0       0.0      48.0
 4 C  s               0.0       0.0       0.0       0.0       0.0      47.9
 5 C  s               0.0       0.0       0.0       0.0       0.0       1.3
 6 C  s               0.0       0.0       0.0      48.7      50.1       0.0
 7 O  s              58.4      41.2       0.0       0.0       0.0       0.0
 8 N  s               0.0       0.0      99.4       0.0       0.0       0.0
 8 N  py              0.0       0.0       0.0       0.1       0.0       0.0
 8 N  dxy             0.0       0.0       0.0       0.2       0.0       0.0
 9 C  s               0.0       0.0       0.0      50.1      48.8       0.0
10 O  s              41.2      58.4       0.0       0.0       0.0       0.0

                      6         7         8         9        10        11   
                 -10.31266 -10.31140 -10.31139 -10.30992 -10.30941  -1.21534
                   2.00000   2.00000   2.00000   2.00000   2.00000   2.00000
                  --------  --------  --------  --------  --------  --------
 0 C  s               0.0       1.6       0.9      47.8      48.6       0.0
 0 C  dx2y2           0.0       0.0       0.0       0.1       0.1       0.0
 1 C  s               0.0       1.6       0.9      47.8      48.6       0.0
 1 C  dx2y2           0.0       0.0       0.0       0.1       0.1       0.0
 2 C  s               2.9      46.5      45.5       1.6       0.9       0.2
 2 C  px              0.0       0.0       0.0       0.1       0.0       0.3
 3 C  s              46.3       1.3       3.0       0.0       0.0       1.7
 3 C  px              0.0       0.1       0.0       0.0       0.0       1.9
 3 C  dz2             0.0       0.0       0.1       0.0       0.0       0.2
 3 C  dx2y2           0.1       0.0       0.0       0.0       0.0       0.1
 4 C  s              46.4       1.3       3.0       0.0       0.0       1.7
 4 C  px              0.0       0.1       0.0       0.0       0.0       1.9
 4 C  dz2             0.0       0.0       0.1       0.0       0.0       0.2
 4 C  dx2y2           0.1       0.0       0.0       0.0       0.0       0.1
 5 C  s               3.0      46.5      45.6       1.6       0.9       0.2
 5 C  px              0.0       0.0       0.0       0.1       0.0       0.3
 6 C  s               0.0       0.0       0.0       0.0       0.0      13.0
 6 C  px              0.0       0.0       0.0       0.0       0.0       1.2
 6 C  py              0.0       0.0       0.0       0.0       0.0       1.1
 6 C  dz2             0.0       0.0       0.0       0.0       0.0       1.0
 6 C  dx2y2           0.0       0.0       0.0       0.0       0.0       1.0
 6 C  dxy             0.0       0.0       0.0       0.0       0.0       0.1
 6 C  f+3             0.0       0.0       0.0       0.0       0.0       0.4
 7 O  s               0.0       0.0       0.0       0.0       0.0      18.0
 7 O  px              0.0       0.0       0.0       0.0       0.0       0.2
 7 O  py              0.0       0.0       0.0       0.0       0.0       2.6
 7 O  dx2y2           0.0       0.0       0.0       0.0       0.0       0.1
 8 N  s               0.0       0.0       0.0       0.0       0.0       9.5
 8 N  px              0.0       0.0       0.0       0.0       0.0       0.9
 8 N  dz2             0.0       0.0       0.0       0.0       0.0       0.2
 8 N  dx2y2           0.0       0.0       0.0       0.0       0.0       0.3
 9 C  s               0.0       0.0       0.0       0.0       0.0      13.0
 9 C  px              0.0       0.0       0.0       0.0       0.0       1.2
 9 C  py              0.0       0.0       0.0       0.0       0.0       1.1
 9 C  dz2             0.0       0.0       0.0       0.0       0.0       1.0
 9 C  dx2y2           0.0       0.0       0.0       0.0       0.0       1.0
 9 C  dxy             0.0       0.0       0.0       0.0       0.0       0.1
 9 C  f+3             0.0       0.0       0.0       0.0       0.0       0.4
10 O  s               0.0       0.0       0.0       0.0       0.0      18.0
10 O  px              0.0       0.0       0.0       0.0       0.0       0.2
10 O  py              0.0       0.0       0.0       0.0       0.0       2.6
10 O  dx2y2           0.0       0.0       0.0       0.0       0.0       0.1
15 H  s               0.0       0.0       0.0       0.0       0.0       1.7
15 H  px              0.0       0.0       0.0       0.0       0.0       0.2

                     12        13        14        15        16        17   
                  -1.19597  -1.10029  -1.02807  -0.93016  -0.91963  -0.80880
                   2.00000   2.00000   2.00000   2.00000   2.00000   2.00000
                  --------  --------  --------  --------  --------  --------
 0 C  s               0.0       0.2       9.7      11.7       3.6       2.6
 0 C  px              0.0       0.1       2.1       0.2       1.7       0.1
 0 C  py              0.0       0.0       0.6       1.4       4.7       2.7
 0 C  dz2             0.0       0.0       0.5       0.2       0.1       0.0
 0 C  dx2y2           0.0       0.0       0.0       0.5       0.7       0.1
 0 C  dxy             0.0       0.0       0.0       0.0       0.7       0.1
 1 C  s               0.0       0.2       9.7      11.7       3.6       2.6
 1 C  px              0.0       0.1       2.1       0.2       1.7       0.1
 1 C  py              0.0       0.0       0.6       1.4       4.7       2.7
 1 C  dz2             0.0       0.0       0.5       0.2       0.1       0.0
 1 C  dx2y2           0.0       0.0       0.0       0.5       0.7       0.1
 1 C  dxy             0.0       0.0       0.0       0.0       0.7       0.1
 2 C  s               0.0       0.4       9.8       0.5      15.5       0.9
 2 C  px              0.1       0.1       0.0       6.4       0.0       4.7
 2 C  py              0.0       0.2       2.8       0.1       0.2       0.0
 2 C  dz2             0.0       0.0       0.5       0.0       0.3       0.0
 2 C  dx2y2           0.0       0.0       0.0       0.0       0.4       0.0
 2 C  dxy             0.0       0.0       0.0       1.4       0.0       0.2
 2 C  f-3             0.0       0.0       0.1       0.0       0.1       0.0
 3 C  s               0.3       2.9       9.0       7.2       4.9       2.9
 3 C  px              0.5       0.6       3.2       1.5       1.3       2.8
 3 C  py              0.7       1.2       0.4       1.3       5.8       2.0
 3 C  dz2             0.1       0.3       0.5       0.1       0.1       0.0
 3 C  dx2y2           0.1       0.1       0.0       0.6       1.1       0.8
 3 C  dxy             0.2       0.3       0.0       0.0       0.7       0.6
 3 C  f+3             0.0       0.0       0.0       0.0       0.0       0.2
 3 C  f-3             0.0       0.0       0.1       0.1       0.0       0.0
 4 C  s               0.3       2.9       9.0       7.2       4.9       2.9
 4 C  px              0.5       0.6       3.2       1.5       1.3       2.8
 4 C  py              0.7       1.2       0.4       1.3       5.8       2.0
 4 C  dz2             0.1       0.3       0.5       0.1       0.1       0.0
 4 C  dx2y2           0.1       0.1       0.0       0.6       1.1       0.8
 4 C  dxy             0.2       0.3       0.0       0.0       0.7       0.6
 4 C  f+3             0.0       0.0       0.0       0.0       0.0       0.2
 4 C  f-3             0.0       0.0       0.1       0.1       0.0       0.0
 5 C  s               0.0       0.4       9.8       0.5      15.5       0.9
 5 C  px              0.1       0.1       0.0       6.4       0.0       4.7
 5 C  py              0.0       0.2       2.8       0.1       0.2       0.0
 5 C  dz2             0.0       0.0       0.5       0.0       0.3       0.0
 5 C  dx2y2           0.0       0.0       0.0       0.0       0.4       0.0
 5 C  dxy             0.0       0.0       0.0       1.4       0.0       0.2
 5 C  f-3             0.0       0.0       0.1       0.0       0.1       0.0
 6 C  s               8.4       1.1       0.0       0.4       0.4       6.5
 6 C  px              0.9       0.0       3.2       5.7       1.6       1.2
 6 C  py              6.8      16.9       0.4       0.0       0.2       4.0
 6 C  dz2             0.5       0.2       0.0       0.0       0.0       0.0
 6 C  dx2y2           0.8       0.0       0.2       0.1       0.5       1.8
 6 C  dxy             0.7       1.6       0.7       1.2       0.0       0.3
 6 C  f-1             0.1       0.3       0.0       0.0       0.0       0.0
 6 C  f+3             0.2       0.0       0.0       0.0       0.0       0.0
 7 O  s              24.0       8.4       0.0       0.1       0.4       3.5
 7 O  px              0.4       0.1       0.1       0.2       0.1       0.3
 7 O  py              2.7       0.5       0.0       0.0       0.1       2.0
 7 O  dx2y2           0.1       0.0       0.0       0.0       0.0       0.0
 8 N  s               0.0      23.1       4.6       4.9       0.0       0.0
 8 N  px              0.0       1.1       0.4       3.5       0.0       0.0
 8 N  py              4.2       0.0       0.0       0.0       0.1      13.4
 8 N  dz2             0.0       0.2       0.0       0.0       0.0       0.0
 8 N  dx2y2           0.0       0.1       0.0       0.0       0.0       0.0
 8 N  dxy             0.1       0.0       0.0       0.0       0.1       1.8
 9 C  s               8.4       1.1       0.0       0.4       0.4       6.5
 9 C  px              0.9       0.0       3.2       5.7       1.6       1.2
 9 C  py              6.8      16.9       0.4       0.0       0.2       4.0
 9 C  dz2             0.5       0.2       0.0       0.0       0.0       0.0
 9 C  dx2y2           0.8       0.0       0.2       0.1       0.5       1.8
 9 C  dxy             0.7       1.6       0.7       1.2       0.0       0.3
 9 C  f-1             0.1       0.3       0.0       0.0       0.0       0.0
 9 C  f+3             0.2       0.0       0.0       0.0       0.0       0.0
10 O  s              24.0       8.4       0.0       0.1       0.4       3.5
10 O  px              0.4       0.1       0.1       0.2       0.1       0.3
10 O  py              2.7       0.5       0.0       0.0       0.1       2.0
10 O  dx2y2           0.1       0.0       0.0       0.0       0.0       0.0
11 H  s               0.0       0.0       1.2       2.4       0.8       1.2
11 H  px              0.0       0.0       0.1       0.2       0.1       0.1
12 H  s               0.0       0.0       1.2       2.4       0.8       1.2
12 H  px              0.0       0.0       0.1       0.2       0.1       0.1
13 H  s               0.0       0.0       1.2       0.1       3.4       0.3
13 H  py              0.0       0.0       0.1       0.0       0.3       0.0
14 H  s               0.0       0.0       1.2       0.1       3.4       0.3
14 H  py              0.0       0.0       0.1       0.0       0.3       0.0
15 H  s               0.0       3.6       1.2       3.1       0.0       0.0
15 H  px              0.0       0.7       0.2       0.5       0.0       0.0
15 H  py              0.0       0.0       0.0       0.0       0.0       0.1

                     18        19        20        21        22        23   
                  -0.80383  -0.74243  -0.72063  -0.65331  -0.64080  -0.61297
                   2.00000   2.00000   2.00000   2.00000   2.00000   2.00000
                  --------  --------  --------  --------  --------  --------
 0 C  s               4.3       3.5       0.1       0.3       2.4       0.1
 0 C  px              5.1       0.2       0.1      10.4       2.6       1.5
 0 C  py              3.1       3.3       5.4       0.0       1.7       6.8
 0 C  dx2y2           0.6       0.1       0.0       0.0       0.2       0.0
 0 C  dxy             0.0       0.0       0.3       0.1       1.1       0.0
 1 C  s               4.3       3.5       0.1       0.3       2.4       0.1
 1 C  px              5.1       0.2       0.1      10.4       2.6       1.5
 1 C  py              3.1       3.3       5.4       0.0       1.7       6.8
 1 C  dx2y2           0.6       0.1       0.0       0.0       0.2       0.0
 1 C  dxy             0.0       0.0       0.3       0.1       1.1       0.0
 2 C  s               4.7       0.1       4.1       0.2       1.9       0.1
 2 C  px              1.9       8.3       0.7       2.2       1.6       1.7
 2 C  py              0.2       0.0       8.4       2.7       0.5       1.7
 2 C  dx2y2           0.1       0.0       0.1       0.3       1.1       0.0
 2 C  dxy             0.4       0.3       0.2       0.1       0.1       0.4
 2 C  f+3             0.0       0.0       0.0       0.0       0.0       0.2
 3 C  s               0.1       2.0       1.5       0.9       0.2       0.2
 3 C  px              8.6       0.5       1.2       1.3       5.5       0.2
 3 C  py              0.9       2.3       8.4       1.5       0.1       7.0
 3 C  dx2y2           0.1       0.1       0.6       0.7       0.1       0.5
 3 C  dxy             0.0       0.1       0.5       0.0       2.8       0.3
 4 C  s               0.1       2.0       1.5       0.9       0.2       0.2
 4 C  px              8.6       0.5       1.2       1.3       5.5       0.2
 4 C  py              0.9       2.3       8.4       1.5       0.1       7.0
 4 C  dx2y2           0.1       0.1       0.6       0.7       0.1       0.5
 4 C  dxy             0.0       0.1       0.5       0.0       2.8       0.3
 5 C  s               4.7       0.1       4.1       0.2       1.9       0.1
 5 C  px              1.9       8.3       0.7       2.2       1.6       1.7
 5 C  py              0.2       0.0       8.4       2.7       0.5       1.7
 5 C  dx2y2           0.1       0.0       0.1       0.3       1.1       0.0
 5 C  dxy             0.4       0.3       0.2       0.1       0.1       0.4
 5 C  f+3             0.0       0.0       0.0       0.0       0.0       0.2
 6 C  s               1.1       1.6       1.1       0.1       0.5       1.6
 6 C  px              1.6       5.8       0.5       3.7      10.0       0.2
 6 C  py              0.6       2.8       0.3       1.4       0.5       1.5
 6 C  dz2             0.0       0.1       0.1       0.0       0.0       0.2
 6 C  dx2y2           0.2       0.1       0.1       1.3       0.0       0.3
 6 C  dxy             0.6       0.2       0.2       0.1       0.0       0.9
 6 C  f-3             0.0       0.0       0.1       0.2       0.0       0.0
 7 O  s               0.1       0.9       0.4       0.4       0.1       4.7
 7 O  px              0.2       0.8       0.4       2.0       4.9       3.6
 7 O  py              0.0       2.0       0.3       0.1       0.0      12.0
 7 O  dx2y2           0.0       0.2       0.0       0.0       0.1       0.1
 7 O  dxy             0.0       0.0       0.0       0.1       0.2       0.1
 8 N  s               2.3       0.0       0.2       0.1       0.0       0.1
 8 N  px             12.0       0.0       9.2      18.7       0.0       0.1
 8 N  py              0.0      21.4       0.0       0.0       7.1       0.0
 8 N  dx2y2           0.0       0.0       0.2       1.2       0.0       0.2
 8 N  dxy             0.0       0.7       0.0       0.0       0.0       0.0
 9 C  s               1.1       1.6       1.1       0.1       0.5       1.6
 9 C  px              1.6       5.8       0.5       3.7      10.0       0.2
 9 C  py              0.6       2.8       0.3       1.4       0.5       1.5
 9 C  dz2             0.0       0.1       0.1       0.0       0.0       0.2
 9 C  dx2y2           0.2       0.1       0.1       1.3       0.0       0.3
 9 C  dxy             0.6       0.2       0.2       0.1       0.0       0.9
 9 C  f-3             0.0       0.0       0.1       0.2       0.0       0.0
10 O  s               0.1       0.9       0.4       0.4       0.1       4.7
10 O  px              0.2       0.8       0.4       2.0       4.9       3.6
10 O  py              0.0       2.0       0.3       0.1       0.0      12.0
10 O  dx2y2           0.0       0.2       0.0       0.0       0.1       0.1
10 O  dxy             0.0       0.0       0.0       0.1       0.2       0.1
11 H  s               2.4       2.7       0.2       3.8       5.3       2.3
11 H  px              0.1       0.2       0.0       0.1       0.2       0.1
11 H  py              0.2       0.0       0.0       0.1       0.0       0.0
12 H  s               2.4       2.7       0.2       3.8       5.3       2.3
12 H  px              0.1       0.2       0.0       0.1       0.2       0.1
12 H  py              0.2       0.0       0.0       0.1       0.0       0.0
13 H  s               1.6       0.0       7.0       0.8       1.8       1.1
13 H  py              0.2       0.0       0.5       0.0       0.1       0.0
14 H  s               1.6       0.0       7.0       0.8       1.8       1.1
14 H  py              0.2       0.0       0.5       0.0       0.1       0.0
15 H  s               6.5       0.0       4.2       9.3       0.0       0.2
15 H  px              0.6       0.0       0.3       0.3       0.0       0.0
15 H  py              0.0       0.3       0.0       0.0       0.1       0.0

                     24        25        26        27        28        29   
                  -0.60394  -0.57911  -0.57867  -0.56179  -0.56099  -0.52318
                   2.00000   2.00000   2.00000   2.00000   2.00000   2.00000
                  --------  --------  --------  --------  --------  --------
 0 C  s               0.0       0.5       0.0       0.0       0.2       0.0
 0 C  pz              0.6       0.0       0.0       0.0       0.0       0.1
 0 C  px              0.0       0.7       4.1       1.2       6.1       0.0
 0 C  py              0.0       0.1       7.5       0.1       3.1       0.0
 0 C  dx2y2           0.0       1.3       0.1       0.0       0.5       0.0
 0 C  dxy             0.0       0.0       0.0       0.2       0.0       0.0
 0 C  f+3             0.0       0.3       0.1       0.1       0.1       0.0
 1 C  s               0.0       0.5       0.0       0.0       0.2       0.0
 1 C  pz              0.6       0.0       0.0       0.0       0.0       0.1
 1 C  px              0.0       0.7       4.1       1.2       6.1       0.0
 1 C  py              0.0       0.1       7.5       0.1       3.1       0.0
 1 C  dx2y2           0.0       1.3       0.1       0.0       0.5       0.0
[...]
 7 O  f-1             0.0       0.1       0.9       1.9       3.1       0.0
 7 O  f+2             3.7       0.0       0.0       0.0       0.0       0.0
 7 O  f-2             2.8       0.0       0.0       0.0       0.0       0.0
 7 O  f+3             0.0       0.1       6.2       0.0       1.5       5.0
 7 O  f-3             0.0       2.4       3.5       7.6       3.0      12.9
 8 N  s               0.0       0.0       0.4       0.2       0.0       0.0
 8 N  px              0.0       0.0       0.1       0.1       0.0       0.0
 8 N  py              0.0       0.2       0.0       0.0       0.1       0.6
 8 N  dx2y2           0.0       0.0       0.2       0.5       0.0       0.0
 8 N  dxy             0.0       0.7       0.0       0.0       0.0       1.9
 8 N  f+1             0.0       0.0       0.1       0.2       0.0       0.0
 8 N  f-1             0.0       0.4       0.0       0.0       0.0       0.0
 8 N  f+3             0.0       0.0       0.3       1.3       0.0       0.0
 8 N  f-3             0.0       5.6       0.0       0.0       0.1       1.9
 9 C  s               0.0       0.2       0.8       0.9       1.9       0.1
 9 C  pz              0.7       0.0       0.0       0.0       0.0       0.0
 9 C  px              0.0       0.2       0.5       0.3       0.2       1.0
 9 C  py              0.0       0.1       0.4       1.1       1.0       0.1
 9 C  dxz             0.2       0.0       0.0       0.0       0.0       0.0
 9 C  dyz             1.1       0.0       0.0       0.0       0.0       0.0
 9 C  dx2y2           0.0       0.2       0.5       0.6       0.3       0.8
 9 C  dxy             0.0       0.6       1.3       0.4       0.0       1.3
 9 C  f+1             0.0       0.1       0.1       0.0       0.0       0.2
 9 C  f-1             0.0       0.0       0.1       0.2       0.2       0.0
 9 C  f+3             0.0       1.7       0.5       0.3       0.4       1.9
 9 C  f-3             0.0       5.4       0.1       1.2       0.6       2.9
10 O  s               0.0       0.0       0.3       0.6       0.8       0.1
10 O  pz              1.0       0.0       0.0       0.0       0.0       0.0
10 O  px              0.0       0.2       1.6       0.4       0.0       2.7
10 O  py              0.0       0.1       0.1       1.3       1.4       0.2
10 O  dz2             0.0       0.2       4.7       5.7       9.5       0.6
10 O  dxz             4.4       0.0       0.0       0.0       0.0       0.0
10 O  dyz            32.0       0.0       0.0       0.0       0.0       0.0
10 O  dx2y2           0.0      11.5       0.4      25.3      18.9       2.7
10 O  dxy             0.0      19.0      25.5       0.4       5.9      11.4
10 O  f0              3.8       0.0       0.0       0.0       0.0       0.0
10 O  f+1             0.0       0.0       1.1       0.0       0.2       1.1
10 O  f-1             0.0       0.1       0.9       1.9       3.1       0.0
10 O  f+2             3.7       0.0       0.0       0.0       0.0       0.0
10 O  f-2             2.8       0.0       0.0       0.0       0.0       0.0
10 O  f+3             0.0       0.1       6.2       0.0       1.5       5.0
10 O  f-3             0.0       2.4       3.5       7.6       3.0      12.9
15 H  s               0.0       0.0       0.0       0.1       0.0       0.0

                    360       361       362       363       364       365   
                  22.28311  22.67374  22.74725  22.85627  23.01102  23.35847
                   0.00000   0.00000   0.00000   0.00000   0.00000   0.00000
                  --------  --------  --------  --------  --------  --------
 0 C  s              24.5      22.1      36.2       2.1      11.9       0.1
 0 C  py              0.0       0.1       0.2       0.0       0.0       0.0
 1 C  s              24.5      22.1      36.2       2.1      11.9       0.1
 1 C  py              0.0       0.1       0.2       0.0       0.0       0.0
 2 C  s              13.5      24.1      12.1      11.1      35.2       0.4
 2 C  px              0.1       0.1       0.1       0.3       0.0       0.0
 3 C  s              10.0       2.9       0.5      31.6       1.1       4.8
 3 C  px              0.2       0.0       0.1       0.1       0.1       0.1
 3 C  py              0.0       0.0       0.1       0.1       0.2       0.0
 3 C  dxy             0.1       0.0       0.1       0.0       0.2       0.0
 4 C  s              10.0       2.9       0.5      31.6       1.1       4.8
 4 C  px              0.2       0.0       0.1       0.1       0.1       0.1
 4 C  py              0.0       0.0       0.1       0.1       0.2       0.0
 4 C  dxy             0.1       0.0       0.1       0.0       0.2       0.0
 5 C  s              13.5      24.1      12.1      11.1      35.2       0.4
 5 C  px              0.1       0.1       0.1       0.3       0.0       0.0
 6 C  s               0.9       0.0       0.2       4.1       0.8      43.1
 6 C  px              0.2       0.0       0.0       0.1       0.0       0.0
 7 O  s               0.0       0.0       0.0       0.1       0.0       0.4
 7 O  py              0.0       0.0       0.0       0.0       0.0       0.3
 8 N  s               0.2       0.0       0.0       0.2       0.0       0.3
 8 N  dx2y2           0.0       0.0       0.0       0.0       0.0       0.1
 9 C  s               0.9       0.0       0.2       4.1       0.8      43.1
 9 C  px              0.2       0.0       0.0       0.1       0.0       0.0
10 O  s               0.0       0.0       0.0       0.1       0.0       0.4
10 O  py              0.0       0.0       0.0       0.0       0.0       0.3

                    366       367       368       369       370   
                  23.59406  23.74367  32.41213  44.00217  44.03733
                   0.00000   0.00000   0.00000   0.00000   0.00000
                  --------  --------  --------  --------  --------
 0 C  s               0.2       0.9       0.0       0.0       0.0
 1 C  s               0.2       0.9       0.0       0.0       0.0
 2 C  s               0.4       1.1       0.0       0.0       0.0
 3 C  s              10.3      37.1       0.0       0.0       0.0
 3 C  py              0.3       0.1       0.0       0.0       0.0
 3 C  dx2y2           0.2       0.1       0.0       0.0       0.0
 4 C  s              10.3      37.1       0.0       0.0       0.0
 4 C  py              0.3       0.1       0.0       0.0       0.0
 4 C  dx2y2           0.2       0.1       0.0       0.0       0.0
 5 C  s               0.4       1.1       0.0       0.0       0.0
 6 C  s              37.3       9.9       0.0       0.0       0.0
 7 O  s               0.3       0.1       0.0      49.9      49.9
 7 O  py              0.2       0.1       0.0       0.0       0.0
 8 N  s               0.0       0.0      99.6       0.0       0.0
 8 N  py              0.5       0.1       0.0       0.0       0.0
 8 N  dxy             0.2       0.0       0.0       0.0       0.0
 9 C  s              37.3       9.9       0.0       0.0       0.0
10 O  s               0.3       0.1       0.0      49.9      49.9
10 O  py              0.2       0.1       0.0       0.0       0.0


                      *****************************
                      * MAYER POPULATION ANALYSIS *
                      *****************************

  NA   - Mulliken gross atomic population
  ZA   - Total nuclear charge
  QA   - Mulliken gross atomic charge
  VA   - Mayer's total valence
  BVA  - Mayer's bonded valence
  FA   - Mayer's free valence

  ATOM       NA         ZA         QA         VA         BVA        FA
  0 C      6.0827     6.0000    -0.0827     3.9088     3.9088    -0.0000
  1 C      6.0828     6.0000    -0.0828     3.9088     3.9088     0.0000
  2 C      6.1858     6.0000    -0.1858     3.9760     3.9760     0.0000
  3 C      5.9497     6.0000     0.0503     3.5617     3.5617     0.0000
  4 C      5.9497     6.0000     0.0503     3.5615     3.5615     0.0000
  5 C      6.1858     6.0000    -0.1858     3.9759     3.9759    -0.0000
  6 C      5.7965     6.0000     0.2035     4.3905     4.3905    -0.0000
  7 O      8.2867     8.0000    -0.2867     2.2483     2.2483    -0.0000
  8 N      7.2098     7.0000    -0.2098     3.0917     3.0917    -0.0000
  9 C      5.7964     6.0000     0.2036     4.3904     4.3904     0.0000
 10 O      8.2867     8.0000    -0.2867     2.2483     2.2483     0.0000
 11 H      0.8655     1.0000     0.1345     0.9689     0.9689    -0.0000
 12 H      0.8655     1.0000     0.1345     0.9689     0.9689     0.0000
 13 H      0.8472     1.0000     0.1528     0.9716     0.9716    -0.0000
 14 H      0.8472     1.0000     0.1528     0.9716     0.9716    -0.0000
 15 H      0.7622     1.0000     0.2378     0.9639     0.9639    -0.0000

  Mayer bond orders larger than 0.100000
B(  0-C ,  1-C ) :   1.4124 B(  0-C ,  5-C ) :   1.4045 B(  0-C , 11-H ) :   0.9728 
B(  1-C ,  2-C ) :   1.4045 B(  1-C , 12-H ) :   0.9728 B(  2-C ,  3-C ) :   1.4082 
B(  2-C , 13-H ) :   0.9670 B(  3-C ,  4-C ) :   1.3233 B(  3-C ,  9-C ) :   0.9189 
B(  3-C , 10-O ) :  -0.1190 B(  4-C ,  5-C ) :   1.4081 B(  4-C ,  6-C ) :   0.9189 
B(  4-C ,  7-O ) :  -0.1190 B(  5-C , 14-H ) :   0.9670 B(  6-C ,  7-O ) :   2.2370 
B(  6-C ,  8-N ) :   1.1442 B(  8-N ,  9-C ) :   1.1442 B(  8-N , 15-H ) :   0.8991 
B(  9-C , 10-O ) :   2.2369 

-------
TIMINGS
-------

Total SCF time: 0 days 0 hours 2 min 16 sec 

Total time                  ....     136.583 sec
Sum of individual times     ....     134.334 sec  ( 98.4%)

SCF preparation             ....       0.058 sec  (  0.0%)
Fock matrix formation       ....     133.633 sec  ( 97.8%)
  Startup                   ....       0.005 sec  (  0.0% of F)
  Split-RI-J                ....       5.464 sec  (  4.1% of F)
  Chain of spheres X        ....     119.549 sec  ( 89.5% of F)
  XC integration            ....      10.801 sec  (  8.1% of F)
    Basis function eval.    ....       2.484 sec  ( 23.0% of XC)
    Density eval.           ....       2.494 sec  ( 23.1% of XC)
    XC-Functional eval.     ....       2.506 sec  ( 23.2% of XC)
    XC-Potential eval.      ....       3.209 sec  ( 29.7% of XC)
Diagonalization             ....       0.000 sec  (  0.0%)
Density matrix formation    ....       0.022 sec  (  0.0%)
Total Energy calculation    ....       0.005 sec  (  0.0%)
Population analysis         ....       0.233 sec  (  0.2%)
Orbital Transformation      ....       0.039 sec  (  0.0%)
Orbital Orthonormalization  ....       0.000 sec  (  0.0%)
DIIS solution               ....       0.132 sec  (  0.1%)
  MO trafo                  ....       0.000 sec  (  0.0 % of DIIS)
  Orb grad                  ....       0.000 sec  (  0.0 % of DIIS)
  Energy W gradient         ....       0.000 sec  (  0.0 % of DIIS)
  DIIS error                ....       0.019 sec  ( 14.7 % of DIIS)
  DIIS work                 ....       0.092 sec  ( 69.8 % of DIIS)
  Form Q                    ....       0.000 sec  (  0.0 % of DIIS)
  Form QpQm                 ....       0.000 sec  (  0.0 % of DIIS)
  Exp/Cayley                ....       0.000 sec  (  0.0 % of DIIS)
  Orb update                ....       0.000 sec  (  0.0 % of DIIS)
  Wake-sleep                ....       0.001 sec  (  0.6 % of DIIS)
SOSCF solution              ....       0.076 sec  (  0.1%)
  MO trafo                  ....       0.042 sec  ( 54.3 % of SOSCF)
  Orb grad                  ....       0.000 sec  (  0.5 % of SOSCF)
  Rot update                ....       0.002 sec  (  2.3 % of SOSCF)
  Step                      ....       0.033 sec  ( 42.8 % of SOSCF)
Grid generation             ....       0.136 sec  (  0.1%)
Finished LeanSCF after 136.6 sec

Maximum memory used throughout the entire LEANSCF-calculation: 54.6 MB
------------------   -----------------
gCP correction             0.007849167
------------------   -----------------

-------------------------   --------------------
FINAL SINGLE POINT ENERGY      -513.133909849459
-------------------------   --------------------


------------------------------------------------------------------------------
                              ORCA PROPERTY CALCULATIONS
------------------------------------------------------------------------------

GBWName                                 ... sp.gbw
Number of atoms                         ...     16
Number of basis functions               ...    371
Max core memory                         ...   1024 MB

Electric properties:
Dipole moment                           ... YES
Quadrupole moment                       ...  NO
Static polarizability (Dipole/Dipole)   ...  NO
Static polarizability (Dipole/Quad.)    ...  NO
Static polarizability (Quad./Quad.)     ...  NO
Static polarizability (Velocity)        ...  NO

Atomic electric properties:
Dipole moment                           ...  NO
Quadrupole moment                       ...  NO
Static polarizability                   ...  NO

Choice of electric origin               ... Center of mass
Position of electric origin             ...    -0.002692     0.000013    -0.000031

General magnetic properties:
Magnetizability                         ...  NO

EPR properties:
g-Tensor (aka g-matrix)                 ...  NO
Zero-Field splitting spin-orbit         ...  NO
Zero-field splitting spin-spin          ...  NO
Hyperfine couplings                     ...  NO (   0 nuclei)
Quadrupole couplings                    ...  NO (   0 nuclei)
Contact density                         ...  NO (   0 nuclei)

NMR properties:
Chemical shifts                         ...  NO (   0 nuclei)
Spin-rotation constants                 ...  NO (   0 nuclei)
Spin-spin couplings                     ...  NO (   0 nuclei,    0 pairs)

Choice of magnetic origin               ... GIAO
Position of magnetic origin             ...     0.000000     0.000000     0.000000

Properties with geometric perturbations:
SCF Hessian                             ...  NO
IR spectrum                             ...  NO
VCD spectrum                            ...  NO
X-ray spectroscopy properties:
SCF XES/XAS/RIXS spectra                ...  NO


-------------
DIPOLE MOMENT
-------------

Method             : SCF
Type of density    : Electron Density
Multiplicity       :   1
Irrep              :   0
Energy             :  -513.1417590168590550 Eh
Relativity type    : 
Basis              : AO
                                X                 Y                 Z
Electronic contribution:      5.228803009       0.000461989       0.000183071
Nuclear contribution   :     -6.391634225      -0.000567844      -0.000230113
                        -----------------------------------------
Total Dipole Moment    :     -1.162831216      -0.000105856      -0.000047042
                        -----------------------------------------
Magnitude (a.u.)       :      1.162831221
Magnitude (Debye)      :      2.955682073



--------------------
Rotational spectrum 
--------------------
 
Rotational constants in cm-1:             0.058066             0.040149             0.023736 
Rotational constants in MHz :          1740.779016          1203.621828           711.601352 

Dipole components along the rotational axes: 
x,y,z [a.u.] :    -1.162831    -0.000006    -0.000005 
x,y,z [Debye]:    -2.955682    -0.000014    -0.000014 

 

Dipole moment calculation done in   0.0 sec 

Maximum memory used throughout the entire PROP-calculation: 36.3 MB

--------------------------------
SUGGESTED CITATIONS FOR THIS RUN
--------------------------------

Below you find a list of papers that are relevant to this ORCA run
We neither can nor want to force you to cite these papers, but we appreciate if you do
You receive ORCA, which is the product of decades of hard work by many enthusiastic individuals, for free
The only thing we kindly ask in return is that you cite our papers,
We deeply appreciate it, if you show your appreciation for ORCA by not just citing the generic ORCA reference.

Please note that relegating all ORCA citations to the supporting information does *not* help us.
SI sections are not indexed - citations you put there will not count into any citation statistics
But we need these citations in order to attract the funding resources that allow us to do what we are doing

Therefore, if you are a happy ORCA user, please consider citing a few of the papers listed below in the main body of your paper

In addition to the list printed below, the program has created the file sp.bibtex that contains the list in bibtex format
You can import this file easily into all common literature databanks and citation aid programs


List of essential papers. We consider these as the minimum necessary citations

  1. Neese,F.
     Software update: the ORCA program system, version 5.0
     WIRES Comput. Molec. Sci., 2022 12(1)e1606
     doi.org/10.1002/wcms.1606

List of papers to cite with high priority. The work reported in these papers was absolutely
necessary for this run to complete.
Our perspective: the developers of density functionals and basis sets usually get cited in chemistry papers
Good! But without the algorithms to do something with them, the functionals or basis sets would not do anything.
Hence, in our opinion, the algorithm design and method developments papers are equally worthy of getting cited

  1. Neese,F.
     An improvement of the resolution of the identity approximation for the formation of the Coulomb matrix
     J. Comp. Chem., 2003 24(14)1740-1747
     doi.org/10.1002/jcc.10318
  2. Neese,F.; Wennmohs,F.; Hansen,A.; Becker,U.
     Efficient, approximate and parallel Hartree-Fock and hybrid DFT calculations. A 'chain-of-spheres' algorithm for the Hartree-Fock exchange
     Chem. Phys., 2009 356(1-3)98-109
     doi.org/10.1016/j.chemphys.2008.10.036
  3. Helmich-Paris,B.; de Souza,B.; Neese,F.; Izsák,R.
     An improved chain of spheres for exchange algorithm
     J. Chem. Phys., 2021 155 104109
     doi.org/doi: 10.1063/5.0058766.
  4. Neese,F.
     The SHARK Integral Generation and Digestion System
     J. Comp. Chem., 2022  1-16
     doi.org/10.1002/jcc.26942

List of suggested additional citations. These are papers that are important in the 'surrounding' of 
of this run, or papers that preceded the highly important papers. If you like your results we are grateful for a citation.

  1. Izsak,R.; Neese,F.
     An overlap fitted chain of spheres exchange method
     J. Chem. Phys., 2011 135 144105
     doi.org/10.1063/1.3646921
  2. Izsak,R.; Hansen,A.; Neese,F.
     The resolution of identity and chain of spheres approximations for the LPNO-CCSD singles Fock term
     Molec. Phys., 2012 110 2413-2417
     doi.org/10.1080/00268976.2012.687466
  3. Neese,F.
     The ORCA program system
     WIRES Comput. Molec. Sci., 2012 2(1)73-78
     doi.org/10.1002/wcms.81
  4. Izsak,R.; Neese,F.; Klopper,W.
     Robust fitting techniques in the chain of spheres approximation to the Fock exchange: The role of the complementary space
     J. Chem. Phys., 2013 139 
     doi.org/10.1063/1.4819264
  5. Neese,F.
     Software update: the ORCA program system, version 4.0
     WIRES Comput. Molec. Sci., 2018 8(1)1-6
     doi.org/10.1002/wcms.1327
  6. Neese,F.; Wennmohs,F.; Becker,U.; Riplinger,C.
     The ORCA quantum chemistry program package
     J. Chem. Phys., 2020 152 Art. No. L224108
     doi.org/10.1063/5.0004608

List of optional additional citations

  1. Neese,F.
     Approximate second-order SCF convergence for spin unrestricted wavefunctions
     Chem. Phys. Lett., 2000 325(1-3)93-98
     doi.org/10.1016/s0009-2614(00)00662-x

Timings for individual modules:

Sum of individual times          ...      138.212 sec (=   2.304 min)
Startup calculation              ...        1.462 sec (=   0.024 min)   1.1 %
SCF iterations                   ...      136.700 sec (=   2.278 min)  98.9 %
Property calculations            ...        0.049 sec (=   0.001 min)   0.0 %
                             ****ORCA TERMINATED NORMALLY****
TOTAL RUN TIME: 0 days 0 hours 2 minutes 18 seconds 261 msec
