11
 energy: -628.343535358694 gnorm: 0.073926844987 xtb: 6.7.1 (41059b4)
C           -1.43158955273438       -0.99701246734180       -0.00029775880013
S            0.00000236270000        0.11902806165274       -0.00000652380000
O           -0.00231666190103        0.85845198558040        1.23095860824547
O           -0.00209891900093        0.85890428788060       -1.23070002904536
C            1.43663447743661       -1.00324209624456        0.00006619800003
H           -1.39264256771712       -1.60103703790946       -0.89713853989755
H           -1.39268122841713       -1.60132190200959        0.89635452059720
H           -2.32337294112955       -0.38240426496945       -0.00035222290016
H            2.01125785959124       -0.80632048005730        0.89558208029686
H            1.08572847718111       -2.02667192609807       -0.00991520480439
H            2.02160851169583       -0.79293200975137       -0.88566832579246
11
 energy: -628.346632068001 gnorm: 0.033921608525 xtb: 6.7.1 (41059b4)
C           -1.41883737103902       -1.00328564159289       -0.00024987796813
S           -0.00119080358827        0.13364102850256       -0.00003593211023
O           -0.00713217438650        0.87460636855149        1.25158816261173
O           -0.00687685520168        0.87472970256576       -1.25158910757938
C            1.42770082996668       -1.00784063942340        0.00013473087522
H           -1.38986843234160       -1.61457059328481       -0.90280359719978
H           -1.38989808728743       -1.61486105435869        0.90211044938464
H           -2.30737082945418       -0.37035553456627       -0.00023026670894
H            2.00420885074504       -0.80903033633567        0.90303744623803
H            1.08515320110703       -2.04272882117425       -0.01029445108211
H            2.01464151144864       -0.79486283802104       -0.89278485719214
11
 energy: -628.347505026441 gnorm: 0.006361142870 xtb: 6.7.1 (41059b4)
C           -1.42572465519671       -1.00091561867452       -0.00013814708783
S           -0.00186556095446        0.12734955400240       -0.00011408715243
O           -0.01140071506951        0.86837735249211        1.26989592163917
O           -0.01114162803790        0.86794676000825       -1.27038512093602
C            1.43810368789507       -1.00594149239958        0.00016739191042
H           -1.39790399280673       -1.61402749810276       -0.90564051125557
H           -1.39778472341198       -1.61432822388604        0.90516261165024
H           -2.31352093432156       -0.36108089529190        0.00000890751460
H            2.01426976683347       -0.80699565167316        0.90703904336549
H            1.09213651059043       -2.04308830109683       -0.01100269199067
H            2.02536201049365       -0.79185388031546       -0.89611050461912
11
 energy: -628.347570730139 gnorm: 0.004658586188 xtb: 6.7.1 (41059b4)
C           -1.42596033860048       -1.00080879910119       -0.00004459980024
S           -0.00184961936829        0.12634181583559       -0.00019328183959
O           -0.01159816954714        0.86477663210894        1.27473167866074
O           -0.01137157857199        0.86395914415339       -1.27561020712012
C            1.43936923413014       -1.00578911741271        0.00017676154126
H           -1.40001498539123       -1.61310458467977       -0.90493034347158
H           -1.39972387962594       -1.61338671702253        0.90464830654131
H           -2.31080223441877       -0.35888893242592        0.00018433012789
H            2.01314323515693       -0.80551867894527        0.90696299988194
H            1.09457658805900       -2.04250371442501       -0.01154232212142
H            2.02476148578540       -0.78963483057687       -0.89550047871229
11
 energy: -628.347598557757 gnorm: 0.004533207753 xtb: 6.7.1 (41059b4)
C           -1.42686853338552       -1.00029383382303        0.00009790161757
S           -0.00188731102193        0.12510432524771       -0.00034387419122
O           -0.01149164893477        0.85990436557740        1.27771574041493
O           -0.01134467963340        0.85856625577014       -1.27919146807176
C            1.44074286388775       -1.00515664316456        0.00018366402698
H           -1.40216098418401       -1.61160979747973       -0.90446242112517
H           -1.40158795585180       -1.61182935260346        0.90450354742869
H           -2.30949064431665       -0.35680781073032        0.00044627510692
H            2.01249984060717       -0.80396138875353        0.90702609471487
H            1.09713116875515       -2.04150971945560       -0.01237163677675
H            2.02498759404637       -0.78696403840349       -0.89472096609779
11
 energy: -628.347612998333 gnorm: 0.002686947528 xtb: 6.7.1 (41059b4)
C           -1.42743629492193       -0.99965793467846        0.00029019774462
S           -0.00184782840814        0.12478821082193       -0.00057122888256
O           -0.01141686699314        0.85582817259250        1.27909239174164
O           -0.01140176221765        0.85382170250600       -1.28137805549871
C            1.44152350680619       -1.00429245741048        0.00018862738900
H           -1.40403790929331       -1.61058025208094       -0.90417840482287
H           -1.40306339125282       -1.61067199405724        0.90468578564795
H           -2.30897584631249       -0.35513858692524        0.00079453911447
H            2.01212317755703       -0.80319329154008        0.90741438510929
H            1.09920727997005       -2.04078240844853       -0.01351970181557
H            2.02585562568928       -0.78467868222636       -0.89393571028261
11
 energy: -628.347617635062 gnorm: 0.000901163583 xtb: 6.7.1 (41059b4)
C           -1.42765786346571       -0.99928472946265        0.00045540009900
S           -0.00182014045343        0.12514102710849       -0.00066203652283
O           -0.01146321680541        0.85444085119490        1.27904309251171
O           -0.01156798981082        0.85168532036298       -1.28201193439201
C            1.44175749099778       -1.00369112425992        0.00017965671213
H           -1.40483282310507       -1.61042333542861       -0.90415447983046
H           -1.40351328279766       -1.61030664053591        0.90510054950294
H           -2.30936293526013       -0.35447356098280        0.00104834438117
H            2.01216679741867       -0.80354012415857        0.90803230441665
H            1.09976212931999       -2.04048719671979       -0.01461940631247
H            2.02706151940229       -0.78361796883288       -0.89352873204502
11
 energy: -628.347617635062 gnorm: 0.000901163583 xtb: 6.7.1 (41059b4)
C           -1.42765786346571       -0.99928472946265        0.00045540009900
S           -0.00182014045343        0.12514102710849       -0.00066203652283
O           -0.01146321680541        0.85444085119490        1.27904309251171
O           -0.01156798981082        0.85168532036298       -1.28201193439201
C            1.44175749099778       -1.00369112425992        0.00017965671213
H           -1.40483282310507       -1.61042333542861       -0.90415447983046
H           -1.40351328279766       -1.61030664053591        0.90510054950294
H           -2.30936293526013       -0.35447356098280        0.00104834438117
H            2.01216679741867       -0.80354012415857        0.90803230441665
H            1.09976212931999       -2.04048719671979       -0.01461940631247
H            2.02706151940229       -0.78361796883288       -0.89352873204502
