      -----------------------------------------------------------      
     |                   =====================                   |     
     |                           x T B                           |     
     |                   =====================                   |     
     |                         S. Grimme                         |     
     |          Mulliken Center for Theoretical Chemistry        |     
     |                    University of Bonn                     |     
      -----------------------------------------------------------      

   * xtb version 6.7.1 (41059b4) compiled by 'michael@archlinux' on 2025-03-24

   xtb is free software: you can redistribute it and/or modify it under
   the terms of the GNU Lesser General Public License as published by
   the Free Software Foundation, either version 3 of the License, or
   (at your option) any later version.
   
   xtb is distributed in the hope that it will be useful,
   but WITHOUT ANY WARRANTY; without even the implied warranty of
   MERCHANTABILITY or FITNESS FOR A PARTICULAR PURPOSE.  See the
   GNU Lesser General Public License for more details.
   
   Cite this work as:
   * C. Bannwarth, E. Caldeweyher, S. Ehlert, A. Hansen, P. Pracht,
     J. Seibert, S. Spicher, S. Grimme, WIREs Comput. Mol. Sci., 2020, 11,
     e01493. DOI: 10.1002/wcms.1493
   
   for GFN2-xTB:
   * C. Bannwarth, S. Ehlert and S. Grimme., J. Chem. Theory Comput., 2019,
     15, 1652-1671. DOI: 10.1021/acs.jctc.8b01176
   for GFN1-xTB:
   * S. Grimme, C. Bannwarth, P. Shushkov, J. Chem. Theory Comput., 2017,
     13, 1989-2009. DOI: 10.1021/acs.jctc.7b00118
   for GFN0-xTB:
   * P. Pracht, E. Caldeweyher, S. Ehlert, S. Grimme, ChemRxiv, 2019, preprint.
     DOI: 10.26434/chemrxiv.8326202.v1
   for GFN-FF:
   * S. Spicher and S. Grimme, Angew. Chem. Int. Ed., 2020, 59, 15665-15673.
     DOI: 10.1002/anie.202004239
   
   for ALPB and GBSA implicit solvation:
   * S. Ehlert, M. Stahn, S. Spicher, S. Grimme, J. Chem. Theory Comput.,
     2021, 17, 4250-4261. DOI: 10.1021/acs.jctc.1c00471
   
   for ddCOSMO and CPCM-X implicit solvation:
   * M. Stahn, S. Ehlert, S. Grimme, J. Phys. Chem. A,
     2023, XX, XXXX-XXXX. DOI: 10.1021/acs.jpca.3c04382
   
   for DFT-D4:
   * E. Caldeweyher, C. Bannwarth and S. Grimme, J. Chem. Phys., 2017,
     147, 034112. DOI: 10.1063/1.4993215
   * E. Caldeweyher, S. Ehlert, A. Hansen, H. Neugebauer, S. Spicher,
     C. Bannwarth and S. Grimme, J. Chem. Phys., 2019, 150, 154122.
     DOI: 10.1063/1.5090222
   * E. Caldeweyher, J.-M. Mewes, S. Ehlert and S. Grimme, Phys. Chem. Chem. Phys.
     2020, 22, 8499-8512. DOI: 10.1039/D0CP00502A
   
   for sTDA-xTB:
   * S. Grimme and C. Bannwarth, J. Chem. Phys., 2016, 145, 054103.
     DOI: 10.1063/1.4959605
   
   in the mass-spec context:
   * V. Asgeirsson, C. Bauer and S. Grimme, Chem. Sci., 2017, 8, 4879.
     DOI: 10.1039/c7sc00601b
   * J. Koopman and S. Grimme, ACS Omega 2019, 4, 12, 15120-15133.
     DOI: 10.1021/acsomega.9b02011
   
   for metadynamics refer to:
   * S. Grimme, J. Chem. Theory Comput., 2019, 155, 2847-2862
     DOI: 10.1021/acs.jctc.9b00143
   
   for SPH calculations refer to:
   * S. Spicher and S. Grimme, J. Chem. Theory Comput., 2021, 17, 1701-1714
     DOI: 10.1021/acs.jctc.0c01306
   
   for ONIOM refer to:
   * C. Plett, A. Katbashev, S. Ehlert, S. Grimme, M. Bursch,
     Phys. Chem. Chem. Phys., 2023, 25, 17860-17868. DOI: 10.1039/D3CP02178E
   
   for DIPRO refer to:
   * J. Kohn, N. Gildemeister, S. Grimme, D. Fazzi, A. Hansen,
     J. Chem. Phys., 2023, just accepted.
   
   for PTB refer to:
   * S. Grimme, M. Mueller, A. Hansen, J. Chem. Phys., 2023, 158, 124111.
     DOI: 10.1063/5.0137838
   
   with help from (in alphabetical order)
   P. Atkinson, C. Bannwarth, F. Bohle, G. Brandenburg, E. Caldeweyher
   M. Checinski, S. Dohm, S. Ehlert, S. Ehrlich, I. Gerasimov, C. Hölzer
   A. Katbashev, J. Kohn, J. Koopman, C. Lavigne, S. Lehtola, F. März, M. Müller,
   F. Musil, H. Neugebauer, J. Pisarek, C. Plett, P. Pracht, F. Pultar,
   J. Seibert, P. Shushkov, S. Spicher, M. Stahn, M. Steiner, T. Strunk,
   J. Stückrath, T. Rose, and J. Unsleber
   
 * started run on 2025/04/08 at 22:21:56.000     
   ID    Z sym.   atoms
    1    6 C      1-3, 6
    2    8 O      4, 5
    3    1 H      7-14

           -------------------------------------------------
          |                Calculation Setup                |
           -------------------------------------------------

          program call               : /usr/bin/xtb xtb_opt.coord --opt normal --orca -I xtb_opt-xcontrol-inp
          coordinate file            : xtb_opt.coord
          omp threads                :                    16

           -------------------------------------------------
          |                   Orca driver                   |
           -------------------------------------------------
orca executable           : /home/michael/Documents/CHEM4561/orca_avx2/orca
orca input file           : xtb_opt.inp
orca input line           : 
orca parallel             : true
orca number of threads    : 16
                         * ORCA takes the control...
  ------------------------------------------------------------------------

                                 *****************
                                 * O   R   C   A *
                                 *****************

                                            #,                                       
                                            ###                                      
                                            ####                                     
                                            #####                                    
                                            ######                                   
                                           ########,                                 
                                     ,,################,,,,,                         
                               ,,#################################,,                 
                          ,,##########################################,,             
                       ,#########################################, ''#####,          
                    ,#############################################,,   '####,        
                  ,##################################################,,,,####,       
                ,###########''''           ''''###############################       
              ,#####''   ,,,,##########,,,,          '''####'''          '####       
            ,##' ,,,,###########################,,,                        '##       
           ' ,,###''''                  '''############,,,                           
         ,,##''                                '''############,,,,        ,,,,,,###''
      ,#''                                            '''#######################'''  
     '                                                          ''''####''''         
             ,#######,   #######,   ,#######,      ##                                
            ,#'     '#,  ##    ##  ,#'     '#,    #''#        ,####,   ,####,        
            ##       ##  ##   ,#'  ##            #'  '#       #'       #'  '#        
            ##       ##  #######   ##           ,######,      #####,   #    #        
            '#,     ,#'  ##    ##  '#,     ,#' ,#      #,     #,   #   #,  ,#        
             '#######'   ##     ##  '#######'  #'      '#     '####' # '####'        



                #########################################################
                #                        -***-                          #
                #          Department of theory and spectroscopy        #
                #                                                       #
                #                      Frank Neese                      #
                #                                                       #
                #     Directorship, Architecture, Infrastructure        #
                #                    SHARK, DRIVERS                     #
                #        Core code/Algorithms in most modules           #
                #                                                       #
                #        Max Planck Institute fuer Kohlenforschung      #
                #                Kaiser Wilhelm Platz 1                 #
                #                 D-45470 Muelheim/Ruhr                 #
                #                      Germany                          #
                #                                                       #
                #                  All rights reserved                  #
                #                        -***-                          #
                #########################################################


                         Program Version 6.0.1  -  RELEASE   -


 With contributions from (in alphabetic order):
[Max-Planck-Institut fuer Kohlenforschung]                               
  Daniel Aravena         : Magnetic Suceptibility                        
  Michael Atanasov       : Ab Initio Ligand Field Theory (pilot matlab implementation)
  Alexander A. Auer      : GIAO ZORA, VPT2 properties, NMR spectrum      
  Ute Becker             : All parallelization in ORCA, NUMFREQ, NUMCALC 
  Giovanni Bistoni       : ED, misc. LED, open-shell LED, HFLD           
  Martin Brehm           : Molecular dynamics                            
  Dmytro Bykov           : pre 5.0 version of the SCF Hessian            
  Marcos Casanova-Páez   : Triplet and SCS-CIS(D). UHF-(DLPNO)-IP/EA/STEOM-CCSD. UHF-CVS-IP/STEOM-CCSD   
  Vijay G. Chilkuri      : MRCI spin determinant printing, contributions to CSF-ICE 
  Pauline Colinet        : FMM embedding                                 
  Dipayan Datta          : RHF DLPNO-CCSD density                        
  Achintya Kumar Dutta   : EOM-CC, STEOM-CC                              
  Nicolas Foglia         : Exact transition moments, OPA infrastructure, MCD improvements    
  Dmitry Ganyushin       : Spin-Orbit,Spin-Spin,Magnetic field MRCI      
  Miquel Garcia-Rates    : C-PCM and meta-GGA Hessian, CCSD/C-PCM, Gaussian charge scheme 
  Tiago L. C. Gouveia    : GS-ROHF, GS-ROCIS                             
  Yang Guo               : DLPNO-NEVPT2, F12-NEVPT2, CIM, IAO-localization        
  Andreas Hansen         : Spin unrestricted coupled pair/coupled cluster methods 
  Ingolf Harden          : AUTO-CI MPn and infrastructure                
  Benjamin Helmich-Paris : MC-RPA, TRAH-(SCF,CASSCF), AVAS, COSX integrals, SCF dyn. polar. 
  Lee Huntington         : MR-EOM, pCC                                   
  Robert Izsak           : Overlap fitted RIJCOSX, COSX-SCS-MP3, EOM     
  Riya Kayal             : Wick's Theorem for AUTO-CI, AUTO-CI UHF-CCSDT 
  Emily Kempfer          : AUTO-CI, RHF CISDT and CCSDT                  
  Christian Kollmar      : KDIIS, OOCD, Brueckner-CCSD(T), CCSD density, CASPT2, CASPT2-K, improved NEVPT2 
  Axel Koslowski         : Symmetry handling                             
  Simone Kossmann        : meta-GGA functionals, TD-DFT gradient, OOMP2, (MP2 Hessian; deprecated post 5.0) 
  Lucas Lang             : DCDCAS                                        
  Marvin Lechner         : AUTO-CI (C++ implementation), FIC-MRCC        
  Spencer Leger          : CASSCF response                               
  Dagmar Lenk            : GEPOL surface, SMD, ORCA-2-JSON               
  Dimitrios Liakos       : Extrapolation schemes; Compound Job, initial MDCI parallelization 
  Dimitrios Manganas     : Further ROCIS development; embedding schemes. LFT, Crystal Embedding 
  Dimitrios Pantazis     : SARC Basis sets                               
  Anastasios Papadopoulos: AUTO-CI, single reference methods and gradients 
  Taras Petrenko         : pre 6.0 DFT Hessian and TD-DFT gradient, (ASA, deprecated), ECA, 1-Electron XAS/XES, NRVS 
  Peter Pinski           : DLPNO-MP2, DLPNO-MP2 Gradient                 
  Christoph Reimann      : Effective Core Potentials                     
  Marius Retegan         : Local ZFS, SOC                                
  Christoph Riplinger    : Optimizer, TS searches, QM/MM, DLPNO-CCSD(T), (RO)-DLPNO pert. Triples 
  Michael Roemelt        : Original ROCIS implementation                 
  Masaaki Saitow         : Open-shell DLPNO-CCSD energy and density      
  Barbara Sandhoefer     : DKH picture change effects                    
  Kantharuban Sivalingam : CASSCF convergence/infrastructure, NEVPT2 and variants, FIC-MRCI 
  Bernardo de Souza      : ESD, SOC TD-DFT                               
  Georgi L. Stoychev     : AutoAux, RI-MP2 NMR, DLPNO-MP2 response, X2C  
  Van Anh Tran           : RI-MP2 g-tensors                              
  Willem Van den Heuvel  : Paramagnetic NMR                              
  Zikuan Wang            : NOTCH, Electric field optimization            
  Frank Wennmohs         : Technical directorship and infrastructure     
  Hang Xu                : AUTO-CI-Response properties                   
                                                                         
[FACCTs GmbH]                                                            
  Markus Bursch, Miquel Garcia-Rates, Christoph Riplinger, Bernardo de Souza, Georgi L. Stoychev 
                                                                 
  APM, Basis sets (HGBS, AHGBS, def-TZVP (Ac-Lr), def2-XVPD (La-Lu)), CI-OPT, improved COSX, DLPNO-Multilevel,           
  DOCKER, DRACO, updates on ESD, GOAT, IRC, LR-CPCM, MBIS, meta-GGA TD-DFT gradient, ML-optimized integration grids, 
  MM, NACMEs, nearIR, NEB, NEB-TS, NL-DFT gradient (VV10), 2- and 3-layer-ONIOM, interface openCOSMO-RS, QMMM,   
  Crystal-QMMM, SF, symmetry and pop. for TD-DFT, r2SCAN hybrids, SOLVATOR                                   
                                                                         
[Other institutions]                                                     
  V. Asgeirsson          : NEB                                           
  Christoph Bannwarth    : sTDA-DFT, sTD-DFT, PBEh-3c, B97-3c, D3        
  Sebastian Ehlert       : rSCAN, r2SCAN, r2SCAN-3c, D4, dhf basis sets  
  Marvin Friede          : D4 for Fr, Ra, Ac-Lr                          
  Lars Goerigk           : TD-DFT with DH, B97 family of functionals     
  Stefan Grimme          : VdW corrections, initial TS optimization, DFT functionals, gCP, sTDA/sTD-DF 
  Waldemar Hujo          : DFT-NL                                        
  H. Jonsson             : NEB                                           
  Holger Kruse           : gCP                                           
  Marcel Mueller         : wB97X-3c, vDZP basis set                      
  Hagen Neugebauer       : wr2SCAN                                       
  Tobias Risthaus        : range-separated hybrid DFT                    
  Lukas Wittmann         : regularized MP2, r2SCAN double-hybrids, wr2SCAN        
                                                                         
We gratefully acknowledge several colleagues who have allowed us to      
interface, adapt or use parts of their codes:                            
  Ed Valeev, F. Pavosevic, A. Kumar             : LibInt (2-el integral package), F12 methods 
  Garnet Chan, S. Sharma, J. Yang, R. Olivares  : DMRG                   
  Ulf Ekstrom                                   : XCFun DFT Library      
  Mihaly Kallay                                 : mrcc  (arbitrary order and MRCC methods)
  Frank Weinhold                                : gennbo (NPA and NBO analysis)           
  Simon Mueller                                 : openCOSMO-RS                            
  Christopher J. Cramer and Donald G. Truhlar   : smd solvation model                     
  S Lehtola, MJT Oliveira, MAL Marques          : LibXC Library                           
  Liviu Ungur et al                             : ANISO software                          


 Your calculation uses the libint2 library for the computation of 2-el integrals
 For citations please refer to: http://libint.valeyev.net

 Your ORCA version has been built with support for libXC version: 6.2.2
 For citations please refer to: https://libxc.gitlab.io

 This ORCA versions uses:
   CBLAS   interface :  Fast vector & matrix operations
   LAPACKE interface :  Fast linear algebra routines
   SCALAPACK package :  Parallel linear algebra routines
   Shared memory     :  Shared parallel matrices
   BLAS/LAPACK       :  OpenBLAS 0.3.27  USE64BITINT DYNAMIC_ARCH NO_AFFINITY Zen SINGLE_THREADED
        Core in use  :  Zen
   Copyright (c) 2011-2014, The OpenBLAS Project




***************************************
The coordinates will be read from file: xtb_opt.xyz
***************************************


Your calculation utilizes the geometrical counterpoise correction gCP
Please cite in your paper:
H.Kruse, S. Grimme J.Chem.Phys., 136, (2012), 154101 
   

Your calculation utilizes the atom-pairwise dispersion correction
based on EEQ partial charges (D4)


================================================================================

----- Orbital basis set information -----
Your calculation utilizes the basis: def2-mTZVPP
   Stefan Grimme, Andreas Hansen, Sebastian Ehlert, and Jan-Michael Mewes 
   J. Chem. Phys. 154, 064103 (2021). DOI: 10.1063/5.0040021

----- AuxJ basis set information -----
Your calculation utilizes the auxiliary basis: def2/J
   F. Weigend, Phys. Chem. Chem. Phys. 8, 1057 (2006).

================================================================================
                                        WARNINGS
                       Please study these warnings very carefully!
================================================================================

WARNING: Old DensityContainer found on disk!
         Will remove this file - 
         If you want to keep old densities, please start your calculation with a different basename. 



WARNING: SCAN, rSCAN, or r2SCAN functional requested.
  ===> : libXC variant has now been activated.



================================================================================
                                       INPUT FILE
================================================================================
NAME = xtb_opt.inp
|  1> ! r2scan-3c def2/J RI DEFGRID2 scfconv7 ENGRAD tightSCF miniprint
|  2> * xyzfile 0 1 xtb_opt.xyz
|  3> 
|  4>                          ****END OF INPUT****
================================================================================

                     *******************************
                     * Energy+Gradient Calculation *
                     *******************************

---------------------------------
CARTESIAN COORDINATES (ANGSTROEM)
---------------------------------
  C     -1.906728    1.207781    0.186064
  C     -1.511008   -0.220670   -0.158707
  C     -0.026925   -0.498152   -0.073144
  O      0.456231   -1.600213   -0.108117
  O      0.701784    0.618038    0.033470
  C      2.109020    0.441515    0.103325
  H     -1.602843    1.455112    1.199783
  H     -1.433569    1.911447   -0.492984
  H     -2.985510    1.320727    0.109705
  H     -1.816547   -0.462880   -1.180382
  H     -2.010529   -0.934634    0.499688
  H      2.368198   -0.215760    0.935673
  H      2.533145    1.431577    0.249494
  H      2.481968   -0.002877   -0.821708

----------------------------
CARTESIAN COORDINATES (A.U.)
----------------------------
  NO LB      ZA    FRAG     MASS         X           Y           Z
   0 C     6.0000    0    12.011   -3.603194    2.282375    0.351609
   1 C     6.0000    0    12.011   -2.855391   -0.417006   -0.299912
   2 C     6.0000    0    12.011   -0.050881   -0.941371   -0.138223
   3 O     8.0000    0    15.999    0.862152   -3.023965   -0.204311
   4 O     8.0000    0    15.999    1.326180    1.167923    0.063250
   5 C     6.0000    0    12.011    3.985470    0.834343    0.195256
   6 H     1.0000    0     1.008   -3.028935    2.749762    2.267262
   7 H     1.0000    0     1.008   -2.709052    3.612112   -0.931606
   8 H     1.0000    0     1.008   -5.641797    2.495812    0.207313
   9 H     1.0000    0     1.008   -3.432777   -0.874716   -2.230599
  10 H     1.0000    0     1.008   -3.799349   -1.766201    0.944273
  11 H     1.0000    0     1.008    4.475245   -0.407728    1.768166
  12 H     1.0000    0     1.008    4.786950    2.705289    0.471475
  13 H     1.0000    0     1.008    4.690239   -0.005436   -1.552803

------------------------------------------------------------------------------
                   ___                                                        
                  /   \      - P O W E R E D   B Y -                         
                 /     \                                                     
                 |  |  |   _    _      __       _____    __    __             
                 |  |  |  | |  | |    /  \     |  _  \  |  |  /  |          
                  \  \/   | |  | |   /    \    | | | |  |  | /  /          
                 / \  \   | |__| |  /  /\  \   | |_| |  |  |/  /          
                |  |  |   |  __  | /  /__\  \  |    /   |      \           
                |  |  |   | |  | | |   __   |  |    \   |  |\   \          
                \     /   | |  | | |  |  |  |  | |\  \  |  | \   \       
                 \___/    |_|  |_| |__|  |__|  |_| \__\ |__|  \__/        
                                                                              
                      - O R C A' S   B I G   F R I E N D -                    
                                      &                                       
                       - I N T E G R A L  F E E D E R -                       
                                                                              
 v1 FN, 2020, v2 2021, v3 2022-2024                                           
------------------------------------------------------------------------------


----------------------
SHARK INTEGRAL PACKAGE
----------------------

Number of atoms                             ...     14
Number of basis functions                   ...    164
Number of shells                            ...     80
Maximum angular momentum                    ...      2
Integral batch strategy                     ... SHARK/LIBINT Hybrid
RI-J (if used) integral strategy            ... SPLIT-RIJ (Revised 2003 algorithm where possible)
Printlevel                                  ...      1
Contraction scheme used                     ... SEGMENTED contraction
Prescreening option                         ... SCHWARTZ
   Thresh                                   ... 3.000e-11
   Tcut                                     ... 1.000e-12
   Tpresel                                  ... 1.000e-12 
Coulomb Range Separation                    ... NOT USED
Exchange Range Separation                   ... NOT USED
Multipole approximations                    ... NOT USED
Finite Nucleus Model                        ... NOT USED
CABS basis                                  ... NOT available
Auxiliary Coulomb fitting basis             ... AVAILABLE
   # of basis functions in Aux-J            ...    382
   # of shells in Aux-J                     ...    130
   Maximum angular momentum in Aux-J        ...      4
Auxiliary J/K fitting basis                 ... NOT available
Auxiliary Correlation fitting basis         ... NOT available
Auxiliary 'external' fitting basis          ... NOT available

Checking pre-screening integrals            ... done (  0.0 sec) Dimension = 80
Check shell pair data                       ... done (  0.0 sec)
Shell pair information
Shell pair cut-off parameter TPreSel        ...   1.0e-12
Total number of shell pairs                 ...      3240
Shell pairs after pre-screening             ...      3032
Total number of primitive shell pairs       ...     11481
Primitive shell pairs kept                  ...      7968
          la=0 lb=0:    985 shell pairs
          la=1 lb=0:   1121 shell pairs
          la=1 lb=1:    330 shell pairs
          la=2 lb=0:    356 shell pairs
          la=2 lb=1:    204 shell pairs
          la=2 lb=2:     36 shell pairs

Calculating one electron integrals          ... done (  0.0 sec)
Calculating RI/J V-Matrix + Cholesky decomp.... done (  0.0 sec)
Calculating Nuclear repulsion               ... done (  0.0 sec) ENN=    248.125719394236 Eh

Diagonalization of the overlap matrix:
Smallest eigenvalue                        ... 1.739e-04
Time for diagonalization                   ...    0.003 sec
Threshold for overlap eigenvalues          ... 1.000e-07
Number of eigenvalues below threshold      ... 0
Time for construction of square roots      ...    0.004 sec
Total time needed                          ...    0.007 sec

-------------------
DFT GRID GENERATION
-------------------

General Integration Accuracy     IntAcc      ... 4.388
Radial Grid Type                 RadialGrid  ... OptM3 with GC (2021)
Angular Grid (max. ang.)         AngularGrid ... 4 (Lebedev-302)
Angular grid pruning method      GridPruning ... 4 (adaptive)
Weight generation scheme         WeightScheme... mBecke (2022)
Basis function cutoff            BFCut       ... 1.0000e-11
Integration weight cutoff        WCut        ... 1.0000e-14
Partially contracted basis set               ... off
Rotationally invariant grid construction     ... off
Angular grids for H and He will be reduced by one unit
Diffuse basis detected: some atoms will have their outermost
                        angular grid increased by 1.

Total number of grid points                  ...    62742
Total number of batches                      ...      988
Average number of points per batch           ...       63
Average number of grid points per atom       ...     4482
Initializing property integral containers    ... done (  0.0 sec)

SHARK setup successfully completed in   0.7 seconds

Maximum memory used throughout the entire STARTUP-calculation: 28.6 MB
Occupation numbers will be reassigned to an Aufbau configuration
             **** ENERGY FILE WAS UPDATED (xtb_opt.en.tmp) ****
Finished Guess after   0.1 sec
Maximum memory used throughout the entire GUESS-calculation: 11.6 MB
----------------------------------------D-I-I-S--------------------------------------------
Iteration    Energy (Eh)           Delta-E    RMSDP     MaxDP     DIISErr   Damp  Time(sec)
-------------------------------------------------------------------------------------------
               ***  Starting incremental Fock matrix formation  ***
                              *** Initializing SOSCF ***
---------------------------------------S-O-S-C-F--------------------------------------
Iteration    Energy (Eh)           Delta-E    RMSDP     MaxDP     MaxGrad    Time(sec)
--------------------------------------------------------------------------------------
    1    -307.6381722729885837     0.00e+00  3.79e-06  7.95e-05  1.83e-05     1.5
               *** Restarting incremental Fock matrix formation ***
    2    -307.6381722672467163     5.74e-09  6.20e-06  1.35e-04  5.55e-05     1.6
    3    -307.6381721287560254     1.38e-07  4.54e-06  9.43e-05  1.58e-04     1.1
    4    -307.6381722945150727    -1.66e-07  1.44e-06  3.30e-05  1.25e-05     1.4
                  *** Gradient check signals convergence ***

               *****************************************************
               *                     SUCCESS                       *
               *           SCF CONVERGED AFTER   4 CYCLES          *
               *****************************************************

             **** ENERGY FILE WAS UPDATED (xtb_opt.en.tmp) ****

----------------
TOTAL SCF ENERGY
----------------

Total Energy       :       -307.63817229451507 Eh           -8371.26025 eV

Components:
Nuclear Repulsion  :        248.12571939423555 Eh            6751.84408 eV
Electronic Energy  :       -555.76389168875062 Eh          -15123.10434 eV
One Electron Energy:       -909.69517787138670 Eh          -24754.06426 eV
Two Electron Energy:        353.93128618263609 Eh            9630.95993 eV

Virial components:
Potential Energy   :       -614.07768180686526 Eh          -16709.90324 eV
Kinetic Energy     :        306.43950951235013 Eh            8338.64298 eV
Virial Ratio       :          2.00391158040969

DFT components:
N(Alpha)           :       23.999976854383 electrons
N(Beta)            :       23.999976854383 electrons
N(Total)           :       47.999953708767 electrons
E(X)               :      -40.238541750310 Eh       
E(C)               :       -1.539281824210 Eh       
E(XC)              :      -41.777823574520 Eh       

---------------
SCF CONVERGENCE
---------------

  Last Energy change         ...    1.6576e-07  Tolerance :   1.0000e-07
  Last MAX-Density change    ...    3.3020e-05  Tolerance :   1.0000e-07
  Last RMS-Density change    ...    1.4364e-06  Tolerance :   5.0000e-09
  Last DIIS Error            ...    7.7115e-05  Tolerance :   1.0000e-07
  Last Orbital Gradient      ...    1.2453e-05  Tolerance :   1.0000e-04
  Last Orbital Rotation      ...    3.2410e-05  Tolerance :   1.0000e-04


----------------
ORBITAL ENERGIES
----------------

  NO   OCC          E(Eh)            E(eV) 
   0   2.0000     -19.000889      -517.0405 
   1   2.0000     -18.930243      -515.1181 
   2   2.0000     -10.153358      -276.2869 
   3   2.0000     -10.086328      -274.4629 
   4   2.0000     -10.046960      -273.3917 
   5   2.0000     -10.026029      -272.8221 
   6   2.0000      -1.075826       -29.2747 
   7   2.0000      -0.981702       -26.7135 
   8   2.0000      -0.761326       -20.7167 
   9   2.0000      -0.690669       -18.7941 
  10   2.0000      -0.615674       -16.7534 
  11   2.0000      -0.536707       -14.6045 
  12   2.0000      -0.469579       -12.7779 
  13   2.0000      -0.462901       -12.5962 
  14   2.0000      -0.436182       -11.8691 
  15   2.0000      -0.421151       -11.4601 
  16   2.0000      -0.391602       -10.6560 
  17   2.0000      -0.366482        -9.9725 
  18   2.0000      -0.359623        -9.7858 
  19   2.0000      -0.337752        -9.1907 
  20   2.0000      -0.324487        -8.8298 
  21   2.0000      -0.318415        -8.6645 
  22   2.0000      -0.275353        -7.4927 
  23   2.0000      -0.237158        -6.4534 
  24   0.0000      -0.014763        -0.4017 
  25   0.0000       0.062915         1.7120 
  26   0.0000       0.099561         2.7092 
  27   0.0000       0.116176         3.1613 
  28   0.0000       0.125536         3.4160 
  29   0.0000       0.153777         4.1845 
  30   0.0000       0.156059         4.2466 
  31   0.0000       0.167902         4.5688 
  32   0.0000       0.173915         4.7325 
  33   0.0000       0.182915         4.9774 
  34   0.0000       0.189290         5.1508 
*Only the first 10 virtual orbitals were printed.
Total SCF time: 0 days 0 hours 0 min 5 sec 
Finished LeanSCF after   5.7 sec

Maximum memory used throughout the entire LEANSCF-calculation: 17.6 MB


-------------------------------------------------------------------------------
                          DFT DISPERSION CORRECTION                            
                                                                               
                                DFTD4 V3.4.0                                   
-------------------------------------------------------------------------------
-------------------------   ----------------
Dispersion correction           -0.003015060
-------------------------   ----------------

------------------   -----------------
gCP correction             0.009419847
------------------   -----------------

-------------------------   --------------------
FINAL SINGLE POINT ENERGY      -307.631767507708
-------------------------   --------------------

------------------------------------------------------------------------------
                         ORCA SCF GRADIENT CALCULATION
------------------------------------------------------------------------------

Nuc. rep. gradient        (SHARK) ... done (  0.0 sec)
HCore & Overlap gradient  (SHARK) ... done (  0.2 sec)
Split-RIJ-J gradient      (SHARK) ... done (  1.1 sec)
XC gradient                       ... done (  6.7 sec)
Dispersion correction             ... done (  0.0 sec)

-------------------
DISPERSION GRADIENT
-------------------

   1   C   :   -0.000061114    0.000035586    0.000005278
   2   C   :   -0.000052980   -0.000011702   -0.000006063
   3   C   :    0.000012809   -0.000019525   -0.000002638
   4   O   :    0.000019769   -0.000060887   -0.000004908
   5   O   :    0.000035543    0.000007321    0.000000278
   6   C   :    0.000076252    0.000000784    0.000002363
   7   H   :   -0.000025231    0.000017312    0.000010421
   8   H   :   -0.000024073    0.000020411   -0.000003048
   9   H   :   -0.000024366    0.000013628    0.000001758
  10   H   :   -0.000019703   -0.000007232   -0.000010362
  11   H   :   -0.000019334   -0.000011262    0.000003123
  12   H   :    0.000025661    0.000000976    0.000003943
  13   H   :    0.000031032    0.000012065    0.000002087
  14   H   :    0.000025735    0.000002525   -0.000002232

Difference to translation invariance:
           :   -0.0000000000    0.0000000000   -0.0000000000

Difference to rotation invariance:
           :   -0.0000000000    0.0000000000    0.0000000000

Norm of the Dispersion gradient    ...    0.0001617851
RMS gradient                       ...    0.0000249640
MAX gradient                       ...    0.0000762518
gCP correction                   ... done

------------------
CARTESIAN GRADIENT
------------------

   1   C   :    0.001427559    0.002814522    0.001439122
   2   C   :   -0.002779410   -0.005831091   -0.001885284
   3   C   :    0.009221405    0.005082551    0.000994487
   4   O   :   -0.004743031    0.011297559    0.000481250
   5   O   :    0.006599597   -0.015082914   -0.000490196
   6   C   :   -0.009336161    0.004706890   -0.000403697
   7   H   :   -0.000570834   -0.002140850   -0.003463819
   8   H   :   -0.000693013   -0.003469241    0.001482158
   9   H   :    0.004079572   -0.001410613   -0.000092295
  10   H   :    0.000234760    0.002300225    0.001558156
  11   H   :   -0.000512028    0.002637420    0.000414653
  12   H   :   -0.001205461    0.000598915   -0.000947499
  13   H   :   -0.000502953   -0.002098093   -0.000144710
  14   H   :   -0.001220004    0.000594721    0.001057675

Difference to translation invariance:
           :    0.0000000000   -0.0000000000    0.0000000000

Difference to rotation invariance:
           :   -0.0000217995   -0.0000634927    0.0001547519

Norm of the Cartesian gradient     ...    0.0278580765
RMS gradient                       ...    0.0042985945
MAX gradient                       ...    0.0150829145

-------
TIMINGS
-------

Total SCF gradient time     ....        8.039 sec

Densities                   ....       0.000 sec  (  0.0%)
One electron gradient       ....       0.183 sec  (  2.3%)
RI-J Coulomb gradient       ....       1.141 sec  ( 14.2%)
XC gradient                 ....       6.669 sec  ( 83.0%)

Maximum memory used throughout the entire SCFGRAD-calculation: 31.7 MB

------------------------------------------------------------------------------
                              ORCA PROPERTY CALCULATIONS
------------------------------------------------------------------------------

GBWName                                 ... xtb_opt.gbw
Number of atoms                         ...     14
Number of basis functions               ...    164
Max core memory                         ...   1024 MB

Electric properties:
Dipole moment                           ... YES
Quadrupole moment                       ...  NO
Static polarizability (Dipole/Dipole)   ...  NO
Static polarizability (Dipole/Quad.)    ...  NO
Static polarizability (Quad./Quad.)     ...  NO
Static polarizability (Velocity)        ...  NO

Atomic electric properties:
Dipole moment                           ...  NO
Quadrupole moment                       ...  NO
Static polarizability                   ...  NO

Choice of electric origin               ... Center of mass
Position of electric origin             ...    -0.000015     0.000018     0.000002

General magnetic properties:
Magnetizability                         ...  NO

EPR properties:
g-Tensor (aka g-matrix)                 ...  NO
Zero-Field splitting spin-orbit         ...  NO
Zero-field splitting spin-spin          ...  NO
Hyperfine couplings                     ...  NO (   0 nuclei)
Quadrupole couplings                    ...  NO (   0 nuclei)
Contact density                         ...  NO (   0 nuclei)

NMR properties:
Chemical shifts                         ...  NO (   0 nuclei)
Spin-rotation constants                 ...  NO (   0 nuclei)
Spin-spin couplings                     ...  NO (   0 nuclei,    0 pairs)

Choice of magnetic origin               ... GIAO
Position of magnetic origin             ...     0.000000     0.000000     0.000000

Properties with geometric perturbations:
SCF Hessian                             ...  NO
IR spectrum                             ...  NO
VCD spectrum                            ...  NO
X-ray spectroscopy properties:
SCF XES/XAS/RIXS spectra                ...  NO


-------------
DIPOLE MOMENT
-------------

Method             : SCF
Type of density    : Electron Density
Multiplicity       :   1
Irrep              :   0
Energy             :  -307.6381722945150727 Eh
Relativity type    : 
Basis              : AO
                                X                 Y                 Z
Electronic contribution:      2.235818785      -3.428618756      -0.435747331
Nuclear contribution   :     -2.296063973       4.209740656       0.467291613
                        -----------------------------------------
Total Dipole Moment    :     -0.060245188       0.781121901       0.031544282
                        -----------------------------------------
Magnitude (a.u.)       :      0.784076494
Magnitude (Debye)      :      1.992964064



--------------------
Rotational spectrum 
--------------------
 
Rotational constants in cm-1:             0.202600             0.091415             0.065491 
Rotational constants in MHz :          6073.781752          2740.558421          1963.383797 

Dipole components along the rotational axes: 
x,y,z [a.u.] :    -0.217412     0.751149    -0.057301 
x,y,z [Debye]:    -0.552617     1.909269    -0.145648 

 

Dipole moment calculation done in   0.0 sec 

Maximum memory used throughout the entire PROP-calculation: 10.0 MB

--------------------------------
SUGGESTED CITATIONS FOR THIS RUN
--------------------------------

Below you find a list of papers that are relevant to this ORCA run
We neither can nor want to force you to cite these papers, but we appreciate if you do
You receive ORCA, which is the product of decades of hard work by many enthusiastic individuals, for free
The only thing we kindly ask in return is that you cite our papers,
We deeply appreciate it, if you show your appreciation for ORCA by not just citing the generic ORCA reference.

Please note that relegating all ORCA citations to the supporting information does *not* help us.
SI sections are not indexed - citations you put there will not count into any citation statistics
But we need these citations in order to attract the funding resources that allow us to do what we are doing

Therefore, if you are a happy ORCA user, please consider citing a few of the papers listed below in the main body of your paper

In addition to the list printed below, the program has created the file xtb_opt.bibtex that contains the list in bibtex format
You can import this file easily into all common literature databanks and citation aid programs


List of essential papers. We consider these as the minimum necessary citations

  1. Neese,F.
     Software update: the ORCA program system, version 5.0
     WIRES Comput. Molec. Sci., 2022 12(1)e1606
     doi.org/10.1002/wcms.1606
  2. Grimme,S.; Hansen,A.; Ehlert,S.; Mewes,J.
     r2SCAN-3c: A 'Swiss army knife' composite electronic-structure method
     J. Chem. Phys., 2021 154 064103
     doi.org/10.1063/5.0040021

List of papers to cite with high priority. The work reported in these papers was absolutely
necessary for this run to complete.
Our perspective: the developers of density functionals and basis sets usually get cited in chemistry papers
Good! But without the algorithms to do something with them, the functionals or basis sets would not do anything.
Hence, in our opinion, the algorithm design and method developments papers are equally worthy of getting cited

  1. Neese,F.
     An improvement of the resolution of the identity approximation for the formation of the Coulomb matrix
     J. Comp. Chem., 2003 24(14)1740-1747
     doi.org/10.1002/jcc.10318
  2. Neese,F.
     The SHARK Integral Generation and Digestion System
     J. Comp. Chem., 2022  1-16
     doi.org/10.1002/jcc.26942
  3. Lehtola,S.; Steigemann,C.; Oliveira,M.; Marques,M.
     Recent developments in Libxc - A comprehensive library of functionals for density functional theory
     Software X, 2018 7 
     doi.org/10.1016/j.softx.2017.11.002
  4. Caldeweyher,E.; Bannwarth,C.; Grimme,S.
     Extension of the D3 dispersion coefficient model
     J. Chem. Phys., 2017 147 034112
     doi.org/10.1063/1.4993215
  5. Caldeweyher,E.; Ehlert,S.; Hansen,A.; Neugebauer,H.; Spicher,S.; Bannwarth,C.; Grimme,S.
     A generally applicable atomic-charge dependent London dispersion correction
     J. Chem. Phys., 2019 150 154122
     doi.org/10.1063/1.5090222
  6. Caldeweyher,E.; Mewes,J.; Ehlert,S.; Grimme,S.
     Extension and evaluation of the D4 London-dispersion model for periodic systems
     Phys. Chem. Chem. Phys., 2020 22(16)8499-8512
     doi.org/10.1039/D0CP00502A
  7. Wittmann,L.; Gordiy,I.; Friede,M.; Helmich-Paris,B.; Grimme,S.; Hansen,A.; Bursch,M.
     Extension of the D3 and D4 London Dispersion Corrections to the full Actinides Series
     Phys. Chem. Chem. Phys., 2024 26(32)21379-21394
     doi.org/https://doi.org/10.1039/D4CP01514B 

List of suggested additional citations. These are papers that are important in the 'surrounding' of 
of this run, or papers that preceded the highly important papers. If you like your results we are grateful for a citation.

  1. Neese,F.
     The ORCA program system
     WIRES Comput. Molec. Sci., 2012 2(1)73-78
     doi.org/10.1002/wcms.81
  2. Neese,F.
     Software update: the ORCA program system, version 4.0
     WIRES Comput. Molec. Sci., 2018 8(1)1-6
     doi.org/10.1002/wcms.1327
  3. Neese,F.; Wennmohs,F.; Becker,U.; Riplinger,C.
     The ORCA quantum chemistry program package
     J. Chem. Phys., 2020 152 Art. No. L224108
     doi.org/10.1063/5.0004608

List of optional additional citations

  1. Neese,F.
     Approximate second-order SCF convergence for spin unrestricted wavefunctions
     Chem. Phys. Lett., 2000 325(1-3)93-98
     doi.org/10.1016/s0009-2614(00)00662-x

Timings for individual modules:

Sum of individual times          ...       14.734 sec (=   0.246 min)
Startup calculation              ...        0.700 sec (=   0.012 min)   4.8 %
SCF iterations                   ...        5.823 sec (=   0.097 min)  39.5 %
Property calculations            ...        0.103 sec (=   0.002 min)   0.7 %
SCF Gradient evaluation          ...        8.108 sec (=   0.135 min)  55.0 %
                             ****ORCA TERMINATED NORMALLY****
TOTAL RUN TIME: 0 days 0 hours 0 minutes 14 seconds 916 msec
  ------------------------------------------------------------------------
          * successful ORCA run, taking over control again...

         :::::::::::::::::::::::::::::::::::::::::::::::::::::
         ::                  ORCA SUMMARY                   ::
         :::::::::::::::::::::::::::::::::::::::::::::::::::::
         :: total energy            -307.631767507708 Eh    ::
         :: gradient norm              0.027858076517 Eh/a0 ::
         :: HOMO-LUMO gap              0.000000000000 eV    ::
         :::::::::::::::::::::::::::::::::::::::::::::::::::::

      ----------------------------------------------------------- 
     |                       L-ANC optimizer                     |
      ----------------------------------------------------------- 
          low memory version by Sebastian Ehlert

          ...................................................
          :                      SETUP                      :
          :.................................................:
          :   energy convergence        0.5000000E-05 Eh    :
          :   grad. convergence         0.1000000E-02 Eh/a0 :
          :   optimization log               true           :
          :   writing optlog all                1     steps :
          :   Hessian reset                     8     steps :
          :   maximium step len.        1.0000000     a0    :
          :   LBFGS images                      8           :
          ...................................................
 * calculating model hessian...
Using Lindh-Hessian (1995)
 Shifting diagonal of input Hessian by    1.0000000000000000E-002
 Lowest  eigenvalues of input Hessian
    0.000000    0.000000    0.000000    0.000000    0.000000    0.000000
    0.014333    0.015437    0.016175    0.024716    0.031346    0.035431
    0.053672    0.056543    0.065452    0.069988    0.085135    0.098964
 Highest eigenvalues
    1.175799    1.188549    1.267789    1.319519    1.798327    2.351819


........................................................................
.............................. CYCLE    1 ..............................
........................................................................
                         * ORCA takes the control...
  ------------------------------------------------------------------------

                                 *****************
                                 * O   R   C   A *
                                 *****************

                                            #,                                       
                                            ###                                      
                                            ####                                     
                                            #####                                    
                                            ######                                   
                                           ########,                                 
                                     ,,################,,,,,                         
                               ,,#################################,,                 
                          ,,##########################################,,             
                       ,#########################################, ''#####,          
                    ,#############################################,,   '####,        
                  ,##################################################,,,,####,       
                ,###########''''           ''''###############################       
              ,#####''   ,,,,##########,,,,          '''####'''          '####       
            ,##' ,,,,###########################,,,                        '##       
           ' ,,###''''                  '''############,,,                           
         ,,##''                                '''############,,,,        ,,,,,,###''
      ,#''                                            '''#######################'''  
     '                                                          ''''####''''         
             ,#######,   #######,   ,#######,      ##                                
            ,#'     '#,  ##    ##  ,#'     '#,    #''#        ,####,   ,####,        
            ##       ##  ##   ,#'  ##            #'  '#       #'       #'  '#        
            ##       ##  #######   ##           ,######,      #####,   #    #        
            '#,     ,#'  ##    ##  '#,     ,#' ,#      #,     #,   #   #,  ,#        
             '#######'   ##     ##  '#######'  #'      '#     '####' # '####'        



                #########################################################
                #                        -***-                          #
                #          Department of theory and spectroscopy        #
                #                                                       #
                #                      Frank Neese                      #
                #                                                       #
                #     Directorship, Architecture, Infrastructure        #
                #                    SHARK, DRIVERS                     #
                #        Core code/Algorithms in most modules           #
                #                                                       #
                #        Max Planck Institute fuer Kohlenforschung      #
                #                Kaiser Wilhelm Platz 1                 #
                #                 D-45470 Muelheim/Ruhr                 #
                #                      Germany                          #
                #                                                       #
                #                  All rights reserved                  #
                #                        -***-                          #
                #########################################################


                         Program Version 6.0.1  -  RELEASE   -


 With contributions from (in alphabetic order):
[Max-Planck-Institut fuer Kohlenforschung]                               
  Daniel Aravena         : Magnetic Suceptibility                        
  Michael Atanasov       : Ab Initio Ligand Field Theory (pilot matlab implementation)
  Alexander A. Auer      : GIAO ZORA, VPT2 properties, NMR spectrum      
  Ute Becker             : All parallelization in ORCA, NUMFREQ, NUMCALC 
  Giovanni Bistoni       : ED, misc. LED, open-shell LED, HFLD           
  Martin Brehm           : Molecular dynamics                            
  Dmytro Bykov           : pre 5.0 version of the SCF Hessian            
  Marcos Casanova-Páez   : Triplet and SCS-CIS(D). UHF-(DLPNO)-IP/EA/STEOM-CCSD. UHF-CVS-IP/STEOM-CCSD   
  Vijay G. Chilkuri      : MRCI spin determinant printing, contributions to CSF-ICE 
  Pauline Colinet        : FMM embedding                                 
  Dipayan Datta          : RHF DLPNO-CCSD density                        
  Achintya Kumar Dutta   : EOM-CC, STEOM-CC                              
  Nicolas Foglia         : Exact transition moments, OPA infrastructure, MCD improvements    
  Dmitry Ganyushin       : Spin-Orbit,Spin-Spin,Magnetic field MRCI      
  Miquel Garcia-Rates    : C-PCM and meta-GGA Hessian, CCSD/C-PCM, Gaussian charge scheme 
  Tiago L. C. Gouveia    : GS-ROHF, GS-ROCIS                             
  Yang Guo               : DLPNO-NEVPT2, F12-NEVPT2, CIM, IAO-localization        
  Andreas Hansen         : Spin unrestricted coupled pair/coupled cluster methods 
  Ingolf Harden          : AUTO-CI MPn and infrastructure                
  Benjamin Helmich-Paris : MC-RPA, TRAH-(SCF,CASSCF), AVAS, COSX integrals, SCF dyn. polar. 
  Lee Huntington         : MR-EOM, pCC                                   
  Robert Izsak           : Overlap fitted RIJCOSX, COSX-SCS-MP3, EOM     
  Riya Kayal             : Wick's Theorem for AUTO-CI, AUTO-CI UHF-CCSDT 
  Emily Kempfer          : AUTO-CI, RHF CISDT and CCSDT                  
  Christian Kollmar      : KDIIS, OOCD, Brueckner-CCSD(T), CCSD density, CASPT2, CASPT2-K, improved NEVPT2 
  Axel Koslowski         : Symmetry handling                             
  Simone Kossmann        : meta-GGA functionals, TD-DFT gradient, OOMP2, (MP2 Hessian; deprecated post 5.0) 
  Lucas Lang             : DCDCAS                                        
  Marvin Lechner         : AUTO-CI (C++ implementation), FIC-MRCC        
  Spencer Leger          : CASSCF response                               
  Dagmar Lenk            : GEPOL surface, SMD, ORCA-2-JSON               
  Dimitrios Liakos       : Extrapolation schemes; Compound Job, initial MDCI parallelization 
  Dimitrios Manganas     : Further ROCIS development; embedding schemes. LFT, Crystal Embedding 
  Dimitrios Pantazis     : SARC Basis sets                               
  Anastasios Papadopoulos: AUTO-CI, single reference methods and gradients 
  Taras Petrenko         : pre 6.0 DFT Hessian and TD-DFT gradient, (ASA, deprecated), ECA, 1-Electron XAS/XES, NRVS 
  Peter Pinski           : DLPNO-MP2, DLPNO-MP2 Gradient                 
  Christoph Reimann      : Effective Core Potentials                     
  Marius Retegan         : Local ZFS, SOC                                
  Christoph Riplinger    : Optimizer, TS searches, QM/MM, DLPNO-CCSD(T), (RO)-DLPNO pert. Triples 
  Michael Roemelt        : Original ROCIS implementation                 
  Masaaki Saitow         : Open-shell DLPNO-CCSD energy and density      
  Barbara Sandhoefer     : DKH picture change effects                    
  Kantharuban Sivalingam : CASSCF convergence/infrastructure, NEVPT2 and variants, FIC-MRCI 
  Bernardo de Souza      : ESD, SOC TD-DFT                               
  Georgi L. Stoychev     : AutoAux, RI-MP2 NMR, DLPNO-MP2 response, X2C  
  Van Anh Tran           : RI-MP2 g-tensors                              
  Willem Van den Heuvel  : Paramagnetic NMR                              
  Zikuan Wang            : NOTCH, Electric field optimization            
  Frank Wennmohs         : Technical directorship and infrastructure     
  Hang Xu                : AUTO-CI-Response properties                   
                                                                         
[FACCTs GmbH]                                                            
  Markus Bursch, Miquel Garcia-Rates, Christoph Riplinger, Bernardo de Souza, Georgi L. Stoychev 
                                                                 
  APM, Basis sets (HGBS, AHGBS, def-TZVP (Ac-Lr), def2-XVPD (La-Lu)), CI-OPT, improved COSX, DLPNO-Multilevel,           
  DOCKER, DRACO, updates on ESD, GOAT, IRC, LR-CPCM, MBIS, meta-GGA TD-DFT gradient, ML-optimized integration grids, 
  MM, NACMEs, nearIR, NEB, NEB-TS, NL-DFT gradient (VV10), 2- and 3-layer-ONIOM, interface openCOSMO-RS, QMMM,   
  Crystal-QMMM, SF, symmetry and pop. for TD-DFT, r2SCAN hybrids, SOLVATOR                                   
                                                                         
[Other institutions]                                                     
  V. Asgeirsson          : NEB                                           
  Christoph Bannwarth    : sTDA-DFT, sTD-DFT, PBEh-3c, B97-3c, D3        
  Sebastian Ehlert       : rSCAN, r2SCAN, r2SCAN-3c, D4, dhf basis sets  
  Marvin Friede          : D4 for Fr, Ra, Ac-Lr                          
  Lars Goerigk           : TD-DFT with DH, B97 family of functionals     
  Stefan Grimme          : VdW corrections, initial TS optimization, DFT functionals, gCP, sTDA/sTD-DF 
  Waldemar Hujo          : DFT-NL                                        
  H. Jonsson             : NEB                                           
  Holger Kruse           : gCP                                           
  Marcel Mueller         : wB97X-3c, vDZP basis set                      
  Hagen Neugebauer       : wr2SCAN                                       
  Tobias Risthaus        : range-separated hybrid DFT                    
  Lukas Wittmann         : regularized MP2, r2SCAN double-hybrids, wr2SCAN        
                                                                         
We gratefully acknowledge several colleagues who have allowed us to      
interface, adapt or use parts of their codes:                            
  Ed Valeev, F. Pavosevic, A. Kumar             : LibInt (2-el integral package), F12 methods 
  Garnet Chan, S. Sharma, J. Yang, R. Olivares  : DMRG                   
  Ulf Ekstrom                                   : XCFun DFT Library      
  Mihaly Kallay                                 : mrcc  (arbitrary order and MRCC methods)
  Frank Weinhold                                : gennbo (NPA and NBO analysis)           
  Simon Mueller                                 : openCOSMO-RS                            
  Christopher J. Cramer and Donald G. Truhlar   : smd solvation model                     
  S Lehtola, MJT Oliveira, MAL Marques          : LibXC Library                           
  Liviu Ungur et al                             : ANISO software                          


 Your calculation uses the libint2 library for the computation of 2-el integrals
 For citations please refer to: http://libint.valeyev.net

 Your ORCA version has been built with support for libXC version: 6.2.2
 For citations please refer to: https://libxc.gitlab.io

 This ORCA versions uses:
   CBLAS   interface :  Fast vector & matrix operations
   LAPACKE interface :  Fast linear algebra routines
   SCALAPACK package :  Parallel linear algebra routines
   Shared memory     :  Shared parallel matrices
   BLAS/LAPACK       :  OpenBLAS 0.3.27  USE64BITINT DYNAMIC_ARCH NO_AFFINITY Zen SINGLE_THREADED
        Core in use  :  Zen
   Copyright (c) 2011-2014, The OpenBLAS Project




***************************************
The coordinates will be read from file: xtb_opt.xyz
***************************************


Your calculation utilizes the geometrical counterpoise correction gCP
Please cite in your paper:
H.Kruse, S. Grimme J.Chem.Phys., 136, (2012), 154101 
   

Your calculation utilizes the atom-pairwise dispersion correction
based on EEQ partial charges (D4)


================================================================================

----- Orbital basis set information -----
Your calculation utilizes the basis: def2-mTZVPP
   Stefan Grimme, Andreas Hansen, Sebastian Ehlert, and Jan-Michael Mewes 
   J. Chem. Phys. 154, 064103 (2021). DOI: 10.1063/5.0040021

----- AuxJ basis set information -----
Your calculation utilizes the auxiliary basis: def2/J
   F. Weigend, Phys. Chem. Chem. Phys. 8, 1057 (2006).

================================================================================
                                        WARNINGS
                       Please study these warnings very carefully!
================================================================================

WARNING: Old DensityContainer found on disk!
         Will remove this file - 
         If you want to keep old densities, please start your calculation with a different basename. 



WARNING: SCAN, rSCAN, or r2SCAN functional requested.
  ===> : libXC variant has now been activated.



================================================================================
                                       INPUT FILE
================================================================================
NAME = xtb_opt.inp
|  1> ! r2scan-3c def2/J RI DEFGRID2 scfconv7 ENGRAD tightSCF miniprint
|  2> * xyzfile 0 1 xtb_opt.xyz
|  3> 
|  4>                          ****END OF INPUT****
================================================================================

                     *******************************
                     * Energy+Gradient Calculation *
                     *******************************

---------------------------------
CARTESIAN COORDINATES (ANGSTROEM)
---------------------------------
  C     -1.925643    1.214661    0.186480
  C     -1.507098   -0.212326   -0.156917
  C     -0.025237   -0.503714   -0.074020
  O      0.458517   -1.612196   -0.111437
  O      0.706288    0.621172    0.033563
  C      2.122847    0.433571    0.103028
  H     -1.624076    1.472650    1.203313
  H     -1.459344    1.931316   -0.490620
  H     -3.009609    1.322132    0.111182
  H     -1.809517   -0.468492   -1.178964
  H     -1.998254   -0.941307    0.494343
  H      2.384374   -0.221326    0.938384
  H      2.546453    1.427110    0.246601
  H      2.496987   -0.012242   -0.822775

----------------------------
CARTESIAN COORDINATES (A.U.)
----------------------------
  NO LB      ZA    FRAG     MASS         X           Y           Z
   0 C     6.0000    0    12.011   -3.638937    2.295377    0.352396
   1 C     6.0000    0    12.011   -2.848002   -0.401237   -0.296529
   2 C     6.0000    0    12.011   -0.047691   -0.951882   -0.139877
   3 O     8.0000    0    15.999    0.866471   -3.046609   -0.210586
   4 O     8.0000    0    15.999    1.334690    1.173845    0.063425
   5 C     6.0000    0    12.011    4.011599    0.819331    0.194695
   6 H     1.0000    0     1.008   -3.069059    2.782905    2.273931
   7 H     1.0000    0     1.008   -2.757761    3.649659   -0.927138
   8 H     1.0000    0     1.008   -5.687338    2.498466    0.210104
   9 H     1.0000    0     1.008   -3.419492   -0.885321   -2.227919
  10 H     1.0000    0     1.008   -3.776153   -1.778813    0.934173
  11 H     1.0000    0     1.008    4.505813   -0.418246    1.773289
  12 H     1.0000    0     1.008    4.812098    2.696847    0.466009
  13 H     1.0000    0     1.008    4.718622   -0.023135   -1.554819

------------------------------------------------------------------------------
                   ___                                                        
                  /   \      - P O W E R E D   B Y -                         
                 /     \                                                     
                 |  |  |   _    _      __       _____    __    __             
                 |  |  |  | |  | |    /  \     |  _  \  |  |  /  |          
                  \  \/   | |  | |   /    \    | | | |  |  | /  /          
                 / \  \   | |__| |  /  /\  \   | |_| |  |  |/  /          
                |  |  |   |  __  | /  /__\  \  |    /   |      \           
                |  |  |   | |  | | |   __   |  |    \   |  |\   \          
                \     /   | |  | | |  |  |  |  | |\  \  |  | \   \       
                 \___/    |_|  |_| |__|  |__|  |_| \__\ |__|  \__/        
                                                                              
                      - O R C A' S   B I G   F R I E N D -                    
                                      &                                       
                       - I N T E G R A L  F E E D E R -                       
                                                                              
 v1 FN, 2020, v2 2021, v3 2022-2024                                           
------------------------------------------------------------------------------


----------------------
SHARK INTEGRAL PACKAGE
----------------------

Number of atoms                             ...     14
Number of basis functions                   ...    164
Number of shells                            ...     80
Maximum angular momentum                    ...      2
Integral batch strategy                     ... SHARK/LIBINT Hybrid
RI-J (if used) integral strategy            ... SPLIT-RIJ (Revised 2003 algorithm where possible)
Printlevel                                  ...      1
Contraction scheme used                     ... SEGMENTED contraction
Prescreening option                         ... SCHWARTZ
   Thresh                                   ... 3.000e-11
   Tcut                                     ... 1.000e-12
   Tpresel                                  ... 1.000e-12 
Coulomb Range Separation                    ... NOT USED
Exchange Range Separation                   ... NOT USED
Multipole approximations                    ... NOT USED
Finite Nucleus Model                        ... NOT USED
CABS basis                                  ... NOT available
Auxiliary Coulomb fitting basis             ... AVAILABLE
   # of basis functions in Aux-J            ...    382
   # of shells in Aux-J                     ...    130
   Maximum angular momentum in Aux-J        ...      4
Auxiliary J/K fitting basis                 ... NOT available
Auxiliary Correlation fitting basis         ... NOT available
Auxiliary 'external' fitting basis          ... NOT available

Checking pre-screening integrals            ... done (  0.0 sec) Dimension = 80
Check shell pair data                       ... done (  0.0 sec)
Shell pair information
Shell pair cut-off parameter TPreSel        ...   1.0e-12
Total number of shell pairs                 ...      3240
Shell pairs after pre-screening             ...      3030
Total number of primitive shell pairs       ...     11481
Primitive shell pairs kept                  ...      7956
          la=0 lb=0:    985 shell pairs
          la=1 lb=0:   1119 shell pairs
          la=1 lb=1:    330 shell pairs
          la=2 lb=0:    356 shell pairs
          la=2 lb=1:    204 shell pairs
          la=2 lb=2:     36 shell pairs

Calculating one electron integrals          ... done (  0.0 sec)
Calculating RI/J V-Matrix + Cholesky decomp.... done (  0.0 sec)
Calculating Nuclear repulsion               ... done (  0.0 sec) ENN=    246.933721473032 Eh

Diagonalization of the overlap matrix:
Smallest eigenvalue                        ... 1.830e-04
Time for diagonalization                   ...    0.003 sec
Threshold for overlap eigenvalues          ... 1.000e-07
Number of eigenvalues below threshold      ... 0
Time for construction of square roots      ...    0.001 sec
Total time needed                          ...    0.005 sec

-------------------
DFT GRID GENERATION
-------------------

General Integration Accuracy     IntAcc      ... 4.388
Radial Grid Type                 RadialGrid  ... OptM3 with GC (2021)
Angular Grid (max. ang.)         AngularGrid ... 4 (Lebedev-302)
Angular grid pruning method      GridPruning ... 4 (adaptive)
Weight generation scheme         WeightScheme... mBecke (2022)
Basis function cutoff            BFCut       ... 1.0000e-11
Integration weight cutoff        WCut        ... 1.0000e-14
Partially contracted basis set               ... off
Rotationally invariant grid construction     ... off
Angular grids for H and He will be reduced by one unit
Diffuse basis detected: some atoms will have their outermost
                        angular grid increased by 1.

Total number of grid points                  ...    62757
Total number of batches                      ...      989
Average number of points per batch           ...       63
Average number of grid points per atom       ...     4483
Initializing property integral containers    ... done (  0.0 sec)

SHARK setup successfully completed in   0.7 seconds

Maximum memory used throughout the entire STARTUP-calculation: 28.6 MB
Occupation numbers will be reassigned to an Aufbau configuration
             **** ENERGY FILE WAS UPDATED (xtb_opt.en.tmp) ****
Finished Guess after   0.1 sec
Maximum memory used throughout the entire GUESS-calculation: 11.6 MB
----------------------------------------D-I-I-S--------------------------------------------
Iteration    Energy (Eh)           Delta-E    RMSDP     MaxDP     DIISErr   Damp  Time(sec)
-------------------------------------------------------------------------------------------
               ***  Starting incremental Fock matrix formation  ***
    1    -307.6386429306585342     0.00e+00  8.15e-05  1.96e-03  5.06e-03  0.700   1.7
    2    -307.6387114913884488    -6.86e-05  7.40e-05  1.88e-03  3.87e-03  0.700   1.4
                               ***Turning on AO-DIIS***
                              *** Initializing SOSCF ***
---------------------------------------S-O-S-C-F--------------------------------------
Iteration    Energy (Eh)           Delta-E    RMSDP     MaxDP     MaxGrad    Time(sec)
--------------------------------------------------------------------------------------
    3    -307.6387602730245590    -4.88e-05  1.97e-04  5.37e-03  2.78e-03     1.4
               *** Restarting incremental Fock matrix formation ***
    4    -307.6388698392464676    -1.10e-04  7.51e-05  1.74e-03  6.01e-04     2.3
    5    -307.6388494820938604     2.04e-05  5.40e-05  1.09e-03  1.87e-03     1.4
    6    -307.6388735826645870    -2.41e-05  1.77e-05  6.13e-04  8.01e-05     1.7
    7    -307.6388731373460814     4.45e-07  1.11e-05  4.12e-04  1.47e-04     1.3
    8    -307.6388738111668317    -6.74e-07  2.75e-06  4.26e-05  2.27e-05     1.2
                  *** Gradient check signals convergence ***

               *****************************************************
               *                     SUCCESS                       *
               *           SCF CONVERGED AFTER   8 CYCLES          *
               *****************************************************

             **** ENERGY FILE WAS UPDATED (xtb_opt.en.tmp) ****

----------------
TOTAL SCF ENERGY
----------------

Total Energy       :       -307.63887381116683 Eh           -8371.27934 eV

Components:
Nuclear Repulsion  :        246.93372147303219 Eh            6719.40817 eV
Electronic Energy  :       -554.57259528419900 Eh          -15090.68751 eV
One Electron Energy:       -907.35260541990772 Eh          -24690.31963 eV
Two Electron Energy:        352.78001013570866 Eh            9599.63211 eV

Virial components:
Potential Energy   :       -613.96891439640115 Eh          -16706.94353 eV
Kinetic Energy     :        306.33004058523431 Eh            8335.66418 eV
Virial Ratio       :          2.00427262446553

DFT components:
N(Alpha)           :       23.999973682616 electrons
N(Beta)            :       23.999973682616 electrons
N(Total)           :       47.999947365231 electrons
E(X)               :      -40.211695476152 Eh       
E(C)               :       -1.537822081840 Eh       
E(XC)              :      -41.749517557992 Eh       

---------------
SCF CONVERGENCE
---------------

  Last Energy change         ...    6.7382e-07  Tolerance :   1.0000e-07
  Last MAX-Density change    ...    4.2591e-05  Tolerance :   1.0000e-07
  Last RMS-Density change    ...    2.7542e-06  Tolerance :   5.0000e-09
  Last DIIS Error            ...    2.7839e-03  Tolerance :   1.0000e-07
  Last Orbital Gradient      ...    2.2729e-05  Tolerance :   1.0000e-04
  Last Orbital Rotation      ...    4.1446e-05  Tolerance :   1.0000e-04


----------------
ORBITAL ENERGIES
----------------

  NO   OCC          E(Eh)            E(eV) 
   0   2.0000     -19.001015      -517.0439 
   1   2.0000     -18.932073      -515.1679 
   2   2.0000     -10.155248      -276.3384 
   3   2.0000     -10.087060      -274.4829 
   4   2.0000     -10.048599      -273.4363 
   5   2.0000     -10.028768      -272.8966 
   6   2.0000      -1.070448       -29.1284 
   7   2.0000      -0.979136       -26.6437 
   8   2.0000      -0.759538       -20.6681 
   9   2.0000      -0.688360       -18.7312 
  10   2.0000      -0.616912       -16.7870 
  11   2.0000      -0.535194       -14.5634 
  12   2.0000      -0.466568       -12.6960 
  13   2.0000      -0.459973       -12.5165 
  14   2.0000      -0.436126       -11.8676 
  15   2.0000      -0.419320       -11.4103 
  16   2.0000      -0.389869       -10.6089 
  17   2.0000      -0.367634       -10.0038 
  18   2.0000      -0.359276        -9.7764 
  19   2.0000      -0.337043        -9.1714 
  20   2.0000      -0.325479        -8.8567 
  21   2.0000      -0.317708        -8.6453 
  22   2.0000      -0.275291        -7.4910 
  23   2.0000      -0.238405        -6.4873 
  24   0.0000      -0.016997        -0.4625 
  25   0.0000       0.061572         1.6755 
  26   0.0000       0.097845         2.6625 
  27   0.0000       0.115447         3.1415 
  28   0.0000       0.124227         3.3804 
  29   0.0000       0.153063         4.1651 
  30   0.0000       0.154765         4.2114 
  31   0.0000       0.168405         4.5825 
  32   0.0000       0.171112         4.6562 
  33   0.0000       0.183034         4.9806 
  34   0.0000       0.188088         5.1181 
*Only the first 10 virtual orbitals were printed.
Total SCF time: 0 days 0 hours 0 min 12 sec 
Finished LeanSCF after  12.5 sec

Maximum memory used throughout the entire LEANSCF-calculation: 17.5 MB


-------------------------------------------------------------------------------
                          DFT DISPERSION CORRECTION                            
                                                                               
                                DFTD4 V3.4.0                                   
-------------------------------------------------------------------------------
-------------------------   ----------------
Dispersion correction           -0.003002609
-------------------------   ----------------

------------------   -----------------
gCP correction             0.009281921
------------------   -----------------

-------------------------   --------------------
FINAL SINGLE POINT ENERGY      -307.632594499305
-------------------------   --------------------

------------------------------------------------------------------------------
                         ORCA SCF GRADIENT CALCULATION
------------------------------------------------------------------------------

Nuc. rep. gradient        (SHARK) ... done (  0.0 sec)
HCore & Overlap gradient  (SHARK) ... done (  0.3 sec)
Split-RIJ-J gradient      (SHARK) ... done (  1.7 sec)
XC gradient                       ... done (  5.2 sec)
Dispersion correction             ... done (  0.0 sec)

-------------------
DISPERSION GRADIENT
-------------------

   1   C   :   -0.000061137    0.000035989    0.000005397
   2   C   :   -0.000052834   -0.000011723   -0.000006089
   3   C   :    0.000012771   -0.000020286   -0.000002772
   4   O   :    0.000019269   -0.000060923   -0.000004984
   5   O   :    0.000036722    0.000007090    0.000000280
   6   C   :    0.000075810    0.000001106    0.000002369
   7   H   :   -0.000025252    0.000017503    0.000010372
   8   H   :   -0.000024133    0.000020587   -0.000002945
   9   H   :   -0.000024038    0.000013607    0.000001796
  10   H   :   -0.000019527   -0.000007284   -0.000010373
  11   H   :   -0.000019134   -0.000011385    0.000003110
  12   H   :    0.000025418    0.000001294    0.000003748
  13   H   :    0.000030631    0.000011676    0.000002024
  14   H   :    0.000025437    0.000002751   -0.000001933

Difference to translation invariance:
           :   -0.0000000000    0.0000000000    0.0000000000

Difference to rotation invariance:
           :   -0.0000000000   -0.0000000000    0.0000000000

Norm of the Dispersion gradient    ...    0.0001617090
RMS gradient                       ...    0.0000249522
MAX gradient                       ...    0.0000758095
gCP correction                   ... done

------------------
CARTESIAN GRADIENT
------------------

   1   C   :   -0.000861726    0.001412798    0.000350222
   2   C   :   -0.000383869   -0.001658872   -0.000693470
   3   C   :    0.002502929    0.004742122    0.000390990
   4   O   :    0.000259613   -0.000121328    0.000133660
   5   O   :    0.002637436   -0.006106082   -0.000319723
   6   C   :   -0.005946439    0.001974451   -0.000181320
   7   H   :    0.000193098   -0.000731958   -0.000873418
   8   H   :    0.000209553   -0.001047444    0.000390280
   9   H   :    0.001041412    0.000209218    0.000065128
  10   H   :    0.000185897    0.000770743    0.000482583
  11   H   :    0.000209088    0.000769239    0.000213340
  12   H   :    0.000036414    0.000025016   -0.000182847
  13   H   :   -0.000131771   -0.000402649    0.000041371
  14   H   :    0.000048365    0.000164746    0.000183204

Difference to translation invariance:
           :    0.0000000000   -0.0000000000   -0.0000000000

Difference to rotation invariance:
           :    0.0000106041   -0.0000737124    0.0001580723

Norm of the Cartesian gradient     ...    0.0111563650
RMS gradient                       ...    0.0017214645
MAX gradient                       ...    0.0061060817

-------
TIMINGS
-------

Total SCF gradient time     ....        7.292 sec

Densities                   ....       0.000 sec  (  0.0%)
One electron gradient       ....       0.324 sec  (  4.4%)
RI-J Coulomb gradient       ....       1.710 sec  ( 23.4%)
XC gradient                 ....       5.216 sec  ( 71.5%)

Maximum memory used throughout the entire SCFGRAD-calculation: 31.7 MB

------------------------------------------------------------------------------
                              ORCA PROPERTY CALCULATIONS
------------------------------------------------------------------------------

GBWName                                 ... xtb_opt.gbw
Number of atoms                         ...     14
Number of basis functions               ...    164
Max core memory                         ...   1024 MB

Electric properties:
Dipole moment                           ... YES
Quadrupole moment                       ...  NO
Static polarizability (Dipole/Dipole)   ...  NO
Static polarizability (Dipole/Quad.)    ...  NO
Static polarizability (Quad./Quad.)     ...  NO
Static polarizability (Velocity)        ...  NO

Atomic electric properties:
Dipole moment                           ...  NO
Quadrupole moment                       ...  NO
Static polarizability                   ...  NO

Choice of electric origin               ... Center of mass
Position of electric origin             ...     0.002288    -0.002422    -0.000792

General magnetic properties:
Magnetizability                         ...  NO

EPR properties:
g-Tensor (aka g-matrix)                 ...  NO
Zero-Field splitting spin-orbit         ...  NO
Zero-field splitting spin-spin          ...  NO
Hyperfine couplings                     ...  NO (   0 nuclei)
Quadrupole couplings                    ...  NO (   0 nuclei)
Contact density                         ...  NO (   0 nuclei)

NMR properties:
Chemical shifts                         ...  NO (   0 nuclei)
Spin-rotation constants                 ...  NO (   0 nuclei)
Spin-spin couplings                     ...  NO (   0 nuclei,    0 pairs)

Choice of magnetic origin               ... GIAO
Position of magnetic origin             ...     0.000000     0.000000     0.000000

Properties with geometric perturbations:
SCF Hessian                             ...  NO
IR spectrum                             ...  NO
VCD spectrum                            ...  NO
X-ray spectroscopy properties:
SCF XES/XAS/RIXS spectra                ...  NO


-------------
DIPOLE MOMENT
-------------

Method             : SCF
Type of density    : Electron Density
Multiplicity       :   1
Irrep              :   0
Energy             :  -307.6388738111668317 Eh
Relativity type    : 
Basis              : AO
                                X                 Y                 Z
Electronic contribution:      2.248235619      -3.446741164      -0.439106160
Nuclear contribution   :     -2.311995955       4.226024219       0.472468194
                        -----------------------------------------
Total Dipole Moment    :     -0.063760336       0.779283056       0.033362034
                        -----------------------------------------
Magnitude (a.u.)       :      0.782598548
Magnitude (Debye)      :      1.989207424



--------------------
Rotational spectrum 
--------------------
 
Rotational constants in cm-1:             0.201126             0.090263             0.064743 
Rotational constants in MHz :          6029.592113          2706.017289          1940.940564 

Dipole components along the rotational axes: 
x,y,z [a.u.] :    -0.225710     0.747276    -0.055627 
x,y,z [Debye]:    -0.573710     1.899424    -0.141392 

 

[...]
    3    -307.6390423459912427     8.15e-07  9.73e-06  2.60e-04  3.75e-04     1.5
    4    -307.6390432945906923    -9.49e-07  6.23e-07  1.17e-05  4.26e-06     1.3
                  *** Gradient check signals convergence ***

               *****************************************************
               *                     SUCCESS                       *
               *           SCF CONVERGED AFTER   4 CYCLES          *
               *****************************************************

             **** ENERGY FILE WAS UPDATED (xtb_opt.en.tmp) ****

----------------
TOTAL SCF ENERGY
----------------

Total Energy       :       -307.63904329459069 Eh           -8371.28396 eV

Components:
Nuclear Repulsion  :        246.27254789567851 Eh            6701.41672 eV
Electronic Energy  :       -553.91159119026918 Eh          -15072.70068 eV
One Electron Energy:       -906.06321498599402 Eh          -24655.23353 eV
Two Electron Energy:        352.15162379572484 Eh            9582.53285 eV

Virial components:
Potential Energy   :       -613.93038767773157 Eh          -16705.89516 eV
Kinetic Energy     :        306.29134438314088 Eh            8334.61120 eV
Virial Ratio       :          2.00440005549019

DFT components:
N(Alpha)           :       23.999976990380 electrons
N(Beta)            :       23.999976990380 electrons
N(Total)           :       47.999953980761 electrons
E(X)               :      -40.201156662158 Eh       
E(C)               :       -1.537092925243 Eh       
E(XC)              :      -41.738249587401 Eh       

---------------
SCF CONVERGENCE
---------------

  Last Energy change         ...    9.4860e-07  Tolerance :   1.0000e-07
  Last MAX-Density change    ...    1.1739e-05  Tolerance :   1.0000e-07
  Last RMS-Density change    ...    6.2258e-07  Tolerance :   5.0000e-09
  Last DIIS Error            ...    1.6748e-04  Tolerance :   1.0000e-07
  Last Orbital Gradient      ...    4.2618e-06  Tolerance :   1.0000e-04
  Last Orbital Rotation      ...    1.1865e-05  Tolerance :   1.0000e-04


----------------
ORBITAL ENERGIES
----------------

  NO   OCC          E(Eh)            E(eV) 
   0   2.0000     -19.000068      -517.0181 
   1   2.0000     -18.932671      -515.1842 
   2   2.0000     -10.155454      -276.3440 
   3   2.0000     -10.087077      -274.4833 
   4   2.0000     -10.049155      -273.4514 
   5   2.0000     -10.029584      -272.9189 
   6   2.0000      -1.066092       -29.0098 
   7   2.0000      -0.978156       -26.6170 
   8   2.0000      -0.758592       -20.6423 
   9   2.0000      -0.686149       -18.6711 
  10   2.0000      -0.617495       -16.8029 
  11   2.0000      -0.532980       -14.5031 
  12   2.0000      -0.464694       -12.6450 
  13   2.0000      -0.457871       -12.4593 
  14   2.0000      -0.435791       -11.8585 
  15   2.0000      -0.418570       -11.3899 
  16   2.0000      -0.389223       -10.5913 
  17   2.0000      -0.368402       -10.0247 
  18   2.0000      -0.359507        -9.7827 
  19   2.0000      -0.336939        -9.1686 
  20   2.0000      -0.326376        -8.8811 
  21   2.0000      -0.317246        -8.6327 
  22   2.0000      -0.275159        -7.4875 
  23   2.0000      -0.238861        -6.4997 
  24   0.0000      -0.017404        -0.4736 
  25   0.0000       0.059488         1.6187 
  26   0.0000       0.096534         2.6268 
  27   0.0000       0.114384         3.1126 
  28   0.0000       0.124484         3.3874 
  29   0.0000       0.152557         4.1513 
  30   0.0000       0.154720         4.2101 
  31   0.0000       0.168888         4.5957 
  32   0.0000       0.171146         4.6571 
  33   0.0000       0.183493         4.9931 
  34   0.0000       0.187820         5.1108 
*Only the first 10 virtual orbitals were printed.
Total SCF time: 0 days 0 hours 0 min 6 sec 
Finished LeanSCF after   6.1 sec

Maximum memory used throughout the entire LEANSCF-calculation: 17.5 MB


-------------------------------------------------------------------------------
                          DFT DISPERSION CORRECTION                            
                                                                               
                                DFTD4 V3.4.0                                   
-------------------------------------------------------------------------------
-------------------------   ----------------
Dispersion correction           -0.002992147
-------------------------   ----------------

------------------   -----------------
gCP correction             0.009222569
------------------   -----------------

-------------------------   --------------------
FINAL SINGLE POINT ENERGY      -307.632812872758
-------------------------   --------------------

------------------------------------------------------------------------------
                         ORCA SCF GRADIENT CALCULATION
------------------------------------------------------------------------------

Nuc. rep. gradient        (SHARK) ... done (  0.0 sec)
HCore & Overlap gradient  (SHARK) ... done (  0.3 sec)
Split-RIJ-J gradient      (SHARK) ... done (  1.2 sec)
XC gradient                       ... done (  5.3 sec)
Dispersion correction             ... done (  0.0 sec)

-------------------
DISPERSION GRADIENT
-------------------

   1   C   :   -0.000061299    0.000035849    0.000005437
   2   C   :   -0.000052834   -0.000011660   -0.000006146
   3   C   :    0.000013043   -0.000020287   -0.000002802
   4   O   :    0.000019273   -0.000060198   -0.000005200
   5   O   :    0.000038637    0.000006962    0.000000452
   6   C   :    0.000074362    0.000001068    0.000002303
   7   H   :   -0.000025131    0.000017551    0.000010363
   8   H   :   -0.000024070    0.000020670   -0.000002861
   9   H   :   -0.000023836    0.000013297    0.000001803
  10   H   :   -0.000019366   -0.000007246   -0.000010349
  11   H   :   -0.000018970   -0.000011381    0.000003071
  12   H   :    0.000025153    0.000001411    0.000003676
  13   H   :    0.000029975    0.000011338    0.000001939
  14   H   :    0.000025064    0.000002626   -0.000001687

Difference to translation invariance:
           :   -0.0000000000   -0.0000000000    0.0000000000

Difference to rotation invariance:
           :    0.0000000000    0.0000000000    0.0000000000

Norm of the Dispersion gradient    ...    0.0001608959
RMS gradient                       ...    0.0000248268
MAX gradient                       ...    0.0000743622
gCP correction                   ... done

------------------
CARTESIAN GRADIENT
------------------

   1   C   :    0.000039232    0.000021649    0.000033176
   2   C   :   -0.000031970   -0.000022116    0.000130732
   3   C   :   -0.000021349   -0.000318442   -0.000402261
   4   O   :   -0.000084354    0.000281627    0.000178001
   5   O   :   -0.000091548    0.000156021    0.000001332
   6   C   :    0.000316613   -0.000053616    0.000103782
   7   H   :   -0.000064875   -0.000047081   -0.000115609
   8   H   :   -0.000050595   -0.000095915    0.000050798
   9   H   :    0.000102821   -0.000035940   -0.000010018
  10   H   :    0.000082413    0.000040543    0.000059776
  11   H   :   -0.000045140    0.000063427    0.000028539
  12   H   :   -0.000072165   -0.000022980   -0.000086414
  13   H   :   -0.000028480   -0.000042873    0.000044583
  14   H   :   -0.000050602    0.000075695   -0.000016417

Difference to translation invariance:
           :    0.0000000000   -0.0000000000    0.0000000000

Difference to rotation invariance:
           :    0.0000750716   -0.0000822032    0.0001602866

Norm of the Cartesian gradient     ...    0.0008009323
RMS gradient                       ...    0.0001235865
MAX gradient                       ...    0.0004022606

-------
TIMINGS
-------

Total SCF gradient time     ....        6.813 sec

Densities                   ....       0.000 sec  (  0.0%)
One electron gradient       ....       0.258 sec  (  3.8%)
RI-J Coulomb gradient       ....       1.196 sec  ( 17.6%)
XC gradient                 ....       5.304 sec  ( 77.9%)

Maximum memory used throughout the entire SCFGRAD-calculation: 31.7 MB

------------------------------------------------------------------------------
                              ORCA PROPERTY CALCULATIONS
------------------------------------------------------------------------------

GBWName                                 ... xtb_opt.gbw
Number of atoms                         ...     14
Number of basis functions               ...    164
Max core memory                         ...   1024 MB

Electric properties:
Dipole moment                           ... YES
Quadrupole moment                       ...  NO
Static polarizability (Dipole/Dipole)   ...  NO
Static polarizability (Dipole/Quad.)    ...  NO
Static polarizability (Quad./Quad.)     ...  NO
Static polarizability (Velocity)        ...  NO

Atomic electric properties:
Dipole moment                           ...  NO
Quadrupole moment                       ...  NO
Static polarizability                   ...  NO

Choice of electric origin               ... Center of mass
Position of electric origin             ...     0.010254     0.011991     0.001390

General magnetic properties:
Magnetizability                         ...  NO

EPR properties:
g-Tensor (aka g-matrix)                 ...  NO
Zero-Field splitting spin-orbit         ...  NO
Zero-field splitting spin-spin          ...  NO
Hyperfine couplings                     ...  NO (   0 nuclei)
Quadrupole couplings                    ...  NO (   0 nuclei)
Contact density                         ...  NO (   0 nuclei)

NMR properties:
Chemical shifts                         ...  NO (   0 nuclei)
Spin-rotation constants                 ...  NO (   0 nuclei)
Spin-spin couplings                     ...  NO (   0 nuclei,    0 pairs)

Choice of magnetic origin               ... GIAO
Position of magnetic origin             ...     0.000000     0.000000     0.000000

Properties with geometric perturbations:
SCF Hessian                             ...  NO
IR spectrum                             ...  NO
VCD spectrum                            ...  NO
X-ray spectroscopy properties:
SCF XES/XAS/RIXS spectra                ...  NO


-------------
DIPOLE MOMENT
-------------

Method             : SCF
Type of density    : Electron Density
Multiplicity       :   1
Irrep              :   0
Energy             :  -307.6390432945906923 Eh
Relativity type    : 
Basis              : AO
                                X                 Y                 Z
Electronic contribution:      2.302308330      -3.372870059      -0.424053339
Nuclear contribution   :     -2.369750850       4.123214103       0.456282945
                        -----------------------------------------
Total Dipole Moment    :     -0.067442520       0.750344044       0.032229606
                        -----------------------------------------
Magnitude (a.u.)       :      0.754057972
Magnitude (Debye)      :      1.916663045



--------------------
Rotational spectrum 
--------------------
 
Rotational constants in cm-1:             0.203084             0.088877             0.064216 
Rotational constants in MHz :          6088.299120          2664.471875          1925.149351 

Dipole components along the rotational axes: 
x,y,z [a.u.] :    -0.222278     0.718373    -0.056008 
x,y,z [Debye]:    -0.564985     1.825958    -0.142361 

 

Dipole moment calculation done in   0.0 sec 

Maximum memory used throughout the entire PROP-calculation: 10.0 MB

--------------------------------
SUGGESTED CITATIONS FOR THIS RUN
--------------------------------

Below you find a list of papers that are relevant to this ORCA run
We neither can nor want to force you to cite these papers, but we appreciate if you do
You receive ORCA, which is the product of decades of hard work by many enthusiastic individuals, for free
The only thing we kindly ask in return is that you cite our papers,
We deeply appreciate it, if you show your appreciation for ORCA by not just citing the generic ORCA reference.

Please note that relegating all ORCA citations to the supporting information does *not* help us.
SI sections are not indexed - citations you put there will not count into any citation statistics
But we need these citations in order to attract the funding resources that allow us to do what we are doing

Therefore, if you are a happy ORCA user, please consider citing a few of the papers listed below in the main body of your paper

In addition to the list printed below, the program has created the file xtb_opt.bibtex that contains the list in bibtex format
You can import this file easily into all common literature databanks and citation aid programs


List of essential papers. We consider these as the minimum necessary citations

  1. Neese,F.
     Software update: the ORCA program system, version 5.0
     WIRES Comput. Molec. Sci., 2022 12(1)e1606
     doi.org/10.1002/wcms.1606
  2. Grimme,S.; Hansen,A.; Ehlert,S.; Mewes,J.
     r2SCAN-3c: A 'Swiss army knife' composite electronic-structure method
     J. Chem. Phys., 2021 154 064103
     doi.org/10.1063/5.0040021

List of papers to cite with high priority. The work reported in these papers was absolutely
necessary for this run to complete.
Our perspective: the developers of density functionals and basis sets usually get cited in chemistry papers
Good! But without the algorithms to do something with them, the functionals or basis sets would not do anything.
Hence, in our opinion, the algorithm design and method developments papers are equally worthy of getting cited

  1. Neese,F.
     An improvement of the resolution of the identity approximation for the formation of the Coulomb matrix
     J. Comp. Chem., 2003 24(14)1740-1747
     doi.org/10.1002/jcc.10318
  2. Neese,F.
     The SHARK Integral Generation and Digestion System
     J. Comp. Chem., 2022  1-16
     doi.org/10.1002/jcc.26942
  3. Lehtola,S.; Steigemann,C.; Oliveira,M.; Marques,M.
     Recent developments in Libxc - A comprehensive library of functionals for density functional theory
     Software X, 2018 7 
     doi.org/10.1016/j.softx.2017.11.002
  4. Caldeweyher,E.; Bannwarth,C.; Grimme,S.
     Extension of the D3 dispersion coefficient model
     J. Chem. Phys., 2017 147 034112
     doi.org/10.1063/1.4993215
  5. Caldeweyher,E.; Ehlert,S.; Hansen,A.; Neugebauer,H.; Spicher,S.; Bannwarth,C.; Grimme,S.
     A generally applicable atomic-charge dependent London dispersion correction
     J. Chem. Phys., 2019 150 154122
     doi.org/10.1063/1.5090222
  6. Caldeweyher,E.; Mewes,J.; Ehlert,S.; Grimme,S.
     Extension and evaluation of the D4 London-dispersion model for periodic systems
     Phys. Chem. Chem. Phys., 2020 22(16)8499-8512
     doi.org/10.1039/D0CP00502A
  7. Wittmann,L.; Gordiy,I.; Friede,M.; Helmich-Paris,B.; Grimme,S.; Hansen,A.; Bursch,M.
     Extension of the D3 and D4 London Dispersion Corrections to the full Actinides Series
     Phys. Chem. Chem. Phys., 2024 26(32)21379-21394
     doi.org/https://doi.org/10.1039/D4CP01514B 

List of suggested additional citations. These are papers that are important in the 'surrounding' of 
of this run, or papers that preceded the highly important papers. If you like your results we are grateful for a citation.

  1. Neese,F.
     The ORCA program system
     WIRES Comput. Molec. Sci., 2012 2(1)73-78
     doi.org/10.1002/wcms.81
  2. Neese,F.
     Software update: the ORCA program system, version 4.0
     WIRES Comput. Molec. Sci., 2018 8(1)1-6
     doi.org/10.1002/wcms.1327
  3. Neese,F.; Wennmohs,F.; Becker,U.; Riplinger,C.
     The ORCA quantum chemistry program package
     J. Chem. Phys., 2020 152 Art. No. L224108
     doi.org/10.1063/5.0004608

List of optional additional citations

  1. Neese,F.
     Approximate second-order SCF convergence for spin unrestricted wavefunctions
     Chem. Phys. Lett., 2000 325(1-3)93-98
     doi.org/10.1016/s0009-2614(00)00662-x

Timings for individual modules:

Sum of individual times          ...       13.960 sec (=   0.233 min)
Startup calculation              ...        0.742 sec (=   0.012 min)   5.3 %
SCF iterations                   ...        6.238 sec (=   0.104 min)  44.7 %
Property calculations            ...        0.099 sec (=   0.002 min)   0.7 %
SCF Gradient evaluation          ...        6.881 sec (=   0.115 min)  49.3 %
                             ****ORCA TERMINATED NORMALLY****
TOTAL RUN TIME: 0 days 0 hours 0 minutes 14 seconds 153 msec
  ------------------------------------------------------------------------
          * successful ORCA run, taking over control again...

         :::::::::::::::::::::::::::::::::::::::::::::::::::::
         ::                  ORCA SUMMARY                   ::
         :::::::::::::::::::::::::::::::::::::::::::::::::::::
         :: total energy            -307.632812872758 Eh    ::
         :: gradient norm              0.000800932282 Eh/a0 ::
         :: HOMO-LUMO gap              0.000000000000 eV    ::
         :::::::::::::::::::::::::::::::::::::::::::::::::::::

           -------------------------------------------------
          |                Property Printout                |
           -------------------------------------------------
           -------------------------------------------------
          |                Geometry Summary                 |
           -------------------------------------------------

      molecular mass/u    :       88.1052794
   center of mass at/Å    :        0.0054374       0.0063352       0.0007348
  moments of inertia/u·Å² :        0.8300804E+02   0.1896683E+03   0.2625096E+03
rotational constants/cm⁻¹ :        0.2030843E+00   0.8887954E-01   0.6421720E-01

 * 12 selected distances

     #   Z          #   Z                                           value/Å
     1   6          2   6                                         1.5246339 (max)
     3   6          4   8                                         1.2092471
     3   6          5   8                                         1.3542796
     5   8          6   6                                         1.4436447
     1   6          7   1                                         1.0927743
     1   6          8   1                                         1.0919005
     1   6          9   1                                         1.0935273
     2   6         10   1                                         1.0974634
     2   6         11   1                                         1.0949376
     6   6         12   1                                         1.0927345
     6   6         13   1                                         1.0898499 (min)
     6   6         14   1                                         1.0931144

 * 3 distinct bonds (by element types)

   Z      Z             #   av. dist./Å        max./Å        min./Å
   1 H    6 C           8     1.0932877     1.0974634     1.0898499
   6 C    6 C           1     1.5246339     1.5246339     1.5246339
   6 C    8 O           3     1.3357238     1.4436447     1.2092471


optimized geometry written to: xtbopt.coord


           -------------------------------------------------
          | TOTAL ENERGY             -307.632812872758 Eh   |
          | GRADIENT NORM               0.000800932282 Eh/α |
           -------------------------------------------------

------------------------------------------------------------------------
 * finished run on 2025/04/08 at 22:23:55.994     
------------------------------------------------------------------------
 total:
 * wall-time:     0 d,  0 h,  1 min, 59.994 sec
 *  cpu-time:     0 d,  0 h,  0 min,  0.460 sec
 * ratio c/w:     0.004 speedup
 SCF:
 * wall-time:     0 d,  0 h,  0 min, 14.948 sec
 *  cpu-time:     0 d,  0 h,  0 min,  0.067 sec
 * ratio c/w:     0.004 speedup
 ANC optimizer:
 * wall-time:     0 d,  0 h,  1 min, 44.725 sec
 *  cpu-time:     0 d,  0 h,  0 min,  0.007 sec
 * ratio c/w:     0.000 speedup

