      -----------------------------------------------------------      
     |                   =====================                   |     
     |                           x T B                           |     
     |                   =====================                   |     
     |                         S. Grimme                         |     
     |          Mulliken Center for Theoretical Chemistry        |     
     |                    University of Bonn                     |     
      -----------------------------------------------------------      

   * xtb version 6.7.1 (41059b4) compiled by 'michael@archlinux' on 2025-03-24

   xtb is free software: you can redistribute it and/or modify it under
   the terms of the GNU Lesser General Public License as published by
   the Free Software Foundation, either version 3 of the License, or
   (at your option) any later version.
   
   xtb is distributed in the hope that it will be useful,
   but WITHOUT ANY WARRANTY; without even the implied warranty of
   MERCHANTABILITY or FITNESS FOR A PARTICULAR PURPOSE.  See the
   GNU Lesser General Public License for more details.
   
   Cite this work as:
   * C. Bannwarth, E. Caldeweyher, S. Ehlert, A. Hansen, P. Pracht,
     J. Seibert, S. Spicher, S. Grimme, WIREs Comput. Mol. Sci., 2020, 11,
     e01493. DOI: 10.1002/wcms.1493
   
   for GFN2-xTB:
   * C. Bannwarth, S. Ehlert and S. Grimme., J. Chem. Theory Comput., 2019,
     15, 1652-1671. DOI: 10.1021/acs.jctc.8b01176
   for GFN1-xTB:
   * S. Grimme, C. Bannwarth, P. Shushkov, J. Chem. Theory Comput., 2017,
     13, 1989-2009. DOI: 10.1021/acs.jctc.7b00118
   for GFN0-xTB:
   * P. Pracht, E. Caldeweyher, S. Ehlert, S. Grimme, ChemRxiv, 2019, preprint.
     DOI: 10.26434/chemrxiv.8326202.v1
   for GFN-FF:
   * S. Spicher and S. Grimme, Angew. Chem. Int. Ed., 2020, 59, 15665-15673.
     DOI: 10.1002/anie.202004239
   
   for ALPB and GBSA implicit solvation:
   * S. Ehlert, M. Stahn, S. Spicher, S. Grimme, J. Chem. Theory Comput.,
     2021, 17, 4250-4261. DOI: 10.1021/acs.jctc.1c00471
   
   for ddCOSMO and CPCM-X implicit solvation:
   * M. Stahn, S. Ehlert, S. Grimme, J. Phys. Chem. A,
     2023, XX, XXXX-XXXX. DOI: 10.1021/acs.jpca.3c04382
   
   for DFT-D4:
   * E. Caldeweyher, C. Bannwarth and S. Grimme, J. Chem. Phys., 2017,
     147, 034112. DOI: 10.1063/1.4993215
   * E. Caldeweyher, S. Ehlert, A. Hansen, H. Neugebauer, S. Spicher,
     C. Bannwarth and S. Grimme, J. Chem. Phys., 2019, 150, 154122.
     DOI: 10.1063/1.5090222
   * E. Caldeweyher, J.-M. Mewes, S. Ehlert and S. Grimme, Phys. Chem. Chem. Phys.
     2020, 22, 8499-8512. DOI: 10.1039/D0CP00502A
   
   for sTDA-xTB:
   * S. Grimme and C. Bannwarth, J. Chem. Phys., 2016, 145, 054103.
     DOI: 10.1063/1.4959605
   
   in the mass-spec context:
   * V. Asgeirsson, C. Bauer and S. Grimme, Chem. Sci., 2017, 8, 4879.
     DOI: 10.1039/c7sc00601b
   * J. Koopman and S. Grimme, ACS Omega 2019, 4, 12, 15120-15133.
     DOI: 10.1021/acsomega.9b02011
   
   for metadynamics refer to:
   * S. Grimme, J. Chem. Theory Comput., 2019, 155, 2847-2862
     DOI: 10.1021/acs.jctc.9b00143
   
   for SPH calculations refer to:
   * S. Spicher and S. Grimme, J. Chem. Theory Comput., 2021, 17, 1701-1714
     DOI: 10.1021/acs.jctc.0c01306
   
   for ONIOM refer to:
   * C. Plett, A. Katbashev, S. Ehlert, S. Grimme, M. Bursch,
     Phys. Chem. Chem. Phys., 2023, 25, 17860-17868. DOI: 10.1039/D3CP02178E
   
   for DIPRO refer to:
   * J. Kohn, N. Gildemeister, S. Grimme, D. Fazzi, A. Hansen,
     J. Chem. Phys., 2023, just accepted.
   
   for PTB refer to:
   * S. Grimme, M. Mueller, A. Hansen, J. Chem. Phys., 2023, 158, 124111.
     DOI: 10.1063/5.0137838
   
   with help from (in alphabetical order)
   P. Atkinson, C. Bannwarth, F. Bohle, G. Brandenburg, E. Caldeweyher
   M. Checinski, S. Dohm, S. Ehlert, S. Ehrlich, I. Gerasimov, C. Hölzer
   A. Katbashev, J. Kohn, J. Koopman, C. Lavigne, S. Lehtola, F. März, M. Müller,
   F. Musil, H. Neugebauer, J. Pisarek, C. Plett, P. Pracht, F. Pultar,
   J. Seibert, P. Shushkov, S. Spicher, M. Stahn, M. Steiner, T. Strunk,
   J. Stückrath, T. Rose, and J. Unsleber
   
 * started run on 2025/04/09 at 03:09:42.001     
   ID    Z sym.   atoms
    1    6 C      1-6
    2    8 O      7
    3    1 H      8-13

           -------------------------------------------------
          |                Calculation Setup                |
           -------------------------------------------------

          program call               : /usr/bin/xtb xtb_rrho.coord --gfn2 --ohess vtight --chrg 0 --enso --norestart -I rrho-xcontrol-inp --parallel 1
          coordinate file            : xtb_rrho.coord
          omp threads                :                     1


           -------------------------------------------------
          |                 G F N 2 - x T B                 |
           -------------------------------------------------

        Reference                      10.1021/acs.jctc.8b01176
      * Hamiltonian:
        H0-scaling (s, p, d)           1.850000    2.230000    2.230000
        zeta-weighting                 0.500000
      * Dispersion:
        s8                             2.700000
        a1                             0.520000
        a2                             5.000000
        s9                             5.000000
      * Repulsion:
        kExp                           1.500000    1.000000
        rExp                           1.000000
      * Coulomb:
        alpha                          2.000000
        third order                    shell-resolved
        anisotropic                    true
        a3                             3.000000
        a5                             4.000000
        cn-shift                       1.200000
        cn-exp                         4.000000
        max-rad                        5.000000


          ...................................................
          :                      SETUP                      :
          :.................................................:
          :  # basis functions                  34          :
          :  # atomic orbitals                  34          :
          :  # shells                           20          :
          :  # electrons                        36          :
          :  max. iterations                   250          :
          :  Hamiltonian                  GFN2-xTB          :
          :  restarted?                      false          :
          :  GBSA solvation                  false          :
          :  PC potential                    false          :
          :  electronic temp.          300.0000000     K    :
          :  accuracy                    1.0000000          :
          :  -> integral cutoff          0.2500000E+02      :
          :  -> integral neglect         0.1000000E-07      :
          :  -> SCF convergence          0.1000000E-05 Eh   :
          :  -> wf. convergence          0.1000000E-03 e    :
          :  Broyden damping             0.4000000          :
          :  net charge                          0          :
          :  unpaired electrons                  0          :
          ...................................................

 iter      E             dE          RMSdq      gap      omega  full diag
   1    -20.2490747 -0.202491E+02  0.484E+00    4.19       0.0  T
   2    -20.2621931 -0.131184E-01  0.293E+00    4.27       1.0  T
   3    -20.2562767  0.591644E-02  0.119E+00    4.23       1.0  T
   4    -20.2649788 -0.870216E-02  0.245E-01    4.29       1.0  T
   5    -20.2651827 -0.203927E-03  0.781E-02    4.31       1.0  T
   6    -20.2652068 -0.240828E-04  0.390E-02    4.29       1.0  T
   7    -20.2652099 -0.310052E-05  0.113E-02    4.29       2.4  T
   8    -20.2652100 -0.367815E-07  0.493E-03    4.29       5.6  T
   9    -20.2652102 -0.239633E-06  0.172E-03    4.29      16.1  T
  10    -20.2652102 -0.443578E-08  0.428E-04    4.29      64.8  T
  11    -20.2652102 -0.968559E-09  0.167E-04    4.29     166.3  T

   *** convergence criteria satisfied after 11 iterations ***

         #    Occupation            Energy/Eh            Energy/eV
      -------------------------------------------------------------
         1        2.0000           -0.7087531             -19.2862
       ...           ...                  ...                  ...
        12        2.0000           -0.4799246             -13.0594
        13        2.0000           -0.4756932             -12.9443
        14        2.0000           -0.4585937             -12.4790
        15        2.0000           -0.4361317             -11.8677
        16        2.0000           -0.4231900             -11.5156
        17        2.0000           -0.4039966             -10.9933
        18        2.0000           -0.3832623             -10.4291 (HOMO)
        19                         -0.2254708              -6.1354 (LUMO)
        20                         -0.2150474              -5.8517
        21                         -0.0924444              -2.5155
        22                          0.0677639               1.8439
        23                          0.1081909               2.9440
       ...                                ...                  ...
        34                          0.6486830              17.6516
      -------------------------------------------------------------
                  HL-Gap            0.1577915 Eh            4.2937 eV
             Fermi-level           -0.3043666 Eh           -8.2822 eV

 SCC (total)                   0 d,  0 h,  0 min,  0.005 sec
 SCC setup                      ...        0 min,  0.000 sec (  1.977%)
 Dispersion                     ...        0 min,  0.000 sec (  1.094%)
 classical contributions        ...        0 min,  0.000 sec (  0.324%)
 integral evaluation            ...        0 min,  0.001 sec ( 13.628%)
 iterations                     ...        0 min,  0.003 sec ( 50.414%)
 molecular gradient             ...        0 min,  0.002 sec ( 29.983%)
 printout                       ...        0 min,  0.000 sec (  2.424%)

         :::::::::::::::::::::::::::::::::::::::::::::::::::::
         ::                     SUMMARY                     ::
         :::::::::::::::::::::::::::::::::::::::::::::::::::::
         :: total energy             -19.953636548581 Eh    ::
         :: gradient norm              0.015693606337 Eh/a0 ::
         :: HOMO-LUMO gap              4.293726020769 eV    ::
         ::.................................................::
         :: SCC energy               -20.265199299245 Eh    ::
         :: -> isotropic ES            0.021253019921 Eh    ::
         :: -> anisotropic ES          0.003409514657 Eh    ::
         :: -> anisotropic XC          0.009187180109 Eh    ::
         :: -> dispersion             -0.009056911042 Eh    ::
         :: repulsion energy           0.311562750664 Eh    ::
         :: add. restraining           0.000000000000 Eh    ::
         :: total charge               0.000000000000 e     ::
         :::::::::::::::::::::::::::::::::::::::::::::::::::::

      ----------------------------------------------------------- 
     |                   =====================                   |
     |                        A N C O P T                        |
     |                   =====================                   |
     |               Approximate Normal Coordinate               |
     |                Rational Function Optimizer                |
      ----------------------------------------------------------- 

          ...................................................
          :                      SETUP                      :
          :.................................................:
          :   optimization level         verytight          :
          :   max. optcycles                   260          :
          :   ANC micro-cycles                  20          :
          :   degrees of freedom                33          :
          :.................................................:
          :   RF solver                   davidson          :
          :   write xtbopt.log                true          :
          :   linear?                        false          :
          :   energy convergence         0.1000000E-06 Eh   :
          :   grad. convergence          0.2000000E-03 Eh/α :
          :   maximum RF displ.          1.0000000          :
          :   Hlow (freq-cutoff)         0.1000000E-01      :
          :   Hmax (freq-cutoff)         5.0000000          :
          :   S6 in model hess.         20.0000000          :
          ...................................................

generating ANC from exact Hessian ...
Using Lindh-Hessian (1995)
 Shifting diagonal of input Hessian by    1.6565929648221164E-003
 Lowest  eigenvalues of input Hessian
    0.000000    0.000000    0.000000    0.000000    0.000000    0.000000
    0.010000    0.016081    0.021515    0.026911    0.039894    0.044638
    0.068569    0.080838    0.089176    0.095449    0.096879    0.100123
 Highest eigenvalues
    1.437370    1.588606    1.707073    1.869189    1.985515    2.054061


........................................................................
.............................. CYCLE    1 ..............................
........................................................................

 iter      E             dE          RMSdq      gap      omega  full diag
   1    -20.2652102 -0.202652E+02  0.822E-05    4.29       0.0  T
   2    -20.2652102 -0.247908E-10  0.525E-05    4.29     528.6  T
   3    -20.2652102 -0.162821E-10  0.255E-05    4.29    1087.6  T
     SCC iter.                  ...        0 min,  0.001 sec
     gradient                   ...        0 min,  0.002 sec
 * total energy  :   -19.9536365 Eh     change       -0.7720757E-10 Eh
   gradient norm :     0.0156940 Eh/α   predicted     0.0000000E+00 (-100.00%)
   displ. norm   :     0.0652652 α      lambda       -0.8271721E-03
   maximum displ.:     0.0476757 α      in ANC's #18, #5, #17, ...

........................................................................
.............................. CYCLE    2 ..............................
........................................................................

 iter      E             dE          RMSdq      gap      omega  full diag
   1    -20.2769368 -0.202769E+02  0.935E-02    4.34       0.0  T
   2    -20.2769388 -0.199917E-05  0.548E-02    4.35       1.0  T
   3    -20.2769355  0.330381E-05  0.253E-02    4.35       1.1  T
   4    -20.2769399 -0.445734E-05  0.216E-03    4.35      12.8  T
   5    -20.2769399 -0.158452E-07  0.130E-03    4.35      21.3  T
   6    -20.2769399 -0.303453E-08  0.347E-04    4.35      80.0  T
   7    -20.2769399 -0.118604E-09  0.107E-04    4.35     258.7  T
     SCC iter.                  ...        0 min,  0.001 sec
     gradient                   ...        0 min,  0.002 sec
 * total energy  :   -19.9541189 Eh     change       -0.4823942E-03 Eh
   gradient norm :     0.0049708 Eh/α   predicted    -0.4153482E-03 ( -13.90%)
   displ. norm   :     0.0153755 α      lambda       -0.4100876E-04
   maximum displ.:     0.0097857 α      in ANC's #18, #5, #9, ...

........................................................................
.............................. CYCLE    3 ..............................
........................................................................

 iter      E             dE          RMSdq      gap      omega  full diag
   1    -20.2788960 -0.202789E+02  0.261E-02    4.35       0.0  T
   2    -20.2788966 -0.629373E-06  0.150E-02    4.35       1.8  T
   3    -20.2788966  0.310596E-07  0.905E-03    4.35       3.1  T
   4    -20.2788969 -0.343101E-06  0.862E-04    4.35      32.2  T
   5    -20.2788969 -0.438164E-08  0.369E-04    4.35      75.1  T
     SCC iter.                  ...        0 min,  0.001 sec
     gradient                   ...        0 min,  0.002 sec
 * total energy  :   -19.9541428 Eh     change       -0.2384639E-04 Eh
   gradient norm :     0.0021417 Eh/α   predicted    -0.2050925E-04 ( -13.99%)
   displ. norm   :     0.0041023 α      lambda       -0.4672082E-05
   maximum displ.:     0.0021428 α      in ANC's #5, #9, #17, ...

........................................................................
.............................. CYCLE    4 ..............................
........................................................................

 iter      E             dE          RMSdq      gap      omega  full diag
   1    -20.2788675 -0.202789E+02  0.895E-03    4.35       0.0  T
   2    -20.2788677 -0.180593E-06  0.540E-03    4.35       5.1  T
   3    -20.2788677 -0.551565E-07  0.316E-03    4.35       8.8  T
   4    -20.2788677 -0.217141E-07  0.534E-04    4.35      51.9  T
   5    -20.2788677 -0.128648E-08  0.183E-04    4.35     151.6  T
     SCC iter.                  ...        0 min,  0.001 sec
     gradient                   ...        0 min,  0.002 sec
 * total energy  :   -19.9541458 Eh     change       -0.3013316E-05 Eh
   gradient norm :     0.0007602 Eh/α   predicted    -0.2336600E-05 ( -22.46%)
   displ. norm   :     0.0027890 α      lambda       -0.8994544E-06
   maximum displ.:     0.0015021 α      in ANC's #17, #14, #13, ...

........................................................................
.............................. CYCLE    5 ..............................
........................................................................

 iter      E             dE          RMSdq      gap      omega  full diag
   1    -20.2785630 -0.202786E+02  0.547E-03    4.35       0.0  T
   2    -20.2785631 -0.859494E-07  0.349E-03    4.35       8.0  T
   3    -20.2785632 -0.292487E-07  0.197E-03    4.35      14.1  T
   4    -20.2785632 -0.570656E-08  0.424E-04    4.35      65.5  T
   5    -20.2785632 -0.704272E-09  0.138E-04    4.35     200.8  T
     SCC iter.                  ...        0 min,  0.001 sec
     gradient                   ...        0 min,  0.002 sec
 * total energy  :   -19.9541462 Eh     change       -0.4425090E-06 Eh
   gradient norm :     0.0003316 Eh/α   predicted    -0.4489841E-06 (   1.46%)
   displ. norm   :     0.0008909 α      lambda       -0.1114484E-06
   maximum displ.:     0.0005227 α      in ANC's #5, #17, #10, ...

........................................................................
.............................. CYCLE    6 ..............................
........................................................................

 iter      E             dE          RMSdq      gap      omega  full diag
   1    -20.2786218 -0.202786E+02  0.180E-03    4.35       0.0  T
   2    -20.2786219 -0.706337E-08  0.111E-03    4.35      25.0  T
   3    -20.2786219 -0.188952E-08  0.639E-04    4.35      43.4  T
   4    -20.2786219 -0.917765E-09  0.114E-04    4.35     244.3  T
     SCC iter.                  ...        0 min,  0.001 sec
     gradient                   ...        0 min,  0.002 sec
 * total energy  :   -19.9541463 Eh     change       -0.8342277E-07 Eh
   gradient norm :     0.0000346 Eh/α   predicted    -0.5464517E-07 ( -34.50%)
   displ. norm   :     0.0001436 α      lambda       -0.6110997E-08
   maximum displ.:     0.0000721 α      in ANC's #18, #20, #12, ...

   *** GEOMETRY OPTIMIZATION CONVERGED AFTER 6 ITERATIONS ***

------------------------------------------------------------------------
 total energy gain   :        -0.0005098 Eh       -0.3199 kcal/mol
 total RMSD          :         0.0222137 a0        0.0118 Å
 total power (kW/mol):        -0.2230712 (step)  -62.4728 (real)
------------------------------------------------------------------------

 ANCopt (total)                0 d,  0 h,  0 min,  0.021 sec
 optimizer setup                ...        0 min,  0.000 sec (  0.192%)
 model hessian                  ...        0 min,  0.001 sec (  2.608%)
 ANC generation                 ...        0 min,  0.000 sec (  0.578%)
 coordinate transformation      ...        0 min,  0.000 sec (  0.069%)
 single point calculation       ...        0 min,  0.020 sec ( 92.183%)
 optimization log               ...        0 min,  0.000 sec (  1.036%)
 hessian update                 ...        0 min,  0.000 sec (  0.092%)
 rational function              ...        0 min,  0.000 sec (  1.246%)

================
 final structure:
================
$coord
       -3.51882205744071       -0.01662775431354        0.00001434170264      C
       -2.19444478081924       -2.27067908980236        0.00001030622397      C
        0.42015133745447       -2.26526539215550        0.00000480408173      C
        1.72798808032806        0.01158765802026        0.00000331938930      C
        0.39670282675748        2.27922814603750        0.00000735945941      C
       -2.21275155321756        2.25304521450168        0.00001281758234      C
        4.29871560078459        0.10993331750593       -0.00000210034821      O
       -5.55849363512507       -0.02716360791239        0.00001876185578      H
       -3.19561699504853       -4.04933846130700        0.00001148088213      H
        1.45487633602340       -4.03032029921509        0.00000163330757      H
        1.44300055933976        4.02805315694430        0.00000618146020      H
       -3.23541192196402        4.01895626401270        0.00001612599116      H
        4.98073824447819       -1.58083931342777       -0.00000421604883      H
$end

 Bond Distances (Angstroems)
 ---------------------------
C1-C2=1.3834         C1-C6=1.3857         C1-H8=1.0794         C2-C1=1.3834         C2-C3=1.3836         C2-H9=1.0801         
C3-C2=1.3836         C3-C4=1.3895         C3-H10=1.0827        C4-C3=1.3895         C4-C5=1.3915         C4-O7=1.3614         
C5-C4=1.3915         C5-C6=1.3809         C5-H11=1.0784        C6-C1=1.3857         C6-C5=1.3809         C6-H12=1.0799        
O7-C4=1.3614         O7-H13=0.9648        H8-C1=1.0794         H9-C2=1.0801         H10-C3=1.0827        H11-C5=1.0784        
H12-C6=1.0799        H13-O7=0.9648        
 C  H  Rav=1.0801 sigma=0.0014  Rmin=1.0784  Rmax=1.0827     5
 C  C  Rav=1.3858 sigma=0.0037  Rmin=1.3809  Rmax=1.3915     6
 O  H  Rav=0.9648 sigma=0.0000  Rmin=0.9648  Rmax=0.9648     1
 O  C  Rav=1.3614 sigma=0.0000  Rmin=1.3614  Rmax=1.3614     1

 selected bond angles (degree)
 --------------------
C6-C1-C2=119.65                H8-C1-C2=120.14                H8-C1-C6=120.21                C3-C2-C1=120.32                
H9-C2-C1=120.19                H9-C2-C3=119.49                C4-C3-C2=119.99                H10-C3-C2=120.26               
H10-C3-C4=119.75               C5-C4-C3=119.71                O7-C4-C3=122.06                O7-C4-C5=118.23                
C6-C5-C4=119.84                H11-C5-C4=118.69               H11-C5-C6=121.47               C5-C6-C1=120.49                
H12-C6-C1=120.01               H12-C6-C5=119.50               H13-O7-C4=109.78               

 selected dihedral angles (degree)
 ---------------------------------
C3-C2-C1-C6=  0.00            C3-C2-C1-H8=180.00            H9-C2-C1-C6=180.00            H9-C2-C1-H8=  0.00            
C4-C3-C2-C1=  0.00            C4-C3-C2-H9=180.00            H10-C3-C2-C1=180.00           H10-C3-C2-H9=  0.00           
C5-C4-C3-C2=  0.00            C5-C4-C3-H10=180.00           O7-C4-C3-C2=180.00            O7-C4-C3-H10=  0.00           
C6-C5-C4-C3=  0.00            C6-C5-C4-O7=180.00            H11-C5-C4-C3=180.00           H11-C5-C4-O7=  0.00           
C5-C6-C1-C2=  0.00            C5-C6-C1-H8=180.00            H12-C6-C1-C2=180.00           H12-C6-C1-H8=  0.00           
C1-C6-C5-C4=  0.00            C1-C6-C5-H11=180.00           H12-C6-C5-C4=180.00           H12-C6-C5-H11=  0.00          
H13-O7-C4-C3=  0.00           H13-O7-C4-C5=180.00           
           -------------------------------------------------
          |                Final Singlepoint                |
           -------------------------------------------------

          ...................................................
          :                      SETUP                      :
          :.................................................:
          :  # basis functions                  34          :
          :  # atomic orbitals                  34          :
          :  # shells                           20          :
          :  # electrons                        36          :
          :  max. iterations                   250          :
          :  Hamiltonian                  GFN2-xTB          :
          :  restarted?                      false          :
          :  GBSA solvation                  false          :
          :  PC potential                    false          :
          :  electronic temp.          300.0000000     K    :
          :  accuracy                    1.0000000          :
          :  -> integral cutoff          0.2500000E+02      :
          :  -> integral neglect         0.1000000E-07      :
          :  -> SCF convergence          0.1000000E-05 Eh   :
          :  -> wf. convergence          0.1000000E-03 e    :
          :  Broyden damping             0.4000000          :
          :  net charge                          0          :
          :  unpaired electrons                  0          :
          ...................................................

 iter      E             dE          RMSdq      gap      omega  full diag
   1    -20.2786219 -0.202786E+02  0.368E-05    4.35       0.0  T
   2    -20.2786219 -0.710898E-11  0.194E-05    4.35    1432.8  T
   3    -20.2786219 -0.227374E-11  0.968E-06    4.35    2864.5  T

   *** convergence criteria satisfied after 3 iterations ***

         #    Occupation            Energy/Eh            Energy/eV
      -------------------------------------------------------------
         1        2.0000           -0.7098725             -19.3166
       ...           ...                  ...                  ...
        12        2.0000           -0.4799532             -13.0602
        13        2.0000           -0.4757676             -12.9463
        14        2.0000           -0.4600558             -12.5188
        15        2.0000           -0.4355621             -11.8522
        16        2.0000           -0.4223493             -11.4927
        17        2.0000           -0.4049097             -11.0182
        18        2.0000           -0.3832085             -10.4276 (HOMO)
        19                         -0.2232694              -6.0755 (LUMO)
        20                         -0.2129708              -5.7952
        21                         -0.0878491              -2.3905
        22                          0.0708126               1.9269
        23                          0.1156487               3.1470
       ...                                ...                  ...
        34                          0.6710087              18.2591
      -------------------------------------------------------------
                  HL-Gap            0.1599392 Eh            4.3522 eV
             Fermi-level           -0.3032390 Eh           -8.2516 eV

 SCC (total)                   0 d,  0 h,  0 min,  0.003 sec
 SCC setup                      ...        0 min,  0.000 sec (  0.974%)
 Dispersion                     ...        0 min,  0.000 sec (  0.641%)
 classical contributions        ...        0 min,  0.000 sec (  0.269%)
 integral evaluation            ...        0 min,  0.001 sec ( 20.944%)
 iterations                     ...        0 min,  0.001 sec ( 24.492%)
 molecular gradient             ...        0 min,  0.002 sec ( 51.514%)
 printout                       ...        0 min,  0.000 sec (  0.951%)

         :::::::::::::::::::::::::::::::::::::::::::::::::::::
         ::                     SUMMARY                     ::
         :::::::::::::::::::::::::::::::::::::::::::::::::::::
         :: total energy             -19.954146328543 Eh    ::
         :: gradient norm              0.000034495952 Eh/a0 ::
         :: HOMO-LUMO gap              4.352166933994 eV    ::
         ::.................................................::
         :: SCC energy               -20.278611174267 Eh    ::
         :: -> isotropic ES            0.021166191844 Eh    ::
         :: -> anisotropic ES          0.003328244215 Eh    ::
         :: -> anisotropic XC          0.008630652469 Eh    ::
         :: -> dispersion             -0.009085890657 Eh    ::
         :: repulsion energy           0.324464845724 Eh    ::
         :: add. restraining           0.000000000000 Eh    ::
         :: total charge               0.000000000000 e     ::
         :::::::::::::::::::::::::::::::::::::::::::::::::::::

           ------------------------------------------------- 
          |                Numerical Hessian                |
           ------------------------------------------------- 
step length          :   0.00500
SCC accuracy         :   0.30000
Hessian scale factor :   1.00000
frozen atoms in %    :   0.00000    0
RMS gradient         :   0.00003
estimated CPU  time      0.00 min
estimated wall time      0.00 min

writing file <hessian>, containing the non-mass-weighted Hessian matrix in atomic units (Eₕ/Bohr²).

 projected vibrational frequencies (cm⁻¹)
eigval :       -0.00    -0.00    -0.00    -0.00     0.00     0.00
eigval :      217.08   372.84   382.70   431.59   482.92   499.98
eigval :      592.33   656.14   759.46   822.18   865.95   882.66
eigval :      921.86   927.12   986.96  1077.60  1108.28  1148.72
eigval :     1179.09  1188.10  1266.80  1293.28  1336.59  1453.61
eigval :     1480.33  1596.24  1607.48  3051.91  3079.74  3083.83
eigval :     3096.57  3109.49  3519.07
           -------------------------------------------------
          |                Property Printout                |
           -------------------------------------------------

    * Orbital Energies and Occupations

         #    Occupation            Energy/Eh            Energy/eV
      -------------------------------------------------------------
         1        2.0000           -0.7098726             -19.3166
       ...           ...                  ...                  ...
         6        2.0000           -0.5797154             -15.7749
         7        2.0000           -0.5530732             -15.0499
         8        2.0000           -0.5340622             -14.5326
         9        2.0000           -0.5221506             -14.2084
        10        2.0000           -0.5125485             -13.9472
        11        2.0000           -0.4873732             -13.2621
        12        2.0000           -0.4799532             -13.0602
        13        2.0000           -0.4757676             -12.9463
        14        2.0000           -0.4600558             -12.5188
        15        2.0000           -0.4355621             -11.8522
        16        2.0000           -0.4223493             -11.4927
        17        2.0000           -0.4049097             -11.0182
        18        2.0000           -0.3832086             -10.4276 (HOMO)
        19                         -0.2232694              -6.0755 (LUMO)
        20                         -0.2129708              -5.7952
        21                         -0.0878491              -2.3905
        22                          0.0708126               1.9269
        23                          0.1156487               3.1470
        24                          0.1494473               4.0667
        25                          0.1630913               4.4379
        26                          0.1917937               5.2190
        27                          0.1963203               5.3421
        28                          0.2126052               5.7853
        29                          0.3998795              10.8813
       ...                                ...                  ...
        34                          0.6710087              18.2591
      -------------------------------------------------------------
                  HL-Gap            0.1599392 Eh            4.3522 eV
             Fermi-level           -0.3032390 Eh           -8.2516 eV

     #   Z          covCN         q      C6AA      α(0)
     1   6          2.919    -0.042    29.035     8.836
     2   6          2.921    -0.030    28.746     8.792
     3   6          2.919    -0.070    29.738     8.942
     4   6          2.847     0.146    24.820     8.165
     5   6          2.919    -0.053    29.317     8.879
     6   6          2.921    -0.029    28.735     8.791
     7   8          1.660    -0.394    20.727     6.146
     8   1          0.926     0.032     2.558     2.501
     9   1          0.926     0.033     2.550     2.497
    10   1          0.925     0.024     2.668     2.555
    11   1          0.926     0.049     2.336     2.390
    12   1          0.926     0.036     2.504     2.475
    13   1          0.805     0.298     0.727     1.339

 Mol. C6AA /au·bohr⁶  :       2046.284107
 Mol. C8AA /au·bohr⁸  :      49548.321838
 Mol. α(0) /au        :         72.308564


Wiberg/Mayer (AO) data.
largest (>0.10) Wiberg bond orders for each atom

 ---------------------------------------------------------------------------
     #   Z sym  total        # sym  WBO       # sym  WBO       # sym  WBO
 ---------------------------------------------------------------------------
     1   6      3.992 --     2      1.441     6      1.428     8      0.972
     2   6      3.992 --     3      1.444     1      1.441     9      0.971
                             5      0.110
     3   6      3.988 --     2      1.444     4      1.377    10      0.967
                             6      0.106
     4   6      3.938 --     3      1.377     5      1.364     7      1.070
     5   6      3.989 --     6      1.459     4      1.364    11      0.969
                             2      0.110
     6   6      3.992 --     5      1.459     1      1.428    12      0.971
                             3      0.106
     7   8      2.119 --     4      1.070    13      0.890
     8   1      0.999 --     1      0.972
     9   1      0.999 --     2      0.971
    10   1      0.999 --     3      0.967
    11   1      0.998 --     5      0.969
    12   1      0.999 --     6      0.971
    13   1      0.911 --     7      0.890
 ---------------------------------------------------------------------------

Topologies differ in total number of bonds
Writing topology from bond orders to xtbtopo.mol

molecular dipole:
                 x           y           z       tot (Debye)
 q only:       -0.022      -0.364       0.000
   full:        0.008      -0.595       0.000       1.513
molecular quadrupole (traceless):
                xx          xy          yy          xz          yz          zz
 q only:        0.525      -3.623       1.314      -0.000       0.000      -1.839
  q+dip:        1.155      -5.097       4.058      -0.000       0.000      -5.213
   full:        0.363      -5.192       2.620      -0.000       0.000      -2.982

           -------------------------------------------------
          |                Geometry Summary                 |
           -------------------------------------------------

      molecular mass/u    :       94.1114648
   center of mass at/Å    :        0.0000082       0.0000031       0.0000037
  moments of inertia/u·Å² :        0.8825796E+02   0.1910114E+03   0.2792694E+03
rotational constants/cm⁻¹ :        0.1910041E+00   0.8825457E-01   0.6036333E-01

 * 13 selected distances

     #   Z          #   Z                                           value/Å
     1   6          2   6                                         1.3834441
     2   6          3   6                                         1.3835878
     3   6          4   6                                         1.3894805
     4   6          5   6                                         1.3914961 (max)
     1   6          6   6                                         1.3857207
     5   6          6   6                                         1.3809334
     4   6          7   8                                         1.3613656
     1   6          8   1                                         1.0793622
     2   6          9   1                                         1.0800889
     3   6         10   1                                         1.0826913
     5   6         11   1                                         1.0784222
     6   6         12   1                                         1.0798686
     7   8         13   1                                         0.9647682 (min)

 * 4 distinct bonds (by element types)

   Z      Z             #   av. dist./Å        max./Å        min./Å
   1 H    6 C           5     1.0800867     1.0826913     1.0784222
   6 C    6 C           6     1.3857771     1.3914961     1.3809334
   1 H    8 O           1     0.9647682     0.9647682     0.9647682
   6 C    8 O           1     1.3613656     1.3613656     1.3613656

           -------------------------------------------------
          |               Frequency Printout                |
           -------------------------------------------------
 projected vibrational frequencies (cm⁻¹)
eigval :       -0.00    -0.00    -0.00    -0.00     0.00     0.00
eigval :      217.08   372.84   382.70   431.59   482.92   499.98
eigval :      592.33   656.14   759.46   822.18   865.95   882.66
eigval :      921.86   927.12   986.96  1077.60  1108.28  1148.72
eigval :     1179.09  1188.10  1266.80  1293.28  1336.59  1453.61
eigval :     1480.33  1596.24  1607.48  3051.91  3079.74  3083.83
eigval :     3096.57  3109.49  3519.07
 reduced masses (amu)
    1:      4.57    2:      6.52    3:      4.79    4:      6.33    5:      5.29    6:      6.19
    7:      4.33    8:      2.58    9:      4.05   10:      1.17   11:      3.27   12:      7.13
Molecule has the following symmetry elements: (sigma) 
It seems to be the Cs point group
   13:      6.58   14:      4.06   15:      1.37   16:      6.13   17:      1.25   18:      1.29
   19:      1.32   20:      1.21   21:      5.26   22:      1.81   23:      1.42   24:      1.17
   25:      1.06   26:      1.07   27:      3.17   28:      1.35   29:      7.08   30:      2.93
   31:      3.23   32:      7.79   33:      8.00   34:      1.08   35:      1.08   36:      1.08
   37:      1.09   38:      1.09   39:      1.06
 IR intensities (km·mol⁻¹)
    1:      0.40    2:      0.12    3:      0.29    4:      0.18    5:      0.25    6:      0.24
    7:      0.02    8:     14.19    9:     10.20   10:    148.75   11:      4.21   12:      1.07
   13:      0.30   14:      0.35   15:     47.20   16:     24.44   17:      0.02   18:      2.17
   19:      0.14   20:      0.06   21:      4.05   22:      0.78   23:     19.56   24:    142.91
   25:      0.28   26:      6.80   27:    137.57   28:     47.06   29:     22.13   30:     19.46
   31:     79.63   32:     14.17   33:     73.38   34:     37.93   35:      3.09   36:     51.10
   37:     56.69   38:     19.46   39:     19.31
 Raman intensities (Ä⁴*amu⁻¹)
    1:      0.00    2:      0.00    3:      0.00    4:      0.00    5:      0.00    6:      0.00
    7:      0.00    8:      0.00    9:      0.00   10:      0.00   11:      0.00   12:      0.00
   13:      0.00   14:      0.00   15:      0.00   16:      0.00   17:      0.00   18:      0.00
   19:      0.00   20:      0.00   21:      0.00   22:      0.00   23:      0.00   24:      0.00
   25:      0.00   26:      0.00   27:      0.00   28:      0.00   29:      0.00   30:      0.00
   31:      0.00   32:      0.00   33:      0.00   34:      0.00   35:      0.00   36:      0.00
   37:      0.00   38:      0.00   39:      0.00
 output can be read by thermo (or use thermo option).
 writing <g98.out> molden fake output.
 recommended (thermochemical) frequency scaling factor: 1.0
           -------------------------------------------------
          |             Thermodynamic Functions             |
           -------------------------------------------------

cs  symmetry found (for desy threshold:  0.10E+00) used in thermo

          ...................................................
          :                      SETUP                      :
          :.................................................:
          :  # frequencies                          33      :
          :  # imaginary freq.                       0      :
          :  linear?                             false      :
          :  only rotor calc.                    false      :
          :  symmetry                               cs      :
          :  rotational number                       1      :
          :  scaling factor                  1.0000000      :
          :  rotor cutoff                    0.0000000 cm⁻¹ :
          :  imag. cutoff                 -100.0000000 cm⁻¹ :
          :.................................................:

    mode    ω/cm⁻¹     T·S(HO)/kcal·mol⁻¹    T·S(FR)/kcal·mol⁻¹   T·S(vib)
   ------------------------------------------------------------------------
       1    217.08    -0.59132 (100.00%)    -0.62147 (  0.00%)    -0.59132
   ------------------------------------------------------------------------

   temp. (K)  partition function   enthalpy   heat capacity  entropy
                                   cal/mol     cal/K/mol   cal/K/mol   J/K/mol
 298.15  VIB   3.86                 1765.409     16.453      8.607
         ROT  0.166E+06              888.727      2.981     26.864
         INT  0.640E+06             2654.136     19.434     35.471
         TR   0.279E+26             1481.212      4.968     39.537
         TOT                        4135.3487    24.4018    75.0076   313.8319

       T/K    H(0)-H(T)+PV         H(T)/Eh          T*S/Eh         G(T)/Eh
   ------------------------------------------------------------------------
    298.15    0.659010E-02    0.107920E+00    0.356385E-01    0.722810E-01
   ------------------------------------------------------------------------

         :::::::::::::::::::::::::::::::::::::::::::::::::::::
         ::                  THERMODYNAMIC                  ::
         :::::::::::::::::::::::::::::::::::::::::::::::::::::
         :: total free energy         -19.881865281635 Eh   ::
         ::.................................................::
         :: total energy              -19.954146328543 Eh   ::
         :: zero point energy           0.101329488018 Eh   ::
         :: G(RRHO) w/o ZPVE           -0.029048441110 Eh   ::
         :: G(RRHO) contrib.            0.072281046908 Eh   ::
         :::::::::::::::::::::::::::::::::::::::::::::::::::::

optimized geometry written to: xtbopt.coord


           -------------------------------------------------
          | TOTAL ENERGY              -19.954146328543 Eh   |
          | TOTAL ENTHALPY            -19.846226742964 Eh   |
          | TOTAL FREE ENERGY         -19.881865281635 Eh   |
          | GRADIENT NORM               0.000034499418 Eh/α |
          | HOMO-LUMO GAP               4.352167685404 eV   |
           -------------------------------------------------

------------------------------------------------------------------------
 * finished run on 2025/04/09 at 03:09:42.301     
------------------------------------------------------------------------
 total:
 * wall-time:     0 d,  0 h,  0 min,  0.300 sec
 *  cpu-time:     0 d,  0 h,  0 min,  0.296 sec
 * ratio c/w:     0.986 speedup
 SCF:
 * wall-time:     0 d,  0 h,  0 min,  0.005 sec
 *  cpu-time:     0 d,  0 h,  0 min,  0.005 sec
 * ratio c/w:     0.981 speedup
 ANC optimizer:
 * wall-time:     0 d,  0 h,  0 min,  0.025 sec
 *  cpu-time:     0 d,  0 h,  0 min,  0.024 sec
 * ratio c/w:     0.985 speedup
 analytical hessian:
 * wall-time:     0 d,  0 h,  0 min,  0.265 sec
 *  cpu-time:     0 d,  0 h,  0 min,  0.262 sec
 * ratio c/w:     0.987 speedup

