
                                 *****************
                                 * O   R   C   A *
                                 *****************

                                            #,                                       
                                            ###                                      
                                            ####                                     
                                            #####                                    
                                            ######                                   
                                           ########,                                 
                                     ,,################,,,,,                         
                               ,,#################################,,                 
                          ,,##########################################,,             
                       ,#########################################, ''#####,          
                    ,#############################################,,   '####,        
                  ,##################################################,,,,####,       
                ,###########''''           ''''###############################       
              ,#####''   ,,,,##########,,,,          '''####'''          '####       
            ,##' ,,,,###########################,,,                        '##       
           ' ,,###''''                  '''############,,,                           
         ,,##''                                '''############,,,,        ,,,,,,###''
      ,#''                                            '''#######################'''  
     '                                                          ''''####''''         
             ,#######,   #######,   ,#######,      ##                                
            ,#'     '#,  ##    ##  ,#'     '#,    #''#        ,####,   ,####,        
            ##       ##  ##   ,#'  ##            #'  '#       #'       #'  '#        
            ##       ##  #######   ##           ,######,      #####,   #    #        
            '#,     ,#'  ##    ##  '#,     ,#' ,#      #,     #,   #   #,  ,#        
             '#######'   ##     ##  '#######'  #'      '#     '####' # '####'        



                #########################################################
                #                        -***-                          #
                #          Department of theory and spectroscopy        #
                #                                                       #
                #                      Frank Neese                      #
                #                                                       #
                #     Directorship, Architecture, Infrastructure        #
                #                    SHARK, DRIVERS                     #
                #        Core code/Algorithms in most modules           #
                #                                                       #
                #        Max Planck Institute fuer Kohlenforschung      #
                #                Kaiser Wilhelm Platz 1                 #
                #                 D-45470 Muelheim/Ruhr                 #
                #                      Germany                          #
                #                                                       #
                #                  All rights reserved                  #
                #                        -***-                          #
                #########################################################


                         Program Version 6.0.1  -  RELEASE   -


 With contributions from (in alphabetic order):
[Max-Planck-Institut fuer Kohlenforschung]                               
  Daniel Aravena         : Magnetic Suceptibility                        
  Michael Atanasov       : Ab Initio Ligand Field Theory (pilot matlab implementation)
  Alexander A. Auer      : GIAO ZORA, VPT2 properties, NMR spectrum      
  Ute Becker             : All parallelization in ORCA, NUMFREQ, NUMCALC 
  Giovanni Bistoni       : ED, misc. LED, open-shell LED, HFLD           
  Martin Brehm           : Molecular dynamics                            
  Dmytro Bykov           : pre 5.0 version of the SCF Hessian            
  Marcos Casanova-Páez   : Triplet and SCS-CIS(D). UHF-(DLPNO)-IP/EA/STEOM-CCSD. UHF-CVS-IP/STEOM-CCSD   
  Vijay G. Chilkuri      : MRCI spin determinant printing, contributions to CSF-ICE 
  Pauline Colinet        : FMM embedding                                 
  Dipayan Datta          : RHF DLPNO-CCSD density                        
  Achintya Kumar Dutta   : EOM-CC, STEOM-CC                              
  Nicolas Foglia         : Exact transition moments, OPA infrastructure, MCD improvements    
  Dmitry Ganyushin       : Spin-Orbit,Spin-Spin,Magnetic field MRCI      
  Miquel Garcia-Rates    : C-PCM and meta-GGA Hessian, CCSD/C-PCM, Gaussian charge scheme 
  Tiago L. C. Gouveia    : GS-ROHF, GS-ROCIS                             
  Yang Guo               : DLPNO-NEVPT2, F12-NEVPT2, CIM, IAO-localization        
  Andreas Hansen         : Spin unrestricted coupled pair/coupled cluster methods 
  Ingolf Harden          : AUTO-CI MPn and infrastructure                
  Benjamin Helmich-Paris : MC-RPA, TRAH-(SCF,CASSCF), AVAS, COSX integrals, SCF dyn. polar. 
  Lee Huntington         : MR-EOM, pCC                                   
  Robert Izsak           : Overlap fitted RIJCOSX, COSX-SCS-MP3, EOM     
  Riya Kayal             : Wick's Theorem for AUTO-CI, AUTO-CI UHF-CCSDT 
  Emily Kempfer          : AUTO-CI, RHF CISDT and CCSDT                  
  Christian Kollmar      : KDIIS, OOCD, Brueckner-CCSD(T), CCSD density, CASPT2, CASPT2-K, improved NEVPT2 
  Axel Koslowski         : Symmetry handling                             
  Simone Kossmann        : meta-GGA functionals, TD-DFT gradient, OOMP2, (MP2 Hessian; deprecated post 5.0) 
  Lucas Lang             : DCDCAS                                        
  Marvin Lechner         : AUTO-CI (C++ implementation), FIC-MRCC        
  Spencer Leger          : CASSCF response                               
  Dagmar Lenk            : GEPOL surface, SMD, ORCA-2-JSON               
  Dimitrios Liakos       : Extrapolation schemes; Compound Job, initial MDCI parallelization 
  Dimitrios Manganas     : Further ROCIS development; embedding schemes. LFT, Crystal Embedding 
  Dimitrios Pantazis     : SARC Basis sets                               
  Anastasios Papadopoulos: AUTO-CI, single reference methods and gradients 
  Taras Petrenko         : pre 6.0 DFT Hessian and TD-DFT gradient, (ASA, deprecated), ECA, 1-Electron XAS/XES, NRVS 
  Peter Pinski           : DLPNO-MP2, DLPNO-MP2 Gradient                 
  Christoph Reimann      : Effective Core Potentials                     
  Marius Retegan         : Local ZFS, SOC                                
  Christoph Riplinger    : Optimizer, TS searches, QM/MM, DLPNO-CCSD(T), (RO)-DLPNO pert. Triples 
  Michael Roemelt        : Original ROCIS implementation                 
  Masaaki Saitow         : Open-shell DLPNO-CCSD energy and density      
  Barbara Sandhoefer     : DKH picture change effects                    
  Kantharuban Sivalingam : CASSCF convergence/infrastructure, NEVPT2 and variants, FIC-MRCI 
  Bernardo de Souza      : ESD, SOC TD-DFT                               
  Georgi L. Stoychev     : AutoAux, RI-MP2 NMR, DLPNO-MP2 response, X2C  
  Van Anh Tran           : RI-MP2 g-tensors                              
  Willem Van den Heuvel  : Paramagnetic NMR                              
  Zikuan Wang            : NOTCH, Electric field optimization            
  Frank Wennmohs         : Technical directorship and infrastructure     
  Hang Xu                : AUTO-CI-Response properties                   
                                                                         
[FACCTs GmbH]                                                            
  Markus Bursch, Miquel Garcia-Rates, Christoph Riplinger, Bernardo de Souza, Georgi L. Stoychev 
                                                                 
  APM, Basis sets (HGBS, AHGBS, def-TZVP (Ac-Lr), def2-XVPD (La-Lu)), CI-OPT, improved COSX, DLPNO-Multilevel,           
  DOCKER, DRACO, updates on ESD, GOAT, IRC, LR-CPCM, MBIS, meta-GGA TD-DFT gradient, ML-optimized integration grids, 
  MM, NACMEs, nearIR, NEB, NEB-TS, NL-DFT gradient (VV10), 2- and 3-layer-ONIOM, interface openCOSMO-RS, QMMM,   
  Crystal-QMMM, SF, symmetry and pop. for TD-DFT, r2SCAN hybrids, SOLVATOR                                   
                                                                         
[Other institutions]                                                     
  V. Asgeirsson          : NEB                                           
  Christoph Bannwarth    : sTDA-DFT, sTD-DFT, PBEh-3c, B97-3c, D3        
  Sebastian Ehlert       : rSCAN, r2SCAN, r2SCAN-3c, D4, dhf basis sets  
  Marvin Friede          : D4 for Fr, Ra, Ac-Lr                          
  Lars Goerigk           : TD-DFT with DH, B97 family of functionals     
  Stefan Grimme          : VdW corrections, initial TS optimization, DFT functionals, gCP, sTDA/sTD-DF 
  Waldemar Hujo          : DFT-NL                                        
  H. Jonsson             : NEB                                           
  Holger Kruse           : gCP                                           
  Marcel Mueller         : wB97X-3c, vDZP basis set                      
  Hagen Neugebauer       : wr2SCAN                                       
  Tobias Risthaus        : range-separated hybrid DFT                    
  Lukas Wittmann         : regularized MP2, r2SCAN double-hybrids, wr2SCAN        
                                                                         
We gratefully acknowledge several colleagues who have allowed us to      
interface, adapt or use parts of their codes:                            
  Ed Valeev, F. Pavosevic, A. Kumar             : LibInt (2-el integral package), F12 methods 
  Garnet Chan, S. Sharma, J. Yang, R. Olivares  : DMRG                   
  Ulf Ekstrom                                   : XCFun DFT Library      
  Mihaly Kallay                                 : mrcc  (arbitrary order and MRCC methods)
  Frank Weinhold                                : gennbo (NPA and NBO analysis)           
  Simon Mueller                                 : openCOSMO-RS                            
  Christopher J. Cramer and Donald G. Truhlar   : smd solvation model                     
  S Lehtola, MJT Oliveira, MAL Marques          : LibXC Library                           
  Liviu Ungur et al                             : ANISO software                          


 Your calculation uses the libint2 library for the computation of 2-el integrals
 For citations please refer to: http://libint.valeyev.net

 Your ORCA version has been built with support for libXC version: 6.2.2
 For citations please refer to: https://libxc.gitlab.io

 This ORCA versions uses:
   CBLAS   interface :  Fast vector & matrix operations
   LAPACKE interface :  Fast linear algebra routines
   SCALAPACK package :  Parallel linear algebra routines
   Shared memory     :  Shared parallel matrices
   BLAS/LAPACK       :  OpenBLAS 0.3.27  USE64BITINT DYNAMIC_ARCH NO_AFFINITY Zen SINGLE_THREADED
        Core in use  :  Zen
   Copyright (c) 2011-2014, The OpenBLAS Project


Your calculation utilizes the geometrical counterpoise correction gCP
Please cite in your paper:
H.Kruse, S. Grimme J.Chem.Phys., 136, (2012), 154101 
   

Your calculation utilizes the DFT-NL dispersion correction.
Cite in your paper:
Vydrov, O. A.; Van Voorhis, T. J. Chem. Phys. 2010, 133, 244103
Hujo, W.; Grimme, S. J. Chem. Theory Comput. 2011, 7, 3866 
   

================================================================================

----- Orbital basis set information -----
Your calculation utilizes the basis: def2-TZVP
   F. Weigend and R. Ahlrichs, Phys. Chem. Chem. Phys. 7, 3297 (2005).

----- AuxJ basis set information -----
Your calculation utilizes the auxiliary basis: def2/J
   F. Weigend, Phys. Chem. Chem. Phys. 8, 1057 (2006).

================================================================================
                                        WARNINGS
                       Please study these warnings very carefully!
================================================================================

WARNING: Old DensityContainer found on disk!
         Will remove this file - 
         If you want to keep old densities, please start your calculation with a different basename. 


================================================================================
                                       INPUT FILE
================================================================================
NAME = sp.inp
|  1> ! wb97x-v def2-tzvp def2/J RIJCOSX DEFGRID2 scfconv7 GCP(DFT/TZ) printgap
|  2> %output
|  3>     printlevel normal
|  4> end
|  5> * xyz 0 1
|  6> C -0.7393582482008079 -1.8174632290818407 -4.01745480137271e-05
|  7> C 0.5969319548261829 -1.4352461541102173 2.151552264228214e-05
|  8> C 0.9087779722136963 -0.07102595735824012 6.834655952523756e-05
|  9> C -0.10407871405668366 0.8965888322500364 1.1363503531390015e-06
| 10> C -1.4347688069506803 0.48907846660463355 -6.937037767747445e-05
| 11> C -1.7543573716308525 -0.8704145530109236 -7.251038409960211e-05
| 12> O -2.4727121615132313 1.3709631297118436 -7.38723030122575e-05
| 13> C 2.2706975020096687 0.34829963266136177 0.0006542457839283286
| 14> N 3.3761015472397435 0.6933197412178809 -0.0006029353566321464
| 15> H -0.9950818936185547 -2.871695959540797 -1.909441101750024e-05
| 16> H 1.3924892737653447 -2.170227608774805 9.90361996951587e-05
| 17> H 0.1584903816359202 1.9503021946161254 7.002267249067197e-05
| 18> H -2.798663399812824 -1.162711254760749 -8.84109840199849e-05
| 19> H -2.1323839312931736 2.2730622987152533 -0.0002331980820624128
| 20> *
| 21> 
| 22>                          ****END OF INPUT****
================================================================================

                       ****************************
                       * Single Point Calculation *
                       ****************************

---------------------------------
CARTESIAN COORDINATES (ANGSTROEM)
---------------------------------
  C     -0.739358   -1.817463   -0.000040
  C      0.596932   -1.435246    0.000022
  C      0.908778   -0.071026    0.000068
  C     -0.104079    0.896589    0.000001
  C     -1.434769    0.489078   -0.000069
  C     -1.754357   -0.870415   -0.000073
  O     -2.472712    1.370963   -0.000074
  C      2.270698    0.348300    0.000654
  N      3.376102    0.693320   -0.000603
  H     -0.995082   -2.871696   -0.000019
  H      1.392489   -2.170228    0.000099
  H      0.158490    1.950302    0.000070
  H     -2.798663   -1.162711   -0.000088
  H     -2.132384    2.273062   -0.000233

----------------------------
CARTESIAN COORDINATES (A.U.)
----------------------------
  NO LB      ZA    FRAG     MASS         X           Y           Z
   0 C     6.0000    0    12.011   -1.397185   -3.434508   -0.000076
   1 C     6.0000    0    12.011    1.128038   -2.712222    0.000041
   2 C     6.0000    0    12.011    1.717341   -0.134220    0.000129
   3 C     6.0000    0    12.011   -0.196680    1.694307    0.000002
   4 C     6.0000    0    12.011   -2.711320    0.924224   -0.000131
   5 C     6.0000    0    12.011   -3.315255   -1.644845   -0.000137
   6 O     8.0000    0    15.999   -4.672749    2.590745   -0.000140
   7 C     6.0000    0    12.011    4.290996    0.658191    0.001236
   8 N     7.0000    0    14.007    6.379907    1.310184   -0.001139
   9 H     1.0000    0     1.008   -1.880432   -5.426719   -0.000036
  10 H     1.0000    0     1.008    2.631423   -4.101136    0.000187
  11 H     1.0000    0     1.008    0.299503    3.685537    0.000132
  12 H     1.0000    0     1.008   -5.288707   -2.197206   -0.000167
  13 H     1.0000    0     1.008   -4.029622    4.295465   -0.000441

--------------------------------
INTERNAL COORDINATES (ANGSTROEM)
--------------------------------
 C      0   0   0     0.000000000000     0.00000000     0.00000000
 C      1   0   0     1.389878197149     0.00000000     0.00000000
 C      2   1   0     1.399408691548   118.83800849     0.00000000
 C      3   2   1     1.400770164056   120.81539268     0.00000000
 C      4   3   2     1.391689917477   119.28196057     0.00000000
 C      1   2   3     1.388209067993   121.02145965     0.00000000
 O      5   4   3     1.362001088959   122.62055592   179.99684291
 C      3   2   1     1.425011964638   119.98920444   179.97575512
 N      8   3   2     1.157997650699   179.76292784   158.80372677
 H      1   2   3     1.084804698202   119.59683938   180.00351351
 H      2   1   3     1.083101653783   121.30443838   179.99595837
 H      4   3   2     1.085934797668   119.69910050   179.99812018
 H      6   1   2     1.084441073827   121.34679679   180.00199419
 H      7   5   4     0.964160899636   109.68315426     0.00000000

---------------------------
INTERNAL COORDINATES (A.U.)
---------------------------
 C      0   0   0     0.000000000000     0.00000000     0.00000000
 C      1   0   0     2.626489152121     0.00000000     0.00000000
 C      2   1   0     2.644499176454   118.83800849     0.00000000
 C      3   2   1     2.647071986633   120.81539268     0.00000000
 C      4   3   2     2.629912807370   119.28196057     0.00000000
 C      1   2   3     2.623334955132   121.02145965     0.00000000
 O      5   4   3     2.573809052234   122.62055592   179.99684291
 C      3   2   1     2.692882350728   119.98920444   179.97575512
 N      8   3   2     2.188298423545   179.76292784   158.80372677
 H      1   2   3     2.049983788393   119.59683938   180.00351351
 H      2   1   3     2.046765500848   121.30443838   179.99595837
 H      4   3   2     2.052119366888   119.69910050   179.99812018
 H      6   1   2     2.049296637909   121.34679679   180.00199419
 H      7   5   4     1.822000049346   109.68315426     0.00000000

---------------------
BASIS SET INFORMATION
---------------------
There are 4 groups of distinct atoms

 Group   1 Type C   : 11s6p2d1f contracted to 5s3p2d1f pattern {62111/411/11/1}
 Group   2 Type O   : 11s6p2d1f contracted to 5s3p2d1f pattern {62111/411/11/1}
 Group   3 Type N   : 11s6p2d1f contracted to 5s3p2d1f pattern {62111/411/11/1}
 Group   4 Type H   : 5s1p contracted to 3s1p pattern {311/1}

Atom   0C    basis set group =>   1
Atom   1C    basis set group =>   1
Atom   2C    basis set group =>   1
Atom   3C    basis set group =>   1
Atom   4C    basis set group =>   1
Atom   5C    basis set group =>   1
Atom   6O    basis set group =>   2
Atom   7C    basis set group =>   1
Atom   8N    basis set group =>   3
Atom   9H    basis set group =>   4
Atom  10H    basis set group =>   4
Atom  11H    basis set group =>   4
Atom  12H    basis set group =>   4
Atom  13H    basis set group =>   4
---------------------------------
AUXILIARY/J BASIS SET INFORMATION
---------------------------------
There are 4 groups of distinct atoms

 Group   1 Type C   : 12s5p4d2f1g contracted to 6s4p3d1f1g pattern {711111/2111/211/2/1}
 Group   2 Type O   : 12s5p4d2f1g contracted to 6s4p3d1f1g pattern {711111/2111/211/2/1}
 Group   3 Type N   : 12s5p4d2f1g contracted to 6s4p3d1f1g pattern {711111/2111/211/2/1}
 Group   4 Type H   : 5s2p1d contracted to 3s1p1d pattern {311/2/1}

Atom   0C    basis set group =>   1
Atom   1C    basis set group =>   1
Atom   2C    basis set group =>   1
Atom   3C    basis set group =>   1
Atom   4C    basis set group =>   1
Atom   5C    basis set group =>   1
Atom   6O    basis set group =>   2
Atom   7C    basis set group =>   1
Atom   8N    basis set group =>   3
Atom   9H    basis set group =>   4
Atom  10H    basis set group =>   4
Atom  11H    basis set group =>   4
Atom  12H    basis set group =>   4
Atom  13H    basis set group =>   4

Checking for AutoStart:
The File: sp.gbw exists
Trying to determine its content:
     ... Fine, the file contains calculation information
     ... Fine, the calculation information was read
     ... Fine, the file contains a basis set
     ... Fine, the basis set was read
     ... Fine, the file contains a geometry
     ... Fine, the geometry was read
     ... Fine, the file contains a set of orbitals
     ... Fine, the orbitals can be read
     => possible old guess file was deleted
     => GBW file was renamed to GES file
     => GES file is set as startup file
     => Guess is set to MORead
     ... now leaving AutoStart

------------------------------------------------------------------------------
                             ORCA STARTUP CALCULATIONS
                           -- RI-GTO INTEGRALS CHOSEN --
------------------------------------------------------------------------------
------------------------------------------------------------------------------
                   ___                                                        
                  /   \      - P O W E R E D   B Y -                         
                 /     \                                                     
                 |  |  |   _    _      __       _____    __    __             
                 |  |  |  | |  | |    /  \     |  _  \  |  |  /  |          
                  \  \/   | |  | |   /    \    | | | |  |  | /  /          
                 / \  \   | |__| |  /  /\  \   | |_| |  |  |/  /          
                |  |  |   |  __  | /  /__\  \  |    /   |      \           
                |  |  |   | |  | | |   __   |  |    \   |  |\   \          
                \     /   | |  | | |  |  |  |  | |\  \  |  | \   \       
                 \___/    |_|  |_| |__|  |__|  |_| \__\ |__|  \__/        
                                                                              
                      - O R C A' S   B I G   F R I E N D -                    
                                      &                                       
                       - I N T E G R A L  F E E D E R -                       
                                                                              
 v1 FN, 2020, v2 2021, v3 2022-2024                                           
------------------------------------------------------------------------------


----------------------
SHARK INTEGRAL PACKAGE
----------------------

Number of atoms                             ...     14
Number of basis functions                   ...    309
Number of shells                            ...    119
Maximum angular momentum                    ...      3
Integral batch strategy                     ... SHARK/LIBINT Hybrid
RI-J (if used) integral strategy            ... SPLIT-RIJ (Revised 2003 algorithm where possible)
Printlevel                                  ...      1
Contraction scheme used                     ... SEGMENTED contraction
Prescreening option                         ... SCHWARTZ
   Thresh                                   ... 3.000e-11
   Tcut                                     ... 1.000e-12
   Tpresel                                  ... 1.000e-12 
Coulomb Range Separation                    ... NOT USED
Exchange Range Separation                   ... Long Range
   Mu parameter                             ... 3.000e-01
   Scaling (regular/separated)              ... 1.670e-01 8.330e-01
Multipole approximations                    ... NOT USED
Finite Nucleus Model                        ... NOT USED
CABS basis                                  ... NOT available
Auxiliary Coulomb fitting basis             ... AVAILABLE
   # of basis functions in Aux-J            ...    496
   # of shells in Aux-J                     ...    160
   Maximum angular momentum in Aux-J        ...      4
Auxiliary J/K fitting basis                 ... NOT available
Auxiliary Correlation fitting basis         ... NOT available
Auxiliary 'external' fitting basis          ... NOT available

Checking pre-screening integrals            ... done (  0.0 sec) Dimension = 119
Check shell pair data                       ... done (  0.0 sec)
Shell pair information
Shell pair cut-off parameter TPreSel        ...   1.0e-12
Total number of shell pairs                 ...      7140
Shell pairs after pre-screening             ...      6454
Total number of primitive shell pairs       ...     22368
Primitive shell pairs kept                  ...     15061
          la=0 lb=0:   1564 shell pairs
          la=1 lb=0:   1762 shell pairs
          la=1 lb=1:    506 shell pairs
          la=2 lb=0:    977 shell pairs
          la=2 lb=1:    547 shell pairs
          la=2 lb=2:    160 shell pairs
          la=3 lb=0:    477 shell pairs
          la=3 lb=1:    270 shell pairs
          la=3 lb=2:    149 shell pairs
          la=3 lb=3:     42 shell pairs

Calculating one electron integrals          ... done (  0.0 sec)
Calculating RI/J V-Matrix + Cholesky decomp.... done (  0.0 sec)
Calculating Nuclear repulsion               ... done (  0.0 sec) ENN=    377.365776822803 Eh

Diagonalization of the overlap matrix:
Smallest eigenvalue                        ... 9.369e-06
Time for diagonalization                   ...    0.007 sec
Threshold for overlap eigenvalues          ... 1.000e-07
Number of eigenvalues below threshold      ... 0
Time for construction of square roots      ...    0.003 sec
Total time needed                          ...    0.010 sec

-------------------
DFT GRID GENERATION
-------------------

General Integration Accuracy     IntAcc      ... 4.388
Radial Grid Type                 RadialGrid  ... OptM3 with GC (2021)
Angular Grid (max. ang.)         AngularGrid ... 4 (Lebedev-302)
Angular grid pruning method      GridPruning ... 4 (adaptive)
Weight generation scheme         WeightScheme... mBecke (2022)
Basis function cutoff            BFCut       ... 1.0000e-11
Integration weight cutoff        WCut        ... 1.0000e-14
Partially contracted basis set               ... off
Rotationally invariant grid construction     ... off
Angular grids for H and He will be reduced by one unit

Total number of grid points                  ...    70418
Total number of batches                      ...     1108
Average number of points per batch           ...       63
Average number of grid points per atom       ...     5030

--------------------
COSX GRID GENERATION
--------------------

GRIDX 1
-------
General Integration Accuracy     IntAcc      ... 3.816
Radial Grid Type                 RadialGrid  ... OptM3 with GC (2021)
Angular Grid (max. ang.)         AngularGrid ... 1 (Lebedev-50)
Angular grid pruning method      GridPruning ... 4 (adaptive)
Weight generation scheme         WeightScheme... mBecke (2022)
Basis function cutoff            BFCut       ... 1.0000e-11
Integration weight cutoff        WCut        ... 1.0000e-14
Partially contracted basis set               ... on
Rotationally invariant grid construction     ... off
Angular grids for H and He will be reduced by one unit

Total number of grid points                  ...     8974
Total number of batches                      ...       77
Average number of points per batch           ...      116
Average number of grid points per atom       ...      641
UseSFitting                                  ... on

GRIDX 2
-------
General Integration Accuracy     IntAcc      ... 4.020
Radial Grid Type                 RadialGrid  ... OptM3 with GC (2021)
Angular Grid (max. ang.)         AngularGrid ... 2 (Lebedev-110)
Angular grid pruning method      GridPruning ... 4 (adaptive)
Weight generation scheme         WeightScheme... mBecke (2022)
Basis function cutoff            BFCut       ... 1.0000e-11
Integration weight cutoff        WCut        ... 1.0000e-14
Partially contracted basis set               ... on
Rotationally invariant grid construction     ... off
Angular grids for H and He will be reduced by one unit

Total number of grid points                  ...    20147
Total number of batches                      ...      163
Average number of points per batch           ...      123
Average number of grid points per atom       ...     1439
UseSFitting                                  ... on

GRIDX 3
-------
General Integration Accuracy     IntAcc      ... 4.338
Radial Grid Type                 RadialGrid  ... OptM3 with GC (2021)
Angular Grid (max. ang.)         AngularGrid ... 3 (Lebedev-194)
Angular grid pruning method      GridPruning ... 4 (adaptive)
Weight generation scheme         WeightScheme... mBecke (2022)
Basis function cutoff            BFCut       ... 1.0000e-11
Integration weight cutoff        WCut        ... 1.0000e-14
Partially contracted basis set               ... on
Rotationally invariant grid construction     ... off
Angular grids for H and He will be reduced by one unit

Total number of grid points                  ...    44382
Total number of batches                      ...      355
Average number of points per batch           ...      125
Average number of grid points per atom       ...     3170
UseSFitting                                  ... on
Initializing property integral containers    ... done (  0.0 sec)

SHARK setup successfully completed in   1.1 seconds

Maximum memory used throughout the entire STARTUP-calculation: 44.6 MB
-------------------------------------------------------------------------------
                                 ORCA GUESS
                   Start orbitals & Density for SCF / CASSCF
-------------------------------------------------------------------------------

------------
SCF SETTINGS
------------
Hamiltonian:
 Density Functional     Method          .... DFT(GTOs)
 Exchange Functional    Exchange        .... WB97X-V
 Correlation Functional Correlation     .... WB97X-V
 Gradients option       PostSCFGGA      .... off
 Hybrid DFT is turned on
   Fraction HF Exchange ScalHFX         ....  0.167000
   Scaling of DF-GGA-X  ScalDFX         ....  0.000000
   Scaling of DF-GGA-C  ScalDFC         ....  1.000000
   Scaling of DF-LDA-C  ScalLDAC        ....  1.000000
   Perturbative correction              ....  0.000000
 Long-range corrected/Screened/Range-Separated Hybrid DFT is turned on
   Amount of maximum screened exact exchange              ....  0.833000
   Range separation parameter mu (erf(mu*r12)/r12)        ....  0.300000
   NL short-range parameter             ....  6.000000
   NL long-range parameter              ....  0.010000
 RI-approximation to the Coulomb term is turned on
   Number of AuxJ basis functions       .... 496
   RIJ-COSX (HFX calculated with COS-X)).... on


General Settings:
 Integral files         IntName         .... sp
 Hartree-Fock type      HFTyp           .... RHF
 Total Charge           Charge          ....    0
 Multiplicity           Mult            ....    1
 Number of Electrons    NEL             ....   62
 Basis Dimension        Dim             ....  309
 Nuclear Repulsion      ENuc            ....    377.3657768228 Eh

Convergence Acceleration:
 AO-DIIS                CNVDIIS         .... on
   Start iteration      DIISMaxIt       ....    12
   Startup error        DIISStart       ....  0.200000
   # of expansion vecs  DIISMaxEq       ....     5
   Bias factor          DIISBfac        ....   1.050
   Max. coefficient     DIISMaxC        ....  10.000
 MO-DIIS                CNVKDIIS        .... off
 Trust-Rad. Augm. Hess. CNVTRAH         .... auto
   Auto Start mean grad. ratio tolernc. ....  1.125000
   Auto Start start iteration           ....     1
   Auto Start num. interpolation iter.  ....    10
   Max. Number of Micro iterations      ....    24
   Max. Number of Macro iterations      .... Maxiter - #DIIS iter
   Number of Davidson start vectors     ....     2
   Converg. threshold    (grad. norm)   ....   1.000e-04
   Grad. Scal. Fac. for Micro threshold ....   0.100
   Minimum threshold for Micro iter.    ....   1.000e-02
   NR start threshold (gradient norm)   ....   1.000e-04
   Initial trust radius                 ....   0.400
   Minimum AH scaling param. (alpha)    ....   1.000
   Maximum AH scaling param. (alpha)    .... 1000.000
   Quad. conv. algorithm                .... NR
   White noise on init. David. guess    .... on
   Maximum white noise                  ....   0.010
   Pseudo random numbers                .... off
   Inactive MOs                         .... canonical
   Orbital update algorithm             .... Taylor
   Preconditioner                       .... Diag
   Full preconditioner red. dimension   ....   250
 SOSCF                  CNVSOSCF        .... on
   Start iteration      SOSCFMaxIt      ....   150
   Startup grad/error   SOSCFStart      ....  0.003300
   Hessian update       SOSCFHessUp     .... L-BFGS
 Level Shifting         CNVShift        .... on
   Level shift para.    LevelShift      ....    0.2500
   Turn off err/grad.   ShiftErr        ....    0.0010
 Zerner damping         CNVZerner       .... off
 Static damping         CNVDamp         .... on
   Fraction old density DampFac         ....    0.7000
   Max. Damping (<1)    DampMax         ....    0.9800
   Min. Damping (>=0)   DampMin         ....    0.0000
   Turn off err/grad.   DampErr         ....    0.1000

SCF Procedure:
 Maximum # iterations   MaxIter         ....   125
 SCF integral mode      SCFMode         .... Direct
   Integral package                     .... SHARK and LIBINT hybrid scheme
 Reset frequency        DirectResetFreq ....    20
 Integral Threshold     Thresh          ....  3.000e-11 Eh
 Primitive CutOff       TCut            ....  1.000e-12 Eh

Convergence Tolerance:
 Convergence Check Mode ConvCheckMode   .... Total+1el-Energy
 Convergence forced     ConvForced      .... 0
 Energy Change          TolE            ....  1.000e-07 Eh
 1-El. energy change                    ....  1.000e-04 Eh
 Orbital Gradient       TolG            ....  1.000e-04
 Orbital Rotation angle TolX            ....  1.000e-04
 DIIS Error             TolErr          ....  1.000e-07

---------------------
INITIAL GUESS: MOREAD
---------------------
Guess MOs are being read from file: sp.ges
Input Geometry matches current geometry (good)
Atom 0: N(Shells)= 11 and 9 - projection required
Input basis set needs projection
NBasis(read)= 206
NBasis(calc)= 309
Basis set overlap was calculated
Using GuessMode=FMatrix for the initial guess
C*T matrix was formed
Effective Fockian was calculated
Effective Fockian was diagonalized
Initial density was built
                      ------------------
                      INITIAL GUESS DONE (   0.0 sec)
                      ------------------
             **** ENERGY FILE WAS UPDATED (sp.en.tmp) ****
Finished Guess after   0.1 sec
Maximum memory used throughout the entire GUESS-calculation: 29.0 MB

-------------------------------------------------------------------------------------------
                                      ORCA LEAN-SCF
                              memory conserving SCF solver
-------------------------------------------------------------------------------------------

----------------------------------------D-I-I-S--------------------------------------------
Iteration    Energy (Eh)           Delta-E    RMSDP     MaxDP     DIISErr   Damp  Time(sec)
-------------------------------------------------------------------------------------------
               ***  Starting incremental Fock matrix formation  ***
    1    -399.9582867177276739     0.00e+00  2.14e-03  1.03e-01  7.58e-02  0.700  10.2
    2    -399.9644859483024675    -6.20e-03  1.75e-03  8.01e-02  5.49e-02  0.700   4.6
                               ***Turning on AO-DIIS***
    3    -399.9691508784937923    -4.66e-03  1.39e-03  5.93e-02  3.92e-02  0.700   4.6
    4    -399.9725809742526508    -3.43e-03  3.42e-03  1.40e-01  2.76e-02  0.000   4.6
                              *** Initializing SOSCF ***
---------------------------------------S-O-S-C-F--------------------------------------
Iteration    Energy (Eh)           Delta-E    RMSDP     MaxDP     MaxGrad    Time(sec)
--------------------------------------------------------------------------------------
    5    -399.9812807864022943    -8.70e-03  1.49e-04  9.75e-03  1.86e-03     4.7
               *** Restarting incremental Fock matrix formation ***
    6    -399.9813106831516052    -2.99e-05  6.11e-05  4.25e-03  5.66e-04    10.1
    7    -399.9813196339233627    -8.95e-06  4.36e-05  3.90e-03  1.58e-04     7.9
    8    -399.9813206892507651    -1.06e-06  9.81e-06  8.05e-04  1.31e-04     7.6
    9    -399.9813210203102471    -3.31e-07  4.59e-06  3.26e-04  7.82e-05     6.9
   10    -399.9813210797010470    -5.94e-08  2.54e-06  2.18e-04  2.84e-05     6.8
                 **** Energy Check signals convergence ****

               *****************************************************
               *                     SUCCESS                       *
               *           SCF CONVERGED AFTER  10 CYCLES          *
               *****************************************************


------------------
NL GRID GENERATION
------------------

General Integration Accuracy     IntAcc      ... 4.004
Radial Grid Type                 RadialGrid  ... OptM3 with GC (2021)
Angular Grid (max. ang.)         AngularGrid ... 2 (Lebedev-110)
Angular grid pruning method      GridPruning ... 4 (adaptive)
Weight generation scheme         WeightScheme... mBecke (2022)
Basis function cutoff            BFCut       ... 1.0000e-10
Integration weight cutoff        WCut        ... 1.0000e-14
Partially contracted basis set               ... off
Rotationally invariant grid construction     ... off
Angular grids for H and He will be reduced by one unit

Total number of grid points                  ...    23177
Total number of batches                      ...      370
Average number of points per batch           ...       62
Average number of grid points per atom       ...     1656
Final grid set up in    0.1 sec

-------------------------------------------------------------------------------
                    post-SCF DFT-NL dispersion correction                      
-------------------------------------------------------------------------------

SCF Energy:     -399.981321080 
NL    Energy:      0.239268829 
SC+NL Energy:   -399.742052251 
NL done in  :              1.7 sec
-------------------------------------------------------------------------------
Recomputing exchange energy using gridx3       ... done (   19.203 sec)
Old exchange energy                            :    -16.926066678 Eh
New exchange energy                            :    -16.926102693 Eh
Exchange energy change after final integration :     -0.000036014 Eh
Total energy after final integration           :   -399.742088265 Eh
             **** ENERGY FILE WAS UPDATED (sp.en.tmp) ****

----------------
TOTAL SCF ENERGY
----------------

Total Energy       :       -399.74208826529429 Eh          -10877.53522 eV

Components:
Nuclear Repulsion  :        377.36577682280335 Eh           10268.64484 eV
Electronic Energy  :       -777.34709790250440 Eh          -21152.68992 eV
One Electron Energy:      -1287.75959788038404 Eh          -35041.72014 eV
Two Electron Energy:        510.41249997787963 Eh           13889.03023 eV

Virial components:
Potential Energy   :       -798.02201813991451 Eh          -21715.28310 eV
Kinetic Energy     :        398.27992987462022 Eh           10837.74787 eV
Virial Ratio       :          2.00367118270593

DFT components:
N(Alpha)           :       31.000030946768 electrons
N(Beta)            :       31.000030946768 electrons
N(Total)           :       62.000061893536 electrons
E(X)               :      -35.953046384169 Eh       
E(C)               :       -2.599587420081 Eh       
NL Energy, E(C,NL) :        0.239268828896 Eh       
E(XC)              :      -38.313364975354 Eh       

---------------
SCF CONVERGENCE
---------------

  Last Energy change         ...    5.9391e-08  Tolerance :   1.0000e-07
  Last MAX-Density change    ...    2.1831e-04  Tolerance :   1.0000e-05
  Last RMS-Density change    ...    2.5413e-06  Tolerance :   1.0000e-06
  Last DIIS Error            ...    1.8587e-03  Tolerance :   1.0000e-07
  Last Orbital Gradient      ...    2.8351e-05  Tolerance :   1.0000e-04
  Last Orbital Rotation      ...    2.7229e-05  Tolerance :   1.0000e-04


----------------
ORBITAL ENERGIES
----------------

  NO   OCC          E(Eh)            E(eV) 
   0   2.0000     -19.268478      -524.3220 
   1   2.0000     -14.416474      -392.2922 
   2   2.0000     -10.366590      -282.0892 
   3   2.0000     -10.335591      -281.2457 
   4   2.0000     -10.315594      -280.7016 
   5   2.0000     -10.309827      -280.5446 
   6   2.0000     -10.305304      -280.4216 
   7   2.0000     -10.303198      -280.3643 
   8   2.0000     -10.299842      -280.2730 
   9   2.0000      -1.220467       -33.2106 
  10   2.0000      -1.050760       -28.5926 
  11   2.0000      -1.020065       -27.7574 
  12   2.0000      -0.927946       -25.2507 
  13   2.0000      -0.904707       -24.6183 
  14   2.0000      -0.798730       -21.7346 
  15   2.0000      -0.771781       -21.0012 
  16   2.0000      -0.703653       -19.1474 
  17   2.0000      -0.655161       -17.8278 
  18   2.0000      -0.633182       -17.2298 
  19   2.0000      -0.601828       -16.3766 
  20   2.0000      -0.570103       -15.5133 
  21   2.0000      -0.561847       -15.2886 
  22   2.0000      -0.531803       -14.4711 
  23   2.0000      -0.509029       -13.8514 
  24   2.0000      -0.504806       -13.7365 
  25   2.0000      -0.493490       -13.4285 
  26   2.0000      -0.475198       -12.9308 
  27   2.0000      -0.453425       -12.3383 
  28   2.0000      -0.447978       -12.1901 
  29   2.0000      -0.373028       -10.1506 
  30   2.0000      -0.345648        -9.4056 
  31   0.0000       0.012543         0.3413 
  32   0.0000       0.052854         1.4382 
  33   0.0000       0.092045         2.5047 
  34   0.0000       0.114628         3.1192 
  35   0.0000       0.119928         3.2634 
  36   0.0000       0.143787         3.9126 
  37   0.0000       0.160369         4.3639 
  38   0.0000       0.166779         4.5383 
  39   0.0000       0.170467         4.6386 
  40   0.0000       0.187729         5.1084 
  41   0.0000       0.211293         5.7496 
*Only the first 10 virtual orbitals were printed.

                    ********************************
                    * MULLIKEN POPULATION ANALYSIS *
                    ********************************

-----------------------
MULLIKEN ATOMIC CHARGES
-----------------------
   0 C :   -0.063416
   1 C :   -0.251992
   2 C :    0.303571
   3 C :   -0.304551
   4 C :    0.281446
   5 C :   -0.199709
   6 O :   -0.378961
   7 C :   -0.266179
   8 N :    0.009218
   9 H :    0.131192
  10 H :    0.144263
  11 H :    0.140333
  12 H :    0.135921
  13 H :    0.318863
Sum of atomic charges:    0.0000000

--------------------------------
MULLIKEN REDUCED ORBITAL CHARGES
--------------------------------
  0 C s       :     3.140238  s :     3.140238
      pz      :     0.939056  p :     2.827323
      px      :     0.919673
      py      :     0.968594
      dz2     :     0.004512  d :     0.088317
      dxz     :     0.024198
      dyz     :     0.006950
      dx2y2   :     0.027827
      dxy     :     0.024830
      f0      :     0.001661  f :     0.007537
      f+1     :     0.000610
      f-1     :     0.000677
      f+2     :     0.000422
      f-2     :     0.000967
      f+3     :     0.001666
      f-3     :     0.001535

  1 C s       :     3.240064  s :     3.240064
      pz      :     0.986607  p :     2.916859
      px      :     0.978514
      py      :     0.951737
      dz2     :     0.004430  d :     0.087600
      dxz     :     0.013641
      dyz     :     0.014480
      dx2y2   :     0.024836
      dxy     :     0.030214
      f0      :     0.001612  f :     0.007470
      f+1     :     0.000676
      f-1     :     0.000670
      f+2     :     0.001097
      f-2     :     0.000203
      f+3     :     0.001608
      f-3     :     0.001604

  2 C s       :     3.107862  s :     3.107862
      pz      :     0.971300  p :     2.468082
      px      :     0.651623
      py      :     0.845160
      dz2     :     0.005879  d :     0.111228
      dxz     :     0.017384
      dyz     :     0.028624
      dx2y2   :     0.028400
      dxy     :     0.030942
      f0      :     0.001879  f :     0.009257
      f+1     :     0.000831
      f-1     :     0.000714
      f+2     :     0.000600
      f-2     :     0.001001
      f+3     :     0.002196
      f-3     :     0.002036

  3 C s       :     3.243970  s :     3.243970
      pz      :     1.037371  p :     2.975632
      px      :     0.903333
      py      :     1.034928
      dz2     :     0.006649  d :     0.077591
      dxz     :     0.021541
      dyz     :     0.005310
      dx2y2   :     0.021079
      dxy     :     0.023010
      f0      :     0.001627  f :     0.007357
      f+1     :     0.000669
      f-1     :     0.000686
      f+2     :     0.000329
      f-2     :     0.000947
      f+3     :     0.001694
      f-3     :     0.001405

  4 C s       :     3.008079  s :     3.008079
      pz      :     0.896750  p :     2.519492
      px      :     0.805876
      py      :     0.816866
      dz2     :     0.005247  d :     0.175154
      dxz     :     0.036778
      dyz     :     0.037152
      dx2y2   :     0.061400
      dxy     :     0.034577
      f0      :     0.002634  f :     0.015829
      f+1     :     0.001058
      f-1     :     0.000980
      f+2     :     0.001164
      f-2     :     0.002580
      f+3     :     0.003846
      f-3     :     0.003567

  5 C s       :     3.227502  s :     3.227502
      pz      :     0.991730  p :     2.886350
      px      :     0.983225
      py      :     0.911395
      dz2     :     0.004196  d :     0.078338
      dxz     :     0.007162
      dyz     :     0.019781
      dx2y2   :     0.027168
      dxy     :     0.020031
      f0      :     0.001657  f :     0.007519
      f+1     :     0.000711
      f-1     :     0.000688
      f+2     :     0.000490
      f-2     :     0.000804
      f+3     :     0.001801
      f-3     :     0.001367

  6 O s       :     3.744808  s :     3.744808
      pz      :     1.829967  p :     4.599946
      px      :     1.534209
      py      :     1.235771
      dz2     :     0.004497  d :     0.032460
      dxz     :     0.005059
      dyz     :     0.001787
      dx2y2   :     0.008767
      dxy     :     0.012350
      f0      :     0.000241  f :     0.001746
      f+1     :     0.000233
      f-1     :     0.000455
      f+2     :     0.000022
      f-2     :     0.000116
      f+3     :     0.000457
      f-3     :     0.000224

  7 C s       :     3.232907  s :     3.232907
      pz      :     0.921358  p :     2.927305
      px      :     1.047770
      py      :     0.958177
      dz2     :     0.002319  d :     0.089209
      dxz     :     0.038410
      dyz     :     0.004130
      dx2y2   :     0.018445
      dxy     :     0.025906
      f0      :     0.002584  f :     0.016758
      f+1     :     0.001178
      f-1     :     0.000523
      f+2     :     0.002760
      f-2     :     0.001323
      f+3     :     0.004669
      f-3     :     0.003721

  8 N s       :     3.592591  s :     3.592591
      pz      :     1.061680  p :     3.352509
      px      :     1.236031
      py      :     1.054798
      dz2     :     0.001899  d :     0.043591
      dxz     :     0.016180
      dyz     :     0.001559
      dx2y2   :     0.009724
      dxy     :     0.014230
      f0      :     0.000369  f :     0.002090
      f+1     :     0.000048
      f-1     :     0.000064
      f+2     :     0.000404
      f-2     :     0.000193
      f+3     :     0.000608
      f-3     :     0.000403

  9 H s       :     0.846682  s :     0.846682
      pz      :     0.004334  p :     0.022126
      px      :     0.004093
      py      :     0.013700

 10 H s       :     0.833389  s :     0.833389
      pz      :     0.004616  p :     0.022348
      px      :     0.009301
      py      :     0.008431

 11 H s       :     0.837376  s :     0.837376
      pz      :     0.004820  p :     0.022292
      px      :     0.004000
      py      :     0.013471

 12 H s       :     0.841831  s :     0.841831
      pz      :     0.004575  p :     0.022249
      px      :     0.013631
      py      :     0.004042

 13 H s       :     0.634470  s :     0.634470
      pz      :     0.016025  p :     0.046667
      px      :     0.011124
      py      :     0.019518


------------------------
MULLIKEN OVERLAP CHARGES
------------------------
B(  0-C ,  1-C ) :   1.0086 B(  0-C ,  2-C ) :  -0.0666 B(  0-C ,  3-C ) :  -0.0902 
B(  0-C ,  5-C ) :   1.0291 B(  0-C ,  9-H ) :   0.8706 B(  0-C , 10-H ) :  -0.0876 
B(  0-C , 12-H ) :  -0.0857 B(  1-C ,  2-C ) :   1.0475 B(  1-C ,  3-C ) :  -0.0745 
B(  1-C ,  4-C ) :  -0.0857 B(  1-C ,  7-C ) :  -0.1303 B(  1-C ,  9-H ) :  -0.1023 
B(  1-C , 10-H ) :   0.8497 B(  2-C ,  3-C ) :   0.5534 B(  2-C ,  4-C ) :   0.0991 
B(  2-C ,  5-C ) :  -0.1009 B(  2-C ,  7-C ) :  -0.1515 B(  2-C ,  8-N ) :  -0.1485 
B(  2-C , 10-H ) :  -0.0712 B(  3-C ,  4-C ) :   0.6756 B(  3-C ,  5-C ) :  -0.0549 
B(  3-C ,  6-O ) :  -0.2119 B(  3-C ,  7-C ) :  -0.1326 B(  3-C , 11-H ) :   0.8197 
B(  4-C ,  5-C ) :   1.0267 B(  4-C ,  6-O ) :   0.8095 B(  4-C , 11-H ) :  -0.1054 
B(  4-C , 12-H ) :  -0.0834 B(  4-C , 13-H ) :  -0.0620 B(  5-C ,  6-O ) :  -0.1008 
B(  5-C ,  9-H ) :  -0.0961 B(  5-C , 12-H ) :   0.8388 B(  6-O , 13-H ) :   0.6147 
B(  7-C ,  8-N ) :   2.0607 


                     *******************************
                     * LOEWDIN POPULATION ANALYSIS *
                     *******************************

----------------------
LOEWDIN ATOMIC CHARGES
----------------------
   0 C :   -0.120381
   1 C :   -0.093056
   2 C :   -0.146875
   3 C :   -0.082121
   4 C :   -0.262687
   5 C :   -0.099516
   6 O :    0.089407
   7 C :   -0.147674
   8 N :    0.066495
   9 H :    0.149058
  10 H :    0.153523
  11 H :    0.152872
  12 H :    0.152452
  13 H :    0.188502

-------------------------------
LOEWDIN REDUCED ORBITAL CHARGES
-------------------------------
  0 C s       :     2.760905  s :     2.760905
      pz      :     0.863771  p :     2.925042
      px      :     1.065312
      py      :     0.995959
      dz2     :     0.024848  d :     0.390821
      dxz     :     0.082000
      dyz     :     0.016755
      dx2y2   :     0.152599
      dxy     :     0.114619
      f0      :     0.003183  f :     0.043613
      f+1     :     0.004302
      f-1     :     0.003195
      f+2     :     0.002805
      f-2     :     0.006726
      f+3     :     0.012315
      f-3     :     0.011088

  1 C s       :     2.753957  s :     2.753957
      pz      :     0.893480  p :     2.922326
      px      :     1.025059
      py      :     1.003786
      dz2     :     0.025182  d :     0.374093
      dxz     :     0.042538
      dyz     :     0.045525
      dx2y2   :     0.102984
      dxy     :     0.157865
      f0      :     0.003178  f :     0.042680
      f+1     :     0.003705
      f-1     :     0.003773
      f+2     :     0.007777
      f-2     :     0.001291
      f+3     :     0.011704
      f-3     :     0.011252

  2 C s       :     2.695751  s :     2.695751
      pz      :     0.863746  p :     2.867937
      px      :     0.964386
      py      :     1.039805
      dz2     :     0.033260  d :     0.525113
      dxz     :     0.062237
      dyz     :     0.090914
      dx2y2   :     0.174189
      dxy     :     0.164513
      f0      :     0.004078  f :     0.058074
      f+1     :     0.004535
      f-1     :     0.004369
      f+2     :     0.005917
      f-2     :     0.007591
      f+3     :     0.016944
      f-3     :     0.014640

  3 C s       :     2.751823  s :     2.751823
      pz      :     0.923748  p :     2.929350
      px      :     1.018407
      py      :     0.987196
      dz2     :     0.026580  d :     0.359102
      dxz     :     0.070421
      dyz     :     0.015378
      dx2y2   :     0.141420
      dxy     :     0.105303
      f0      :     0.003208  f :     0.041846
      f+1     :     0.004376
      f-1     :     0.003328
      f+2     :     0.002553
      f-2     :     0.006731
      f+3     :     0.011447
      f-3     :     0.010203

  4 C s       :     2.716100  s :     2.716100
      pz      :     0.837410  p :     2.763522
      px      :     0.956142
      py      :     0.969969
      dz2     :     0.044310  d :     0.685617
      dxz     :     0.118469
      dyz     :     0.105644
      dx2y2   :     0.199131
      dxy     :     0.218065
      f0      :     0.007116  f :     0.097449
      f+1     :     0.007370
      f-1     :     0.006224
      f+2     :     0.007626
      f-2     :     0.017887
      f+3     :     0.026208
      f-3     :     0.025018

  5 C s       :     2.759988  s :     2.759988
      pz      :     0.896845  p :     2.936844
      px      :     1.002921
      py      :     1.037079
      dz2     :     0.025611  d :     0.360522
      dxz     :     0.017893
      dyz     :     0.064783
      dx2y2   :     0.144911
      dxy     :     0.107324
      f0      :     0.003217  f :     0.042161
      f+1     :     0.003280
      f-1     :     0.004369
      f+2     :     0.003185
      f-2     :     0.005590
      f+3     :     0.012099
      f-3     :     0.010423

  6 O s       :     3.319211  s :     3.319211
      pz      :     1.713578  p :     4.514980
      px      :     1.550277
      py      :     1.251125
      dz2     :     0.008440  d :     0.071548
      dxz     :     0.008342
      dyz     :     0.005824
      dx2y2   :     0.025207
      dxy     :     0.023735
      f0      :     0.000402  f :     0.004853
      f+1     :     0.000359
      f-1     :     0.000801
      f+2     :     0.000025
      f-2     :     0.000560
      f+3     :     0.001907
      f-3     :     0.000798

  7 C s       :     2.811871  s :     2.811871
      pz      :     0.852089  p :     2.851718
      px      :     1.134517
      py      :     0.865112
      dz2     :     0.039370  d :     0.424306
      dxz     :     0.126363
      dyz     :     0.013000
      dx2y2   :     0.119223
      dxy     :     0.126350
      f0      :     0.006543  f :     0.059778
      f+1     :     0.008522
      f-1     :     0.001844
      f+2     :     0.007255
      f-2     :     0.003482
      f+3     :     0.016102
      f-3     :     0.016030

  8 N s       :     3.303149  s :     3.303149
      pz      :     1.019099  p :     3.506185
      px      :     1.441980
      py      :     1.045106
      dz2     :     0.011410  d :     0.108535
      dxz     :     0.028462
      dyz     :     0.002753
      dx2y2   :     0.033363
      dxy     :     0.032547
      f0      :     0.001641  f :     0.015635
      f+1     :     0.002354
      f-1     :     0.000485
      f+2     :     0.001840
      f-2     :     0.000878
      f+3     :     0.004210
      f-3     :     0.004227

  9 H s       :     0.792932  s :     0.792932
      pz      :     0.012454  p :     0.058010
      px      :     0.011890
      py      :     0.033665

 10 H s       :     0.786700  s :     0.786700
      pz      :     0.013705  p :     0.059777
      px      :     0.024127
      py      :     0.021945

 11 H s       :     0.787381  s :     0.787381
      pz      :     0.014460  p :     0.059746
      px      :     0.011852
      py      :     0.033434

 12 H s       :     0.788149  s :     0.788149
      pz      :     0.013359  p :     0.059399
      px      :     0.034010
      py      :     0.012030

 13 H s       :     0.659974  s :     0.659974
      pz      :     0.042670  p :     0.151523
      px      :     0.040675
      py      :     0.068179


---------------------------------
LOEWDIN BOND ORDERS (THRESH 0.050000)
---------------------------------
B(  0-C ,  1-C ) :   1.5703 B(  0-C ,  2-C ) :   0.2391 B(  0-C ,  3-C ) :   0.1035 
B(  0-C ,  4-C ) :   0.2429 B(  0-C ,  5-C ) :   1.5919 B(  0-C ,  9-H ) :   0.8251 
B(  0-C , 10-H ) :   0.0940 B(  0-C , 12-H ) :   0.0952 B(  1-C ,  2-C ) :   1.4519 
B(  1-C ,  3-C ) :   0.2176 B(  1-C ,  4-C ) :   0.0978 B(  1-C ,  5-C ) :   0.2396 
B(  1-C ,  7-C ) :   0.2108 B(  1-C ,  9-H ) :   0.0966 B(  1-C , 10-H ) :   0.8220 
B(  2-C ,  3-C ) :   1.4436 B(  2-C ,  4-C ) :   0.2342 B(  2-C ,  5-C ) :   0.0984 
B(  2-C ,  7-C ) :   1.2304 B(  2-C ,  8-N ) :   0.2328 B(  2-C , 10-H ) :   0.0929 
B(  2-C , 11-H ) :   0.0914 B(  3-C ,  4-C ) :   1.5016 B(  3-C ,  5-C ) :   0.2286 
B(  3-C ,  6-O ) :   0.1501 B(  3-C ,  7-C ) :   0.2104 B(  3-C , 11-H ) :   0.8158 
B(  4-C ,  5-C ) :   1.4657 B(  4-C ,  6-O ) :   1.6591 B(  4-C , 11-H ) :   0.0951 
B(  4-C , 12-H ) :   0.0969 B(  4-C , 13-H ) :   0.1060 B(  5-C ,  6-O ) :   0.1530 
B(  5-C ,  9-H ) :   0.0975 B(  5-C , 12-H ) :   0.8220 B(  6-O , 13-H ) :   0.9919 
B(  7-C ,  8-N ) :   3.2838 

------------------------------------------
LOEWDIN REDUCED ORBITAL POPULATIONS PER MO
-------------------------------------------
THRESHOLD FOR PRINTING IS 0.1%%
                      0         1         2         3         4         5   
                 -19.26848 -14.41647 -10.36659 -10.33559 -10.31559 -10.30983
                   2.00000   2.00000   2.00000   2.00000   2.00000   2.00000
                  --------  --------  --------  --------  --------  --------
 1 C  py              0.0       0.0       0.0       0.1       0.0       0.0
 1 C  dx2y2           0.0       0.0       0.0       0.2       0.0       0.0
 2 C  s               0.0       0.0       0.0      98.5       0.0       0.0
 2 C  px              0.0       0.0       0.0       0.0       0.1       0.1
 2 C  dx2y2           0.0       0.0       0.0       0.0       0.1       0.0
 2 C  dxy             0.0       0.0       0.0       0.0       0.1       0.2
 3 C  s               0.0       0.0       0.0       0.0       0.0      98.8
 3 C  px              0.0       0.0       0.1       0.1       0.0       0.0
 3 C  dx2y2           0.0       0.0       0.2       0.0       0.0       0.0
 3 C  dxy             0.0       0.0       0.1       0.2       0.0       0.0
 4 C  s               0.0       0.0      98.7       0.0       0.0       0.0
 4 C  px              0.0       0.0       0.0       0.0       0.0       0.1
 4 C  dx2y2           0.0       0.0       0.0       0.0       0.0       0.2
 5 C  py              0.0       0.0       0.1       0.0       0.0       0.0
 5 C  dx2y2           0.0       0.0       0.2       0.0       0.0       0.0
 6 O  s              99.7       0.0       0.0       0.0       0.0       0.0
 7 C  s               0.0       0.0       0.0       0.0      98.3       0.0
 7 C  px              0.0       0.2       0.0       0.1       0.0       0.0
 7 C  dx2y2           0.0       0.2       0.0       0.1       0.0       0.0
 7 C  f+1             0.0       0.1       0.0       0.0       0.0       0.0
 7 C  f-3             0.0       0.2       0.0       0.0       0.0       0.0
 8 N  s               0.0      99.0       0.0       0.0       0.1       0.0
 8 N  px              0.0       0.0       0.0       0.0       0.3       0.0
 8 N  dz2             0.0       0.0       0.0       0.0       0.2       0.0
 8 N  dx2y2           0.0       0.0       0.0       0.0       0.3       0.0
 8 N  dxy             0.0       0.0       0.0       0.0       0.2       0.0

                      6         7         8         9        10        11   
                 -10.30530 -10.30320 -10.29984  -1.22047  -1.05076  -1.02007
                   2.00000   2.00000   2.00000   2.00000   2.00000   2.00000
                  --------  --------  --------  --------  --------  --------
 0 C  s              96.7       1.8       0.3       0.1       1.6       8.6
 0 C  px              0.0       0.1       0.1       0.0       0.2       0.2
 0 C  py              0.0       0.0       0.1       0.1       0.5       2.1
 0 C  dz2             0.0       0.1       0.1       0.0       0.1       0.4
 0 C  dx2y2           0.0       0.2       0.0       0.0       0.0       0.0
 0 C  dxy             0.0       0.1       0.2       0.0       0.0       0.0
 1 C  s               1.8      97.0       0.0       0.0       3.5       8.3
 1 C  px              0.1       0.0       0.0       0.0       0.0       1.5
 1 C  py              0.0       0.0       0.0       0.0       1.4       0.9
 1 C  dz2             0.1       0.0       0.0       0.0       0.2       0.4
 1 C  dx2y2           0.2       0.0       0.0       0.0       0.0       0.0
 2 C  s               0.0       0.0       0.0       0.1       9.1       7.1
 2 C  px              0.0       0.0       0.0       0.1       0.8       4.2
 2 C  py              0.0       0.1       0.0       0.0       0.1       0.5
 2 C  dz2             0.0       0.1       0.0       0.0       0.6       0.3
 2 C  dx2y2           0.0       0.2       0.0       0.0       0.2       0.1
 3 C  s               0.0       0.0       0.0       1.0       3.3       7.3
 3 C  px              0.0       0.0       0.0       1.9       0.7       0.0
 3 C  py              0.0       0.0       0.0       0.0       1.0       2.4
 3 C  dz2             0.0       0.0       0.0       0.1       0.2       0.4
 3 C  dx2y2           0.0       0.0       0.0       0.4       0.0       0.0
 4 C  s               0.0       0.0       0.0      10.3       1.0       4.9
 4 C  px              0.0       0.0       0.0       4.6       1.0       2.7
 4 C  py              0.0       0.0       0.1       4.3       0.3       2.4
 4 C  dz2             0.0       0.0       0.1       1.3       0.0       0.2
 4 C  dx2y2           0.0       0.0       0.2       0.0       0.0       0.0
 4 C  dxy             0.0       0.0       0.0       2.7       0.0       0.3
 4 C  f+1             0.0       0.0       0.0       0.1       0.0       0.0
 4 C  f-1             0.0       0.0       0.0       0.1       0.0       0.0
 4 C  f+3             0.0       0.0       0.0       0.2       0.0       0.0
 4 C  f-3             0.0       0.0       0.0       0.3       0.0       0.0
 5 C  s               0.3       0.0      98.5       1.0       1.1       7.3
 5 C  px              0.1       0.0       0.0       0.0       0.6       2.4
 5 C  py              0.1       0.0       0.0       1.9       0.0       0.0
 5 C  dz2             0.1       0.0       0.0       0.1       0.1       0.4
 5 C  dx2y2           0.0       0.0       0.0       0.4       0.0       0.0
 5 C  dxy             0.2       0.0       0.0       0.0       0.0       0.0
 6 O  s               0.0       0.0       0.0      51.9       0.3       1.3
 6 O  px              0.0       0.0       0.0       2.4       0.0       0.2
 6 O  py              0.0       0.0       0.0       0.0       0.1       0.6
 6 O  dz2             0.0       0.0       0.0       0.1       0.0       0.0
 7 C  s               0.0       0.0       0.0       0.0      25.6       2.7
 7 C  px              0.0       0.0       0.0       0.0       4.3      10.0
 7 C  py              0.0       0.0       0.0       0.0       0.4       1.0
 7 C  dz2             0.0       0.0       0.0       0.0       0.9       0.0
 7 C  dx2y2           0.0       0.0       0.0       0.0       1.7       0.1
 7 C  dxy             0.0       0.0       0.0       0.0       0.8       0.0
 8 N  s               0.0       0.0       0.0       0.0      28.0      10.8
 8 N  px              0.0       0.0       0.0       0.0       6.9       2.0
 8 N  py              0.0       0.0       0.0       0.0       0.7       0.2
 8 N  dz2             0.0       0.0       0.0       0.0       0.2       0.0
 8 N  dx2y2           0.0       0.0       0.0       0.0       0.3       0.1
 8 N  dxy             0.0       0.0       0.0       0.0       0.2       0.0
 9 H  s               0.0       0.0       0.0       0.0       0.2       1.1
10 H  s               0.0       0.0       0.0       0.0       0.5       1.0
11 H  s               0.0       0.0       0.0       0.2       0.5       0.8
12 H  s               0.0       0.0       0.0       0.2       0.1       0.9
13 H  s               0.0       0.0       0.0      10.8       0.1       0.5
13 H  px              0.0       0.0       0.0       0.2       0.0       0.0
13 H  py              0.0       0.0       0.0       2.5       0.0       0.1

                     12        13        14        15        16        17   
                  -0.92795  -0.90471  -0.79873  -0.77178  -0.70365  -0.65516
                   2.00000   2.00000   2.00000   2.00000   2.00000   2.00000
                  --------  --------  --------  --------  --------  --------
 0 C  s               9.1       7.6       2.6       3.6       3.5       0.3
 0 C  px              2.9       4.0       3.8      11.0       0.1       2.2
 0 C  py              0.6       0.4       0.9       0.1      10.0       0.0
 0 C  dz2             0.2       0.1       0.0       0.0       0.0       0.0
 0 C  dx2y2           0.0       0.7       0.0       0.1       0.0       0.1
 0 C  dxy             0.9       0.4       0.3       0.4       0.0       0.4
 1 C  s               0.2      14.4       0.9       7.7       0.1       0.4
 1 C  px              4.5       0.3       4.1       2.0       0.1       9.5
 1 C  py              3.5       0.5       2.8       0.1       8.2       0.9
 1 C  dz2             0.0       0.2       0.0       0.0       0.0       0.0
 1 C  dx2y2           1.5       0.1       0.1       0.1       0.2       0.2
 1 C  dxy             0.0       0.4       0.1       0.1       0.7       0.0
 2 C  s              12.4       0.6       3.5       0.4       0.3       0.7
 2 C  px              0.2       1.4       9.9       0.3       5.7      12.7
 2 C  py              0.9       9.2       0.0      11.6       3.8       3.8
 2 C  dz2             0.2       0.0       0.0       0.0       0.0       0.0
 2 C  dx2y2           0.0       0.7       0.2       0.3       0.0       0.2
 2 C  dxy             0.2       1.3       0.3       0.0       0.0       0.1
 3 C  s               4.7      10.7       6.5       1.2       0.5       0.1
 3 C  px              4.2       2.5       2.7       5.7       0.2      14.1
 3 C  py              0.1       0.2       1.1       0.5       7.4       4.0
 3 C  dz2             0.1       0.1       0.0       0.0       0.0       0.0
 3 C  dx2y2           0.0       0.4       0.2       0.0       0.5       0.3
 3 C  dxy             1.2       0.5       0.1       0.1       0.0       0.6
 3 C  f-3             0.0       0.1       0.0       0.0       0.0       0.0
 4 C  s               1.8      10.1       0.1       4.9       0.3       1.0
 4 C  px              2.0       3.2      11.5       0.6       2.6       6.1
 4 C  py              6.1       0.2       6.3       0.1       6.4       0.5
 4 C  dx2y2           1.2       0.2       0.2       0.3       0.3       1.8
 4 C  dxy             0.1       1.5       0.0       0.0       0.2       1.7
 5 C  s              15.4       0.7       5.9       2.6       1.0       0.9
 5 C  px              0.4       0.3       3.4       0.1       0.6       0.2
 5 C  py              0.3       5.9       1.4      10.8       1.2       0.3
 5 C  dz2             0.3       0.0       0.0       0.0       0.0       0.0
 5 C  dx2y2           0.1       0.5       0.1       0.1       0.5       0.0
 5 C  dxy             0.3       1.3       0.0       0.3       0.7       0.6
 6 O  s               0.2       2.5       0.1       0.5       0.2       2.1
 6 O  px              0.0       1.5       0.4       1.8       3.1       4.5
 6 O  py              1.4       3.0       5.3      12.5      17.4      12.0
 6 O  dx2y2           0.0       0.0       0.1       0.1       0.2       0.0
 6 O  dxy             0.0       0.1       0.1       0.3       0.3       0.1
 7 C  s               0.8       0.1       3.1       0.7       1.3       1.4
 7 C  px             10.0       0.3       8.2       2.4       2.7       1.1
 7 C  py              0.7       0.6       1.4       0.4       0.0       2.8
 7 C  dx2y2           0.2       0.0       0.0       0.2       0.0       0.3
 7 C  dxy             0.0       0.2       0.1       0.2       0.1       0.1
 8 N  s               2.3       0.1       1.4       0.3       0.5       0.5
 8 N  px              0.3       0.0       0.5       0.1       0.3       0.2
 8 N  py              0.0       0.0       0.1       0.0       0.0       0.5
 9 H  s               1.8       1.9       1.0       2.3       7.4       0.0
 9 H  py              0.2       0.1       0.1       0.2       0.4       0.0
10 H  s               0.1       3.5       0.1       4.0       0.8       4.4
10 H  px              0.0       0.2       0.1       0.2       0.1       0.0
10 H  py              0.0       0.1       0.0       0.2       0.0       0.2
11 H  s               1.3       2.4       2.6       1.5       3.6       0.4
11 H  px              0.0       0.1       0.1       0.0       0.0       0.2
11 H  py              0.1       0.2       0.2       0.1       0.2       0.0
12 H  s               3.1       0.1       3.5       1.4       0.0       0.9
12 H  px              0.3       0.0       0.3       0.2       0.0       0.1
13 H  s               0.4       1.5       1.2       4.0       5.0       3.6
13 H  px              0.0       0.1       0.0       0.2       0.4       0.0
13 H  py              0.1       0.2       0.1       0.2       0.1       0.0

                     18        19        20        21        22        23   
                  -0.63318  -0.60183  -0.57010  -0.56185  -0.53180  -0.50903
                   2.00000   2.00000   2.00000   2.00000   2.00000   2.00000
                  --------  --------  --------  --------  --------  --------
 0 C  s               1.8       0.0       0.3       0.0       0.0       0.0
 0 C  pz              0.0       0.0       0.0       4.5       0.0       2.2
 0 C  px              0.1      10.2       1.0       0.0       8.4       0.0
 0 C  py              0.2       0.1      24.0       0.0       0.0       0.0
 0 C  dxz             0.0       0.0       0.0       0.0       0.0       0.4
 0 C  dyz             0.0       0.0       0.0       0.3       0.0       0.0
 0 C  dx2y2           1.5       0.1       0.6       0.0       0.6       0.0
 0 C  dxy             0.1       0.5       0.2       0.0       0.1       0.0
 0 C  f+3             0.0       0.2       0.0       0.0       0.0       0.0
 0 C  f-3             0.0       0.2       0.0       0.0       0.0       0.0
 1 C  s               2.5       0.1       0.3       0.0       0.1       0.0
 1 C  pz              0.0       0.0       0.0       4.5       0.0       8.7
 1 C  px              4.7       1.2       3.7       0.0       7.6       0.0
 1 C  py              1.8      16.7       0.8       0.0       0.1       0.0
 1 C  dyz             0.0       0.0       0.0       0.2       0.0       0.5
 1 C  dx2y2           0.2       0.4       1.3       0.0       0.1       0.0
 1 C  dxy             1.1       0.0       0.0       0.0       0.2       0.0
 1 C  f+3             0.0       0.0       0.2       0.0       0.0       0.0
 1 C  f-3             0.0       0.0       0.1       0.0       0.0       0.0
 2 C  s               0.1       0.9       0.5       0.0       0.1       0.0
 2 C  pz              0.0       0.0       0.0       8.3       0.0      16.8
 2 C  px              3.7       2.4       2.2       0.0       0.3       0.0
 2 C  py              0.0       9.4       0.7       0.0       1.3       0.0
 2 C  dxz             0.0       0.0       0.0       0.1       0.0       0.3
 2 C  dx2y2           3.3       0.4       0.4       0.0       0.0       0.0
 2 C  dxy             1.2       0.1       1.0       0.0       0.8       0.0
 2 C  f0              0.0       0.0       0.0       0.1       0.0       0.1
 2 C  f+3             0.0       0.0       0.2       0.0       0.0       0.0
 2 C  f-3             0.0       0.0       0.2       0.0       0.0       0.0
 3 C  s               2.3       0.0       0.1       0.0       0.6       0.0
 3 C  pz              0.0       0.0       0.0      12.0       0.0       1.9
 3 C  px              5.2       0.5       0.6       0.0       0.8       0.0
 3 C  py              5.1       0.0      18.8       0.0       1.2       0.0
 3 C  dxz             0.0       0.0       0.0       0.3       0.0       1.1
 3 C  dyz             0.0       0.0       0.0       0.3       0.0       0.3
 3 C  dx2y2           1.6       0.2       0.9       0.0       0.4       0.0
 3 C  dxy             0.0       1.1       0.2       0.0       0.6       0.0
 3 C  f0              0.0       0.0       0.0       0.1       0.0       0.0
 3 C  f+3             0.0       0.3       0.0       0.0       0.0       0.0
 3 C  f-3             0.0       0.2       0.0       0.0       0.0       0.0
 4 C  s               1.5       0.5       0.4       0.0       0.1       0.0
 4 C  pz              0.0       0.0       0.0      23.8       0.0       2.8
 4 C  px              1.4       0.1       2.0       0.0       1.5       0.0
 4 C  py              0.6      13.1       0.1       0.0       0.8       0.0
 4 C  dz2             0.2       0.0       0.0       0.0       0.0       0.0
 4 C  dxz             0.0       0.0       0.0       0.1       0.0       1.5
 4 C  dyz             0.0       0.0       0.0       0.2       0.0       0.6
 4 C  dx2y2           0.1       0.2       1.3       0.0       1.1       0.0
 4 C  dxy             1.6       0.2       0.0       0.0       0.2       0.0
 4 C  f0              0.0       0.0       0.0       0.3       0.0       0.0
 4 C  f-2             0.0       0.0       0.0       0.1       0.0       0.2
 4 C  f+3             0.0       0.0       0.3       0.0       0.6       0.0
 4 C  f-3             0.0       0.0       0.2       0.0       0.4       0.0
 5 C  s               2.4       0.0       0.3       0.0       0.1       0.0
 5 C  pz              0.0       0.0       0.0       8.8       0.0       0.0
 5 C  px             16.0       1.0       5.0       0.0       9.6       0.0
 5 C  py              0.0      17.0       0.4       0.0       0.4       0.0
 5 C  dxz             0.0       0.0       0.0       0.2       0.0       0.1
 5 C  dyz             0.0       0.0       0.0       0.5       0.0       0.3
 5 C  dx2y2           0.6       0.1       0.6       0.0       1.0       0.0
 5 C  dxy             0.2       0.2       0.7       0.0       0.2       0.0
 5 C  f0              0.0       0.0       0.0       0.1       0.0       0.0
 5 C  f+3             0.0       0.0       0.2       0.0       0.0       0.0
 5 C  f-3             0.0       0.0       0.2       0.0       0.0       0.0
 6 O  s               0.2       0.2       0.0       0.0       4.8       0.0
 6 O  pz              0.0       0.0       0.0      29.7       0.0      25.9
 6 O  px              2.8       5.6       0.6       0.0      35.2       0.0
 6 O  py              0.1       3.9       0.5       0.0       3.7       0.0
 6 O  dz2             0.0       0.0       0.0       0.0       0.1       0.0
 6 O  dxz             0.0       0.0       0.0       0.2       0.0       0.0
 6 O  dx2y2           0.1       0.3       0.0       0.0       0.1       0.0
 7 C  s               2.0       1.2       0.2       0.0       0.0       0.0
 7 C  pz              0.0       0.0       0.0       2.8       0.0      20.3
 7 C  px              2.3       2.0       0.2       0.0       0.3       0.0
 7 C  py              0.5       0.6       0.1       0.0       1.6       0.0
 7 C  dxz             0.0       0.0       0.0       0.1       0.0       0.0
 7 C  dxy             0.0       0.3       0.0       0.0       0.0       0.0
 7 C  f0              0.0       0.0       0.0       0.0       0.0       0.2
 7 C  f+2             0.0       0.0       0.0       0.0       0.0       0.2
 7 C  f-2             0.0       0.0       0.0       0.0       0.0       0.1
 8 N  s               0.6       0.5       0.1       0.0       0.0       0.0
 8 N  pz              0.0       0.0       0.0       1.0       0.0      13.5
 8 N  px              0.5       0.9       0.2       0.0       0.3       0.0
 8 N  py              0.1       0.2       0.0       0.0       0.9       0.0
 8 N  dxz             0.0       0.0       0.0       0.1       0.0       0.6
 9 H  s               0.5       0.1      13.3       0.0       0.6       0.0
 9 H  px              0.0       0.1       0.0       0.0       0.1       0.0
 9 H  py              0.0       0.0       0.3       0.0       0.0       0.0
10 H  s               7.0       2.3       1.2       0.0       1.7       0.0
10 H  pz              0.0       0.0       0.0       0.0       0.0       0.1
10 H  px              0.2       0.2       0.0       0.0       0.0       0.0
10 H  py              0.2       0.0       0.0       0.0       0.1       0.0
11 H  s               8.0       0.0      10.8       0.0       1.4       0.0
11 H  pz              0.0       0.0       0.0       0.1       0.0       0.0
11 H  py              0.4       0.0       0.2       0.0       0.0       0.0
12 H  s              12.1       1.9       1.3       0.0       5.7       0.0
12 H  px              0.5       0.1       0.0       0.0       0.1       0.0
12 H  py              0.1       0.1       0.0       0.0       0.1       0.0
13 H  s               0.1       1.1       0.1       0.0       2.6       0.0
13 H  pz              0.0       0.0       0.0       0.6       0.0       0.6
13 H  px              0.0       0.3       0.0       0.0       0.5       0.0

                     24        25        26        27        28        29   
                  -0.50481  -0.49349  -0.47520  -0.45343  -0.44798  -0.37303
                   2.00000   2.00000   2.00000   2.00000   2.00000   2.00000
                  --------  --------  --------  --------  --------  --------
 0 C  pz              0.0       0.0       0.0      16.1       0.0      19.0
 0 C  px              6.3       0.2       2.2       0.0       0.3       0.0
 0 C  py              4.2       3.6       2.2       0.0       0.6       0.0
 0 C  dxz             0.0       0.0       0.0       0.0       0.0       0.3
 0 C  dyz             0.0       0.0       0.0       0.3       0.0       0.1
 0 C  dx2y2           0.3       1.9       1.4       0.0       0.2       0.0
 0 C  dxy             1.6       0.2       0.1       0.0       0.2       0.0
 1 C  s               0.1       0.1       0.0       0.0       0.2       0.0
 1 C  pz              0.0       0.0       0.0       8.5       0.0       0.8
 1 C  px              8.4       0.2       2.5       0.0       0.6       0.0
 1 C  py              6.2       2.2       1.4       0.0       2.4       0.0
 1 C  dxz             0.0       0.0       0.0       0.7       0.0       1.3
 1 C  dyz             0.0       0.0       0.0       0.0       0.0       1.5
 1 C  dx2y2           0.1       0.1       0.3       0.0       0.1       0.0
 1 C  dxy             4.1       0.7       0.0       0.0       0.1       0.0
 1 C  f+2             0.0       0.0       0.0       0.0       0.0       0.3
 2 C  s               0.0       0.4       0.0       0.0       0.0       0.0
 2 C  pz              0.0       0.0       0.0       0.2       0.0      12.2
 2 C  px              0.7       0.2       2.9       0.0       0.2       0.0
 2 C  py              5.6       1.1       0.8       0.0       3.0       0.0
 2 C  dxz             0.0       0.0       0.0       1.5       0.0       1.2
 2 C  dyz             0.0       0.0       0.0       0.6       0.0       1.1
 2 C  dx2y2           0.3       0.5       0.9       0.0       0.9       0.0
 2 C  dxy             0.6       0.0       0.3       0.0       1.7       0.0
 2 C  f+2             0.0       0.0       0.0       0.1       0.0       0.0
 2 C  f-2             0.0       0.0       0.0       0.0       0.0       0.2
 2 C  f+3             0.1       0.0       0.0       0.0       0.2       0.0
[...]
 0 C  f+3             0.2       0.0       0.0       0.0       0.0       0.0
 1 C  px              0.1       0.0       0.0       0.0       0.0       0.0
 2 C  s               0.4       0.0       0.0       0.0       0.1       0.0
 2 C  px              0.1       0.0       0.0       0.0       0.1       0.0
 2 C  f-3             0.1       0.0       0.0       0.0       0.0       0.0
 3 C  s               0.2       0.0       0.0       0.1       0.3       0.5
 3 C  px              0.3       0.0       0.0       0.0       0.0       0.4
 3 C  py              0.4       0.0       0.0       0.3       0.0       0.0
 3 C  dx2y2           0.1       0.0       0.0       0.1       0.0       0.2
 3 C  dxy             0.5       0.0       0.0       0.1       0.0       0.1
 3 C  f+3             0.3       0.0       0.0       0.0       0.1       0.2
 4 C  s               1.0       0.0       0.0       0.6       1.2       0.8
 4 C  pz              0.0       0.0       0.7       0.0       0.0       0.0
 4 C  px              0.3       0.0       0.0       0.3       1.0       0.0
 4 C  py              0.5       0.0       0.0       0.6       0.4       0.1
 4 C  dz2             0.4       0.0       0.0       0.1       0.1       0.1
 4 C  dxz             0.0       0.2       1.0       0.0       0.0       0.0
 4 C  dyz             0.0       0.4       0.6       0.0       0.0       0.0
 4 C  dx2y2           0.2       0.0       0.0       1.3       0.3       1.3
 4 C  dxy             1.2       0.0       0.0       1.1       0.7       0.6
 4 C  f0              0.0       0.0       0.3       0.0       0.0       0.0
 4 C  f-1             0.0       0.0       0.0       0.1       0.1       0.0
 4 C  f-2             0.0       0.0       0.6       0.0       0.0       0.0
 4 C  f+3             2.3       0.0       0.0       0.0       0.3       0.8
 4 C  f-3             3.1       0.0       0.0       0.1       0.8       1.2
 5 C  s               0.0       0.0       0.0       0.1       0.4       0.0
 5 C  pz              0.0       0.1       0.0       0.0       0.0       0.0
 5 C  px              0.1       0.0       0.0       0.0       0.1       0.1
 5 C  py              1.0       0.0       0.0       0.1       0.0       0.0
 5 C  dxy             0.5       0.0       0.0       0.1       0.0       0.1
 5 C  f-1             0.1       0.0       0.0       0.0       0.0       0.0
 5 C  f+3             1.2       0.0       0.0       0.0       0.0       0.0
 5 C  f-3             0.5       0.0       0.0       0.0       0.1       0.1
 6 O  s               3.9       0.0       0.0       1.8       1.1       2.7
 6 O  pz              0.0       0.1       1.0       0.0       0.0       0.0
 6 O  px              0.9       0.0       0.0       2.3       0.5       0.0
 6 O  py              0.2       0.0       0.0       1.5       2.1       0.7
 6 O  dz2            25.5       0.0       0.0      44.5      10.0       5.5
 6 O  dxz             0.0      48.3      40.4       0.0       0.0       0.0
 6 O  dyz             0.0      47.5      41.7       0.0       0.0       0.0
 6 O  dx2y2          15.1       0.0       0.0      25.7       2.0      46.8
 6 O  dxy             2.8       0.0       0.0       5.2      70.6       4.5
 6 O  f0              0.0       1.9       3.8       0.0       0.0       0.0
 6 O  f+1             0.2       0.0       0.0       5.7       0.6       0.4
 6 O  f-1             0.9       0.0       0.0       1.0       3.1       2.5
 6 O  f+2             0.0       0.0       0.5       0.0       0.0       0.0
 6 O  f-2             0.0       0.7       9.4       0.0       0.0       0.0
 6 O  f+3            23.8       0.0       0.0       0.7       0.6      23.4
 6 O  f-3             3.9       0.0       0.0       3.9       2.4       0.0
 7 C  s               0.4       0.0       0.0       0.0       0.1       0.0
 7 C  px              0.3       0.0       0.0       0.0       0.0       0.0
 8 N  s               0.2       0.0       0.0       0.0       0.0       0.0
 8 N  px              0.2       0.0       0.0       0.0       0.0       0.0
 8 N  f+1             0.1       0.0       0.0       0.0       0.0       0.0
 8 N  f-3             0.2       0.0       0.0       0.0       0.0       0.0
13 H  s               2.8       0.0       0.0       2.1       0.2       5.9
13 H  pz              0.0       0.4       0.0       0.0       0.0       0.0
13 H  px              0.1       0.0       0.0       0.0       0.1       0.0
13 H  py              1.2       0.0       0.0       0.2       0.0       0.2

                    300       301       302       303       304       305   
                  22.24123  22.69563  22.77574  22.81319  23.04956  23.35632
                   0.00000   0.00000   0.00000   0.00000   0.00000   0.00000
                  --------  --------  --------  --------  --------  --------
 0 C  s              21.6       0.7      51.7      19.6       0.5       3.7
 0 C  px              0.0       0.5       0.0       0.0       0.0       0.0
 0 C  dxy             0.0       0.1       0.0       0.0       0.0       0.0
 1 C  s              15.7      40.7       3.7      23.5       1.6      10.1
 1 C  px              0.1       0.0       0.1       0.0       0.1       0.1
 1 C  py              0.0       0.0       0.2       0.0       0.1       0.0
 1 C  dx2y2           0.0       0.0       0.1       0.0       0.1       0.0
 2 C  s              13.8       2.8       5.1       1.8      43.7      28.8
 2 C  px              0.2       0.0       0.0       0.0       0.1       0.0
 2 C  py              0.0       0.1       0.3       0.2       0.0       0.0
 2 C  dxy             0.0       0.0       0.1       0.1       0.0       0.0
 3 C  s              19.4       1.6      29.1      34.8       0.3      10.4
 3 C  px              0.0       0.2       0.0       0.0       0.4       0.0
 3 C  dxy             0.0       0.0       0.0       0.0       0.1       0.0
 4 C  s               7.9       1.4       7.7       4.5      48.7      27.4
 4 C  px              0.1       0.1       0.2       0.1       0.0       0.1
 4 C  py              0.1       0.2       0.1       0.1       0.0       0.0
 4 C  dx2y2           0.0       0.1       0.1       0.1       0.0       0.0
 5 C  s              18.8      49.5       0.1      14.3       2.2      13.1
 5 C  px              0.1       0.0       0.0       0.0       0.0       0.0
 5 C  py              0.0       0.0       0.4       0.0       0.1       0.0
 5 C  dxy             0.0       0.0       0.1       0.0       0.0       0.0
 6 O  s               0.1       0.0       0.0       0.0       0.1       0.1
 7 C  s               0.8       1.2       0.2       0.0       1.1       4.8

                    306       307       308   
                  23.66990  32.18325  43.98807
                   0.00000   0.00000   0.00000
                  --------  --------  --------
 0 C  s               0.2       0.0       0.0
 1 C  s               2.6       0.0       0.0
 2 C  s               2.8       0.1       0.0
 3 C  s               2.4       0.0       0.0
 4 C  s               0.2       0.0       0.0
 6 O  s               0.0       0.0      99.8
 7 C  s              89.7       0.1       0.0
 7 C  px              0.3       0.1       0.0
 7 C  dx2y2           0.1       0.0       0.0
 8 N  s               0.5      99.5       0.0
 8 N  px              0.3       0.0       0.0


                      *****************************
                      * MAYER POPULATION ANALYSIS *
                      *****************************

  NA   - Mulliken gross atomic population
  ZA   - Total nuclear charge
  QA   - Mulliken gross atomic charge
  VA   - Mayer's total valence
  BVA  - Mayer's bonded valence
  FA   - Mayer's free valence

  ATOM       NA         ZA         QA         VA         BVA        FA
  0 C      6.0634     6.0000    -0.0634     3.9129     3.9129    -0.0000
  1 C      6.2520     6.0000    -0.2520     4.0182     4.0182     0.0000
  2 C      5.6964     6.0000     0.3036     3.6646     3.6646    -0.0000
  3 C      6.3046     6.0000    -0.3046     3.9264     3.9264    -0.0000
  4 C      5.7186     6.0000     0.2814     4.0111     4.0111     0.0000
  5 C      6.1997     6.0000    -0.1997     3.9812     3.9812     0.0000
  6 O      8.3790     8.0000    -0.3790     2.1139     2.1139     0.0000
  7 C      6.2662     6.0000    -0.2662     4.0510     4.0510     0.0000
  8 N      6.9908     7.0000     0.0092     3.2112     3.2112     0.0000
  9 H      0.8688     1.0000     0.1312     0.9689     0.9689    -0.0000
 10 H      0.8557     1.0000     0.1443     0.9753     0.9753    -0.0000
 11 H      0.8597     1.0000     0.1403     0.9798     0.9798     0.0000
 12 H      0.8641     1.0000     0.1359     0.9826     0.9826     0.0000
 13 H      0.6811     1.0000     0.3189     0.9134     0.9134    -0.0000

  Mayer bond orders larger than 0.100000
B(  0-C ,  1-C ) :   1.4305 B(  0-C ,  5-C ) :   1.4446 B(  0-C ,  9-H ) :   0.9724 
B(  1-C ,  2-C ) :   1.3812 B(  1-C , 10-H ) :   0.9668 B(  2-C ,  3-C ) :   1.3715 
B(  2-C ,  7-C ) :   0.8777 B(  3-C ,  4-C ) :   1.3838 B(  3-C , 11-H ) :   0.9405 
B(  4-C ,  5-C ) :   1.3851 B(  4-C ,  6-O ) :   1.1744 B(  5-C , 12-H ) :   0.9675 
B(  6-O , 13-H ) :   0.8858 B(  7-C ,  8-N ) :   3.1291 

-------
TIMINGS
-------

Total SCF time: 0 days 0 hours 1 min 29 sec 

Total time                  ....      89.237 sec
Sum of individual times     ....      87.559 sec  ( 98.1%)

SCF preparation             ....       0.053 sec  (  0.1%)
Fock matrix formation       ....      87.044 sec  ( 97.5%)
  Startup                   ....       0.004 sec  (  0.0% of F)
  Split-RI-J                ....       3.411 sec  (  3.9% of F)
  Chain of spheres X        ....      77.383 sec  ( 88.9% of F)
  XC integration            ....       7.872 sec  (  9.0% of F)
    XC Preparation          ....       0.000 sec  (  0.0% of XC)
    Basis function eval.    ....       1.881 sec  ( 23.9% of XC)
    Density eval.           ....       1.721 sec  ( 21.9% of XC)
    XC-Functional eval.     ....       1.935 sec  ( 24.6% of XC)
    XC-Potential eval.      ....       2.239 sec  ( 28.4% of XC)
Diagonalization             ....       0.000 sec  (  0.0%)
Density matrix formation    ....       0.016 sec  (  0.0%)
Total Energy calculation    ....       0.004 sec  (  0.0%)
Population analysis         ....       0.176 sec  (  0.2%)
Orbital Transformation      ....       0.025 sec  (  0.0%)
Orbital Orthonormalization  ....       0.000 sec  (  0.0%)
DIIS solution               ....       0.084 sec  (  0.1%)
  MO trafo                  ....       0.000 sec  (  0.0 % of DIIS)
  Orb grad                  ....       0.000 sec  (  0.0 % of DIIS)
  Energy W gradient         ....       0.000 sec  (  0.0 % of DIIS)
  DIIS error                ....       0.012 sec  ( 13.9 % of DIIS)
  DIIS work                 ....       0.059 sec  ( 70.3 % of DIIS)
  Form Q                    ....       0.000 sec  (  0.0 % of DIIS)
  Form QpQm                 ....       0.000 sec  (  0.0 % of DIIS)
  Exp/Cayley                ....       0.000 sec  (  0.0 % of DIIS)
  Orb update                ....       0.000 sec  (  0.0 % of DIIS)
  Wake-sleep                ....       0.001 sec  (  0.7 % of DIIS)
SOSCF solution              ....       0.049 sec  (  0.1%)
  MO trafo                  ....       0.026 sec  ( 53.5 % of SOSCF)
  Orb grad                  ....       0.000 sec  (  0.7 % of SOSCF)
  Rot update                ....       0.001 sec  (  2.6 % of SOSCF)
  Step                      ....       0.021 sec  ( 43.1 % of SOSCF)
Grid generation             ....       0.107 sec  (  0.1%)
Finished LeanSCF after  89.2 sec

Maximum memory used throughout the entire LEANSCF-calculation: 40.8 MB
------------------   -----------------
gCP correction             0.006505201
------------------   -----------------

-------------------------   --------------------
FINAL SINGLE POINT ENERGY      -399.735583064294
-------------------------   --------------------


------------------------------------------------------------------------------
                              ORCA PROPERTY CALCULATIONS
------------------------------------------------------------------------------

GBWName                                 ... sp.gbw
Number of atoms                         ...     14
Number of basis functions               ...    309
Max core memory                         ...   1024 MB

Electric properties:
Dipole moment                           ... YES
Quadrupole moment                       ...  NO
Static polarizability (Dipole/Dipole)   ...  NO
Static polarizability (Dipole/Quad.)    ...  NO
Static polarizability (Quad./Quad.)     ...  NO
Static polarizability (Velocity)        ...  NO

Atomic electric properties:
Dipole moment                           ...  NO
Quadrupole moment                       ...  NO
Static polarizability                   ...  NO

Choice of electric origin               ... Center of mass
Position of electric origin             ...     0.003828     0.001570    -0.000048

General magnetic properties:
Magnetizability                         ...  NO

EPR properties:
g-Tensor (aka g-matrix)                 ...  NO
Zero-Field splitting spin-orbit         ...  NO
Zero-field splitting spin-spin          ...  NO
Hyperfine couplings                     ...  NO (   0 nuclei)
Quadrupole couplings                    ...  NO (   0 nuclei)
Contact density                         ...  NO (   0 nuclei)

NMR properties:
Chemical shifts                         ...  NO (   0 nuclei)
Spin-rotation constants                 ...  NO (   0 nuclei)
Spin-spin couplings                     ...  NO (   0 nuclei,    0 pairs)

Choice of magnetic origin               ... GIAO
Position of magnetic origin             ...     0.000000     0.000000     0.000000

Properties with geometric perturbations:
SCF Hessian                             ...  NO
IR spectrum                             ...  NO
VCD spectrum                            ...  NO
X-ray spectroscopy properties:
SCF XES/XAS/RIXS spectra                ...  NO


-------------
DIPOLE MOMENT
-------------

Method             : SCF
Type of density    : Electron Density
Multiplicity       :   1
Irrep              :   0
Energy             :  -399.7420882652942851 Eh
Relativity type    : 
Basis              : AO
                                X                 Y                 Z
Electronic contribution:      2.709411163       1.698793863       0.000519808
Nuclear contribution   :     -4.132183759      -1.838602612      -0.000045385
                        -----------------------------------------
Total Dipole Moment    :     -1.422772596      -0.139808749       0.000474423
                        -----------------------------------------
Magnitude (a.u.)       :      1.429625326
Magnitude (Debye)      :      3.633818793



--------------------
Rotational spectrum 
--------------------
 
Rotational constants in cm-1:             0.114034             0.040382             0.029822 
Rotational constants in MHz :          3418.649839          1210.635664           894.034202 

Dipole components along the rotational axes: 
x,y,z [a.u.] :    -1.423007    -0.137407     0.000461 
x,y,z [Debye]:    -3.616995    -0.349260     0.001171 

 

Dipole moment calculation done in   0.0 sec 

Maximum memory used throughout the entire PROP-calculation: 26.5 MB

--------------------------------
SUGGESTED CITATIONS FOR THIS RUN
--------------------------------

Below you find a list of papers that are relevant to this ORCA run
We neither can nor want to force you to cite these papers, but we appreciate if you do
You receive ORCA, which is the product of decades of hard work by many enthusiastic individuals, for free
The only thing we kindly ask in return is that you cite our papers,
We deeply appreciate it, if you show your appreciation for ORCA by not just citing the generic ORCA reference.

Please note that relegating all ORCA citations to the supporting information does *not* help us.
SI sections are not indexed - citations you put there will not count into any citation statistics
But we need these citations in order to attract the funding resources that allow us to do what we are doing

Therefore, if you are a happy ORCA user, please consider citing a few of the papers listed below in the main body of your paper

In addition to the list printed below, the program has created the file sp.bibtex that contains the list in bibtex format
You can import this file easily into all common literature databanks and citation aid programs


List of essential papers. We consider these as the minimum necessary citations

  1. Neese,F.
     Software update: the ORCA program system, version 5.0
     WIRES Comput. Molec. Sci., 2022 12(1)e1606
     doi.org/10.1002/wcms.1606

List of papers to cite with high priority. The work reported in these papers was absolutely
necessary for this run to complete.
Our perspective: the developers of density functionals and basis sets usually get cited in chemistry papers
Good! But without the algorithms to do something with them, the functionals or basis sets would not do anything.
Hence, in our opinion, the algorithm design and method developments papers are equally worthy of getting cited

  1. Neese,F.
     An improvement of the resolution of the identity approximation for the formation of the Coulomb matrix
     J. Comp. Chem., 2003 24(14)1740-1747
     doi.org/10.1002/jcc.10318
  2. Neese,F.; Wennmohs,F.; Hansen,A.; Becker,U.
     Efficient, approximate and parallel Hartree-Fock and hybrid DFT calculations. A 'chain-of-spheres' algorithm for the Hartree-Fock exchange
     Chem. Phys., 2009 356(1-3)98-109
     doi.org/10.1016/j.chemphys.2008.10.036
  3. Helmich-Paris,B.; de Souza,B.; Neese,F.; Izsák,R.
     An improved chain of spheres for exchange algorithm
     J. Chem. Phys., 2021 155 104109
     doi.org/doi: 10.1063/5.0058766.
  4. Neese,F.
     The SHARK Integral Generation and Digestion System
     J. Comp. Chem., 2022  1-16
     doi.org/10.1002/jcc.26942

List of suggested additional citations. These are papers that are important in the 'surrounding' of 
of this run, or papers that preceded the highly important papers. If you like your results we are grateful for a citation.

  1. Izsak,R.; Neese,F.
     An overlap fitted chain of spheres exchange method
     J. Chem. Phys., 2011 135 144105
     doi.org/10.1063/1.3646921
  2. Izsak,R.; Hansen,A.; Neese,F.
     The resolution of identity and chain of spheres approximations for the LPNO-CCSD singles Fock term
     Molec. Phys., 2012 110 2413-2417
     doi.org/10.1080/00268976.2012.687466
  3. Neese,F.
     The ORCA program system
     WIRES Comput. Molec. Sci., 2012 2(1)73-78
     doi.org/10.1002/wcms.81
  4. Izsak,R.; Neese,F.; Klopper,W.
     Robust fitting techniques in the chain of spheres approximation to the Fock exchange: The role of the complementary space
     J. Chem. Phys., 2013 139 
     doi.org/10.1063/1.4819264
  5. Neese,F.
     Software update: the ORCA program system, version 4.0
     WIRES Comput. Molec. Sci., 2018 8(1)1-6
     doi.org/10.1002/wcms.1327
  6. Neese,F.; Wennmohs,F.; Becker,U.; Riplinger,C.
     The ORCA quantum chemistry program package
     J. Chem. Phys., 2020 152 Art. No. L224108
     doi.org/10.1063/5.0004608

List of optional additional citations

  1. Neese,F.
     Approximate second-order SCF convergence for spin unrestricted wavefunctions
     Chem. Phys. Lett., 2000 325(1-3)93-98
     doi.org/10.1016/s0009-2614(00)00662-x

Timings for individual modules:

Sum of individual times          ...       90.500 sec (=   1.508 min)
Startup calculation              ...        1.121 sec (=   0.019 min)   1.2 %
SCF iterations                   ...       89.336 sec (=   1.489 min)  98.7 %
Property calculations            ...        0.043 sec (=   0.001 min)   0.0 %
                             ****ORCA TERMINATED NORMALLY****
TOTAL RUN TIME: 0 days 0 hours 1 minutes 30 seconds 549 msec
