13
 energy: -2880.940339161456 gnorm: 0.017035519162 xtb: 6.7.1 (41059b4)
C           -1.93174133885601       -1.20058743883201        0.00002148090001
C           -0.54903340424329       -1.20405262623355       -0.00010227430005
C            0.13099946415805        0.00025454480011       -0.00021856290010
C           -0.55006631744375        1.20670197773472       -0.00011355410005
C           -1.92975922725513        1.20628051153453        0.00002681120001
C           -2.63092206756583        0.00206785770092        0.00005394540002
O           -3.98569183016617        0.05148650792282        0.00006427660003
Br           2.03707694740268       -0.00121437590054        0.00003849970002
H           -2.47000076439452       -2.13879198444776        0.00004385820002
H           -0.00681528540302       -2.13689711844692       -0.00013743860006
H           -0.00569297420252        2.13815087054747       -0.00011745070005
H           -2.48455746600097        2.13040622624404        0.00005737190003
H           -4.35288399522888       -0.84098285967266        0.00003939040002
13
 energy: -2880.940731279863 gnorm: 0.006842803807 xtb: 6.7.1 (41059b4)
C           -1.93310109225124       -1.20577984719078       -0.00002313255909
C           -0.54429283953958       -1.20858507268013       -0.00006672404467
C            0.13731303846288       -0.00052523692972       -0.00004976042193
C           -0.54909010739677        1.20783018159304       -0.00005269088144
C           -1.93532089941411        1.20727217032456       -0.00001324299620
C           -2.63342143778684       -0.00004076693924        0.00000825464828
O           -3.99313621751934        0.05811831114129        0.00006044083992
Br           2.04907042653742        0.00114621973107       -0.00014406024116
H           -2.47226487997394       -2.14855767203975        0.00001209089579
H           -0.00045871690103       -2.14460773423806       -0.00008163078130
H           -0.00495975772634        2.14378608861495       -0.00007043606609
H           -2.49171940636981        2.13669265988324        0.00002367408879
H           -4.35770637835620       -0.83392726801929        0.00005355485519
13
 energy: -2880.940771524514 gnorm: 0.002155864177 xtb: 6.7.1 (41059b4)
C           -1.93380000267860       -1.20839205462400       -0.00001114277721
C           -0.54269719362237       -1.21031368344921       -0.00005503044094
C            0.13848141369729       -0.00067911340576       -0.00008627577404
C           -0.54862484020870        1.20839089731801       -0.00004812954162
C           -1.93701647370300        1.20725142320400       -0.00000265179184
C           -2.63322013042020       -0.00128305353644        0.00001267772414
O           -3.99625835438538        0.06191121440686        0.00006115012499
Br           2.05173754903245        0.00283058563643       -0.00013063053729
H           -2.47211242739625       -2.15312202706877        0.00000044151964
H            0.00156898866716       -2.14737032701323       -0.00008479455478
H           -0.00500046824472        2.14592670617290       -0.00006856602872
H           -2.49318026899805        2.13843637509445        0.00001300133002
H           -4.35896604720601       -0.83076492927089        0.00005628372325
13
 energy: -2880.940774380550 gnorm: 0.000874808270 xtb: 6.7.1 (41059b4)
C           -1.93404422329144       -1.20872786112076       -0.00001526249716
C           -0.54269178383431       -1.21025629055102       -0.00005975613334
C            0.13819871546408       -0.00059830699486       -0.00007335062837
C           -0.54856701575156        1.20851463569374       -0.00005055679867
C           -1.93705957249618        1.20706743838625       -0.00000754293302
C           -2.63278992471100       -0.00151851844941        0.00001332865409
O           -3.99686119510301        0.06273379575554        0.00005955785029
Br           2.05152616665062        0.00282113325451       -0.00014154313464
H           -2.47159127182240       -2.15378548049410        0.00000023878440
H            0.00147355425965       -2.14733673350805       -0.00007726337999
H           -0.00518822142845        2.14613632021449       -0.00006241194165
H           -2.49294521080459        2.13826254557978        0.00001368928451
H           -4.35854826953399       -0.83049066439215        0.00005720610936
13
 energy: -2880.940774380550 gnorm: 0.000874808270 xtb: 6.7.1 (41059b4)
C           -1.93404422329144       -1.20872786112076       -0.00001526249716
C           -0.54269178383431       -1.21025629055102       -0.00005975613334
C            0.13819871546408       -0.00059830699486       -0.00007335062837
C           -0.54856701575156        1.20851463569374       -0.00005055679867
C           -1.93705957249618        1.20706743838625       -0.00000754293302
C           -2.63278992471100       -0.00151851844941        0.00001332865409
O           -3.99686119510301        0.06273379575554        0.00005955785029
Br           2.05152616665062        0.00282113325451       -0.00014154313464
H           -2.47159127182240       -2.15378548049410        0.00000023878440
H            0.00147355425965       -2.14733673350805       -0.00007726337999
H           -0.00518822142845        2.14613632021449       -0.00006241194165
H           -2.49294521080459        2.13826254557978        0.00001368928451
H           -4.35854826953399       -0.83049066439215        0.00005720610936
