14
 energy: -307.632127097658 gnorm: 0.028655537866 xtb: 6.7.1 (41059b4)
C           -2.15405767195452        0.46587130430644       -0.69379161920744
C           -1.33790306829286        0.38300843856972        0.59769587446485
C           -0.00086296590038       -0.25396460031254        0.30068910763324
O            0.23554305450438       -1.43176090443445        0.34174709355144
O            0.90309129060018        0.66910648479650       -0.05284550872342
C            2.19102200877090        0.18461305998181       -0.40601698047992
H           -3.12984883768692        0.89988466209876       -0.49091070021754
H           -1.64237462642778        1.08631201638137       -1.42576838883180
H           -2.29490846061693       -0.52714693363359       -1.11401041089365
H           -1.86096806032464       -0.23428288190382        1.32807744148851
H           -1.17595697042110        1.38174889211229        1.00215281654408
H            2.62743669786429       -0.37118346236448        0.42627368728889
H            2.79261643393748        1.05901905006928       -0.63994244888358
H            2.12271187594063       -0.47750455291159       -1.27155802316346
14
 energy: -307.632827530914 gnorm: 0.010933846717 xtb: 6.7.1 (41059b4)
C           -2.15793590506998        0.46745550072281       -0.69733170876178
C           -1.33908719224805        0.38428735387696        0.59820860727296
C            0.00150762414986       -0.25000628841165        0.31953834306657
O            0.23677636933205       -1.43596971391011        0.34522426956642
O            0.90595389132145        0.68175913611684       -0.04450212766341
C            2.19683124655546        0.18047781805246       -0.40800243589021
H           -3.14029528953541        0.90026145649682       -0.49835540263625
H           -1.65069052525375        1.09226200017081       -1.43577849967113
H           -2.30021306026802       -0.52807253188235       -1.12349254640354
H           -1.85408165004970       -0.23993535277361        1.33103195294160
H           -1.18849265757785        1.38337084254619        1.01396941377732
H            2.64056448880531       -0.37563917297110        0.42241599200290
H            2.79964207775212        1.05601124550820       -0.64628860749344
H            2.12506133441672       -0.48254162534304       -1.27484546307738
14
 energy: -307.632956697290 gnorm: 0.005245163060 xtb: 6.7.1 (41059b4)
C           -2.16209964834556        0.46650329361890       -0.69770678838679
C           -1.34010645224995        0.38515207482442        0.59799349055055
C           -0.00127539263679       -0.24601375648678        0.31099000365166
O            0.23904115990289       -1.43224401846223        0.34782719770232
O            0.91008554126293        0.69203737117398       -0.04340368221162
C            2.20477037900786        0.17717950703931       -0.40682563895069
H           -3.14689567820885        0.89818697877455       -0.49669924341745
H           -1.65888144975292        1.09469560697340       -1.43933353574582
H           -2.30502206164748       -0.52982836103393       -1.12718162025749
H           -1.84940129518657       -0.24292625084500        1.33339194905725
H           -1.19663440385122        1.38473436571569        1.01893068981247
H            2.64522563466681       -0.38086076851176        0.42442145288461
H            2.81070903692899        1.05177823122641       -0.64595032399673
H            2.12602516645754       -0.48467380404918       -1.27466206619676
14
 energy: -307.632982745802 gnorm: 0.001715698080 xtb: 6.7.1 (41059b4)
C           -2.16378277552412        0.46647342217441       -0.69782081461447
C           -1.34023983376365        0.38467080594969        0.59648322960367
C            0.00083078875944       -0.24310783357180        0.31448217975742
O            0.24076671303661       -1.42829466921848        0.34658704318330
O            0.91304892847565        0.69581837543435       -0.04132252932635
C            2.20768475491217        0.17593377125853       -0.40721214046512
H           -3.14875731072931        0.89667130567806       -0.49557071918664
H           -1.66161745201469        1.09579707345140       -1.43867806467066
H           -2.30556236870711       -0.52953521025632       -1.12752203269908
H           -1.85000369463858       -0.24528586971104        1.32989234365500
H           -1.19990518047075        1.38383990754084        1.01895447512977
H            2.64541705483297       -0.38158212764335        0.42527544790304
H            2.81497965769042        1.04880694569612       -0.64828706084442
H            2.12268128016759       -0.48648534734570       -1.27346944975486
14
 energy: -307.632987299077 gnorm: 0.000983948708 xtb: 6.7.1 (41059b4)
C           -2.16467032417283        0.46640194216997       -0.69773842355734
C           -1.34001734881961        0.38491864637493        0.59526152109925
C            0.00139325805358       -0.24138994229190        0.31260657018320
O            0.24212440454138       -1.42549379312964        0.34406367980308
O            0.91438585897803        0.69792922241360       -0.04103531083462
C            2.20914549219325        0.17525238681169       -0.40646931959486
H           -3.14916807589224        0.89455377644654       -0.49252274649394
H           -1.66499096014194        1.09675739333441       -1.43833045974568
H           -2.30554250019634       -0.52904584214075       -1.12722103452648
H           -1.84869421265596       -0.24655630889816        1.32774020315279
H           -1.20080682435932        1.38367325247356        1.01775675156354
H            2.64410668583537       -0.38138452371094        0.42742586844854
H            2.81754509485775        1.04632615533378       -0.64897281109717
H            2.12072996178951       -0.48822186703499       -1.27077241788286
14
 energy: -307.632987299077 gnorm: 0.000983948708 xtb: 6.7.1 (41059b4)
C           -2.16467032417283        0.46640194216997       -0.69773842355734
C           -1.34001734881961        0.38491864637493        0.59526152109925
C            0.00139325805358       -0.24138994229190        0.31260657018320
O            0.24212440454138       -1.42549379312964        0.34406367980308
O            0.91438585897803        0.69792922241360       -0.04103531083462
C            2.20914549219325        0.17525238681169       -0.40646931959486
H           -3.14916807589224        0.89455377644654       -0.49252274649394
H           -1.66499096014194        1.09675739333441       -1.43833045974568
H           -2.30554250019634       -0.52904584214075       -1.12722103452648
H           -1.84869421265596       -0.24655630889816        1.32774020315279
H           -1.20080682435932        1.38367325247356        1.01775675156354
H            2.64410668583537       -0.38138452371094        0.42742586844854
H            2.81754509485775        1.04632615533378       -0.64897281109717
H            2.12072996178951       -0.48822186703499       -1.27077241788286
