14
 energy: -20.782656922541 gnorm: 0.027232115824 xtb: 6.7.1 (41059b4)
C           -2.46806967870176        0.17974822525020       -0.46999031252180
C           -1.23564691863020        0.65149315314708        0.28852919538836
C            0.03763470586318        0.03229608360808       -0.23593504441120
O            0.10745037411881       -0.82142326928225       -1.08853681940046
O            1.12041915385949        0.55959916533837        0.38641273440490
C            2.38762717209772        0.01973280898008       -0.04394551972347
H           -2.39741541833336        0.44287836571605       -1.52838030139532
H           -2.57054022968155       -0.90615325785983       -0.40886550334989
H           -3.36926603365934        0.64030367833943       -0.05656256695554
H           -1.30340024300801        0.40499855829554        1.35565923576710
H           -1.12381619440568        1.74104509567995        0.24614353923053
H            2.43433497483264       -1.05363028358632        0.15918201979043
H            3.14303838244425        0.55399220232306        0.53226543461948
H            2.52871223012127        0.18616676016197       -1.11520519327675
14
 energy: -20.783333506628 gnorm: 0.009708778091 xtb: 6.7.1 (41059b4)
C           -2.46175181985817        0.18135267169339       -0.46760713706078
C           -1.23176624297855        0.65255766249693        0.29030561577855
C            0.03683129848228        0.02898047108661       -0.23943256489294
O            0.10471637023550       -0.81883373541561       -1.08760489334656
O            1.11759918645684        0.54930052348460        0.37555134446471
C            2.38037062318877        0.02199511487494       -0.04244854571083
H           -2.38489237038535        0.44668757779429       -1.52030373394205
H           -2.55620198267429       -0.90062464802504       -0.40218852126047
H           -3.35949023378985        0.63856247578091       -0.05555274718383
H           -1.30554130874164        0.39647051802757        1.35201262255740
H           -1.12330976715991        1.73939637614545        0.23557100659453
H            2.42341062528338       -1.04905902130712        0.16079865483084
H            3.13258230461275        0.55574023394290        0.53339833865860
H            2.51850559424571        0.18852106553161       -1.11172854132082
14
 energy: -20.783425547216 gnorm: 0.003269372285 xtb: 6.7.1 (41059b4)
C           -2.45911584981446        0.18167106969732       -0.46694340443105
C           -1.22981663759068        0.65509460080076        0.29331030159921
C            0.03600464985815        0.02753898066465       -0.24096201916539
O            0.10182441520857       -0.81918901880412       -1.08884729004105
O            1.11505565833897        0.54435402915115        0.37028424032055
C            2.37415231242110        0.02347774692795       -0.04144501788756
H           -2.37955860071538        0.44803210307538       -1.51737046525952
H           -2.54905755663727       -0.89905776376581       -0.40083518148917
H           -3.35623090556619        0.63630853234145       -0.05572760313326
H           -1.30464006356155        0.39509956517373        1.35209584346198
H           -1.12090998242700        1.73989295214753        0.23265793592663
H            2.42138153113800       -1.04750535481066        0.16060343865940
H            3.12508841682740        0.55689414817727        0.53424575646008
H            2.51688488943780        0.18843569533482       -1.11029563685450
14
 energy: -20.783433897434 gnorm: 0.001061612289 xtb: 6.7.1 (41059b4)
C           -2.45977820355284        0.18192833390840       -0.46671496501247
C           -1.22977049990489        0.65573902522926        0.29382017407080
C            0.03593143958896        0.02709068569209       -0.24118129961803
O            0.10037331530420       -0.81999985679925       -1.08961903005782
O            1.11471958301248        0.54320827598292        0.36925325336186
C            2.37297430630979        0.02399141760028       -0.04090231361441
H           -2.37956333078286        0.44897907848643       -1.51693117129546
H           -2.54782517990261       -0.89902286405117       -0.40110672171013
H           -3.35737656521230        0.63550893205429       -0.05522941976109
H           -1.30440451503896        0.39577033527144        1.35217054866980
H           -1.12022037192435        1.74000306860083        0.23202983343411
H            2.42319333187589       -1.04761763319892        0.16027921641850
H            3.12402781165702        0.55749420033801        0.53499375049869
H            2.51878115548793        0.18797428699682       -1.11009095721798
14
 energy: -20.783435232442 gnorm: 0.000606840373 xtb: 6.7.1 (41059b4)
C           -2.46055495390245        0.18196241511339       -0.46663442140294
C           -1.22995532950341        0.65607636810740        0.29360380962570
C            0.03599354605303        0.02682664533545       -0.24143061582520
O            0.09885810983237       -0.82086108125265       -1.09005686431685
O            1.11482996533172        0.54254193679494        0.36876225364782
C            2.37281814840689        0.02421645625585       -0.04036962200974
H           -2.38136387440603        0.45030301912303       -1.51682163872191
H           -2.54750200065260       -0.89935298195392       -0.40223418240895
H           -3.35831155204124        0.63444456813003       -0.05375143951019
H           -1.30423334099759        0.39706319113070        1.35216992540160
H           -1.11992516937983        1.74022467798304        0.23123293219019
H            2.42528846579927       -1.04798175694245        0.16020068663861
H            3.12402428088858        0.55788818299364        0.53597190351427
H            2.52109598148877        0.18769564529297       -1.10987182865606
14
 energy: -20.783435584754 gnorm: 0.000115244419 xtb: 6.7.1 (41059b4)
C           -2.46045495093531        0.18194660752121       -0.46659890342556
C           -1.22990160055140        0.65602926949534        0.29324779857232
C            0.03605525774809        0.02668865058957       -0.24144729250884
O            0.09899787729205       -0.82091483196303       -1.08992085019467
O            1.11489266872643        0.54259008821199        0.36882354773245
C            2.37305210964192        0.02408967798897       -0.04036549321131
H           -2.38203003960133        0.45077175952130       -1.51668940687185
H           -2.54727106844013       -0.89937281590534       -0.40267180616516
H           -3.35811421462796        0.63400419233962       -0.05309077910358
H           -1.30423209231879        0.39732434419966        1.35198389712357
H           -1.12000402333072        1.74028063761092        0.23078339442918
H            2.42500789120837       -1.04796131577650        0.16039091739994
H            3.12410957428980        0.55775666040430        0.53606992228365
H            2.52095488781645        0.18781436187340       -1.10974404789378
14
 energy: -20.783435775064 gnorm: 0.000134225533 xtb: 6.7.1 (41059b4)
C           -2.46044727448245        0.18189247328377       -0.46647970586696
C           -1.22981127537587        0.65623257655962        0.29283604360034
C            0.03609350231631        0.02671795258177       -0.24175418215935
O            0.09897172421605       -0.82115206798672       -1.08985948950807
O            1.11485389348794        0.54259238165975        0.36866878824929
C            2.37311849530206        0.02391862259601       -0.04019328463111
H           -2.38321924651956        0.45183126153817       -1.51635199464684
H           -2.54637609068386       -0.89953772154624       -0.40357079570953
H           -3.35813236336548        0.63278595986303       -0.05178954126242
H           -1.30396538602410        0.39804988496388        1.35175062899361
H           -1.11995738618767        1.74048844753132        0.22986730922840
H            2.42475435510410       -1.04806341622932        0.16061134436962
H            3.12399193662198        0.55750146222206        0.53648823917112
H            2.52118739250799        0.18778946907433       -1.10945246166175
14
 energy: -20.783435960188 gnorm: 0.000206742551 xtb: 6.7.1 (41059b4)
C           -2.46053389570140        0.18183880626692       -0.46634473628772
C           -1.22971991886792        0.65663303896221        0.29231373044680
C            0.03610098035670        0.02654229594404       -0.24184711230340
O            0.09894314980586       -0.82137731842055       -1.08987379081773
O            1.11480236105451        0.54260932079953        0.36848155394201
C            2.37317069827997        0.02371105193579       -0.03996394537284
H           -2.38494460951505        0.45345502666914       -1.51590286558369
H           -2.54490340124985       -0.89980202217492       -0.40495392358811
H           -3.35837039798801        0.63086638337845       -0.04995042371590
H           -1.30365655898207        0.39920360143914        1.35143340408577
H           -1.11978678394788        1.74084398863767        0.22857922133526
H            2.42447150096375       -1.04824015755748        0.16092475585520
H            3.12387329207819        0.55718657199014        0.53701527621925
H            2.52161586063067        0.18757669824136       -1.10914024604854
14
 energy: -20.783436081033 gnorm: 0.000121498180 xtb: 6.7.1 (41059b4)
C           -2.46063373028874        0.18168982865202       -0.46619810745691
C           -1.22967747990125        0.65706100247894        0.29197344215084
C            0.03612496175266        0.02694675431539       -0.24224747157622
O            0.09896273868575       -0.82135914372444       -1.08993152634699
O            1.11481156708060        0.54281367348236        0.36825702000957
C            2.37315202640840        0.02345975230663       -0.03972254958323
H           -2.38627314561573        0.45464165360258       -1.51550653857959
H           -2.54356105034299       -0.90014081249970       -0.40599687990125
H           -3.35865977636634        0.62913232855675       -0.04849985063662
H           -1.30330201084228        0.40018269431070        1.35123559369362
H           -1.11984786612316        1.74121682290575        0.22760008463221
H            2.42405348337983       -1.04853903306716        0.16115501120340
H            3.12383753098019        0.55669661702704        0.53752296289683
H            2.52207502811054        0.18724514776457       -1.10887029233931
14
 energy: -20.783436125208 gnorm: 0.000029421679 xtb: 6.7.1 (41059b4)
C           -2.46064597933663        0.18157093052111       -0.46614112563304
C           -1.22965497693659        0.65743495338566        0.29177609947543
C            0.03612514281657        0.02714318880035       -0.24228805449659
O            0.09896248479316       -0.82125949582794       -1.08991418475923
O            1.11485993310964        0.54296530051997        0.36815102219485
C            2.37307774952638        0.02330148019012       -0.03959841337826
H           -2.38709335953677        0.45540923439715       -1.51527051593516
H           -2.54251550365053       -0.90038150466338       -0.40672179084479
H           -3.35882761465496        0.62787076340143       -0.04758202308499
H           -1.30313984689117        0.40089410256850        1.35110465268283
H           -1.11996841773238        1.74156563579162        0.22697658916068
H            2.42369226590621       -1.04875240114171        0.16122231973121
H            3.12384728927537        0.55627417791416        0.53779425318739
H            2.52234311022916        0.18701092025437       -1.10873793013397
