
                                 *****************
                                 * O   R   C   A *
                                 *****************

                                            #,                                       
                                            ###                                      
                                            ####                                     
                                            #####                                    
                                            ######                                   
                                           ########,                                 
                                     ,,################,,,,,                         
                               ,,#################################,,                 
                          ,,##########################################,,             
                       ,#########################################, ''#####,          
                    ,#############################################,,   '####,        
                  ,##################################################,,,,####,       
                ,###########''''           ''''###############################       
              ,#####''   ,,,,##########,,,,          '''####'''          '####       
            ,##' ,,,,###########################,,,                        '##       
           ' ,,###''''                  '''############,,,                           
         ,,##''                                '''############,,,,        ,,,,,,###''
      ,#''                                            '''#######################'''  
     '                                                          ''''####''''         
             ,#######,   #######,   ,#######,      ##                                
            ,#'     '#,  ##    ##  ,#'     '#,    #''#        ,####,   ,####,        
            ##       ##  ##   ,#'  ##            #'  '#       #'       #'  '#        
            ##       ##  #######   ##           ,######,      #####,   #    #        
            '#,     ,#'  ##    ##  '#,     ,#' ,#      #,     #,   #   #,  ,#        
             '#######'   ##     ##  '#######'  #'      '#     '####' # '####'        



                #########################################################
                #                        -***-                          #
                #          Department of theory and spectroscopy        #
                #                                                       #
                #                      Frank Neese                      #
                #                                                       #
                #     Directorship, Architecture, Infrastructure        #
                #                    SHARK, DRIVERS                     #
                #        Core code/Algorithms in most modules           #
                #                                                       #
                #        Max Planck Institute fuer Kohlenforschung      #
                #                Kaiser Wilhelm Platz 1                 #
                #                 D-45470 Muelheim/Ruhr                 #
                #                      Germany                          #
                #                                                       #
                #                  All rights reserved                  #
                #                        -***-                          #
                #########################################################


                         Program Version 6.0.1  -  RELEASE   -


 With contributions from (in alphabetic order):
[Max-Planck-Institut fuer Kohlenforschung]                               
  Daniel Aravena         : Magnetic Suceptibility                        
  Michael Atanasov       : Ab Initio Ligand Field Theory (pilot matlab implementation)
  Alexander A. Auer      : GIAO ZORA, VPT2 properties, NMR spectrum      
  Ute Becker             : All parallelization in ORCA, NUMFREQ, NUMCALC 
  Giovanni Bistoni       : ED, misc. LED, open-shell LED, HFLD           
  Martin Brehm           : Molecular dynamics                            
  Dmytro Bykov           : pre 5.0 version of the SCF Hessian            
  Marcos Casanova-Páez   : Triplet and SCS-CIS(D). UHF-(DLPNO)-IP/EA/STEOM-CCSD. UHF-CVS-IP/STEOM-CCSD   
  Vijay G. Chilkuri      : MRCI spin determinant printing, contributions to CSF-ICE 
  Pauline Colinet        : FMM embedding                                 
  Dipayan Datta          : RHF DLPNO-CCSD density                        
  Achintya Kumar Dutta   : EOM-CC, STEOM-CC                              
  Nicolas Foglia         : Exact transition moments, OPA infrastructure, MCD improvements    
  Dmitry Ganyushin       : Spin-Orbit,Spin-Spin,Magnetic field MRCI      
  Miquel Garcia-Rates    : C-PCM and meta-GGA Hessian, CCSD/C-PCM, Gaussian charge scheme 
  Tiago L. C. Gouveia    : GS-ROHF, GS-ROCIS                             
  Yang Guo               : DLPNO-NEVPT2, F12-NEVPT2, CIM, IAO-localization        
  Andreas Hansen         : Spin unrestricted coupled pair/coupled cluster methods 
  Ingolf Harden          : AUTO-CI MPn and infrastructure                
  Benjamin Helmich-Paris : MC-RPA, TRAH-(SCF,CASSCF), AVAS, COSX integrals, SCF dyn. polar. 
  Lee Huntington         : MR-EOM, pCC                                   
  Robert Izsak           : Overlap fitted RIJCOSX, COSX-SCS-MP3, EOM     
  Riya Kayal             : Wick's Theorem for AUTO-CI, AUTO-CI UHF-CCSDT 
  Emily Kempfer          : AUTO-CI, RHF CISDT and CCSDT                  
  Christian Kollmar      : KDIIS, OOCD, Brueckner-CCSD(T), CCSD density, CASPT2, CASPT2-K, improved NEVPT2 
  Axel Koslowski         : Symmetry handling                             
  Simone Kossmann        : meta-GGA functionals, TD-DFT gradient, OOMP2, (MP2 Hessian; deprecated post 5.0) 
  Lucas Lang             : DCDCAS                                        
  Marvin Lechner         : AUTO-CI (C++ implementation), FIC-MRCC        
  Spencer Leger          : CASSCF response                               
  Dagmar Lenk            : GEPOL surface, SMD, ORCA-2-JSON               
  Dimitrios Liakos       : Extrapolation schemes; Compound Job, initial MDCI parallelization 
  Dimitrios Manganas     : Further ROCIS development; embedding schemes. LFT, Crystal Embedding 
  Dimitrios Pantazis     : SARC Basis sets                               
  Anastasios Papadopoulos: AUTO-CI, single reference methods and gradients 
  Taras Petrenko         : pre 6.0 DFT Hessian and TD-DFT gradient, (ASA, deprecated), ECA, 1-Electron XAS/XES, NRVS 
  Peter Pinski           : DLPNO-MP2, DLPNO-MP2 Gradient                 
  Christoph Reimann      : Effective Core Potentials                     
  Marius Retegan         : Local ZFS, SOC                                
  Christoph Riplinger    : Optimizer, TS searches, QM/MM, DLPNO-CCSD(T), (RO)-DLPNO pert. Triples 
  Michael Roemelt        : Original ROCIS implementation                 
  Masaaki Saitow         : Open-shell DLPNO-CCSD energy and density      
  Barbara Sandhoefer     : DKH picture change effects                    
  Kantharuban Sivalingam : CASSCF convergence/infrastructure, NEVPT2 and variants, FIC-MRCI 
  Bernardo de Souza      : ESD, SOC TD-DFT                               
  Georgi L. Stoychev     : AutoAux, RI-MP2 NMR, DLPNO-MP2 response, X2C  
  Van Anh Tran           : RI-MP2 g-tensors                              
  Willem Van den Heuvel  : Paramagnetic NMR                              
  Zikuan Wang            : NOTCH, Electric field optimization            
  Frank Wennmohs         : Technical directorship and infrastructure     
  Hang Xu                : AUTO-CI-Response properties                   
                                                                         
[FACCTs GmbH]                                                            
  Markus Bursch, Miquel Garcia-Rates, Christoph Riplinger, Bernardo de Souza, Georgi L. Stoychev 
                                                                 
  APM, Basis sets (HGBS, AHGBS, def-TZVP (Ac-Lr), def2-XVPD (La-Lu)), CI-OPT, improved COSX, DLPNO-Multilevel,           
  DOCKER, DRACO, updates on ESD, GOAT, IRC, LR-CPCM, MBIS, meta-GGA TD-DFT gradient, ML-optimized integration grids, 
  MM, NACMEs, nearIR, NEB, NEB-TS, NL-DFT gradient (VV10), 2- and 3-layer-ONIOM, interface openCOSMO-RS, QMMM,   
  Crystal-QMMM, SF, symmetry and pop. for TD-DFT, r2SCAN hybrids, SOLVATOR                                   
                                                                         
[Other institutions]                                                     
  V. Asgeirsson          : NEB                                           
  Christoph Bannwarth    : sTDA-DFT, sTD-DFT, PBEh-3c, B97-3c, D3        
  Sebastian Ehlert       : rSCAN, r2SCAN, r2SCAN-3c, D4, dhf basis sets  
  Marvin Friede          : D4 for Fr, Ra, Ac-Lr                          
  Lars Goerigk           : TD-DFT with DH, B97 family of functionals     
  Stefan Grimme          : VdW corrections, initial TS optimization, DFT functionals, gCP, sTDA/sTD-DF 
  Waldemar Hujo          : DFT-NL                                        
  H. Jonsson             : NEB                                           
  Holger Kruse           : gCP                                           
  Marcel Mueller         : wB97X-3c, vDZP basis set                      
  Hagen Neugebauer       : wr2SCAN                                       
  Tobias Risthaus        : range-separated hybrid DFT                    
  Lukas Wittmann         : regularized MP2, r2SCAN double-hybrids, wr2SCAN        
                                                                         
We gratefully acknowledge several colleagues who have allowed us to      
interface, adapt or use parts of their codes:                            
  Ed Valeev, F. Pavosevic, A. Kumar             : LibInt (2-el integral package), F12 methods 
  Garnet Chan, S. Sharma, J. Yang, R. Olivares  : DMRG                   
  Ulf Ekstrom                                   : XCFun DFT Library      
  Mihaly Kallay                                 : mrcc  (arbitrary order and MRCC methods)
  Frank Weinhold                                : gennbo (NPA and NBO analysis)           
  Simon Mueller                                 : openCOSMO-RS                            
  Christopher J. Cramer and Donald G. Truhlar   : smd solvation model                     
  S Lehtola, MJT Oliveira, MAL Marques          : LibXC Library                           
  Liviu Ungur et al                             : ANISO software                          


 Your calculation uses the libint2 library for the computation of 2-el integrals
 For citations please refer to: http://libint.valeyev.net

 Your ORCA version has been built with support for libXC version: 6.2.2
 For citations please refer to: https://libxc.gitlab.io

 This ORCA versions uses:
   CBLAS   interface :  Fast vector & matrix operations
   LAPACKE interface :  Fast linear algebra routines
   SCALAPACK package :  Parallel linear algebra routines
   Shared memory     :  Shared parallel matrices
   BLAS/LAPACK       :  OpenBLAS 0.3.27  USE64BITINT DYNAMIC_ARCH NO_AFFINITY Zen SINGLE_THREADED
        Core in use  :  Zen
   Copyright (c) 2011-2014, The OpenBLAS Project


Your calculation utilizes the geometrical counterpoise correction gCP
Please cite in your paper:
H.Kruse, S. Grimme J.Chem.Phys., 136, (2012), 154101 
   

Your calculation utilizes the atom-pairwise dispersion correction
based on EEQ partial charges (D4)


================================================================================

----- Orbital basis set information -----
Your calculation utilizes the basis: def2-mTZVPP
   Stefan Grimme, Andreas Hansen, Sebastian Ehlert, and Jan-Michael Mewes 
   J. Chem. Phys. 154, 064103 (2021). DOI: 10.1063/5.0040021

----- AuxJ basis set information -----
Your calculation utilizes the auxiliary basis: def2/J
   F. Weigend, Phys. Chem. Chem. Phys. 8, 1057 (2006).

================================================================================
                                        WARNINGS
                       Please study these warnings very carefully!
================================================================================

WARNING: Old DensityContainer found on disk!
         Will remove this file - 
         If you want to keep old densities, please start your calculation with a different basename. 



WARNING: SCAN, rSCAN, or r2SCAN functional requested.
  ===> : libXC variant has now been activated.



================================================================================
                                       INPUT FILE
================================================================================
NAME = sp.inp
|  1> ! r2scan-3c def2/J RI DEFGRID2 scfconv6 printgap
|  2> %output
|  3>     printlevel normal
|  4> end
|  5> * xyz 0 1
|  6> C -2.2411323445 0.3088565435 0.6414518869
|  7> C -1.2995218132 0.5062848599 -0.5475784911
|  8> C 0.0045885016 -0.2074789999 -0.277353833
|  9> O 0.1631701385 -1.3980982094 -0.3273275443
| 10> O 0.9631705205 0.6663215774 0.053863099
| 11> C 2.2500983476 0.1552658356 0.3778011757
| 12> H -3.2014572564 0.7763339798 0.439439356
| 13> H -2.3980428692 -0.7520365619 0.8202787787
| 14> H -1.8193895496 0.7551208838 1.539114139
| 15> H -1.1019219995 1.5656146717 -0.7073960242
| 16> H -1.7472241943 0.0741848617 -1.4433153697
| 17> H 2.9762707692 0.6032030497 -0.3003987623
| 18> H 2.2542230068 -0.9311138812 0.2715256159
| 19> H 2.4827039169 0.4332053141 1.4060332026
| 20> *
| 21> 
| 22>                          ****END OF INPUT****
================================================================================

                       ****************************
                       * Single Point Calculation *
                       ****************************

---------------------------------
CARTESIAN COORDINATES (ANGSTROEM)
---------------------------------
  C     -2.241132    0.308857    0.641452
  C     -1.299522    0.506285   -0.547578
  C      0.004589   -0.207479   -0.277354
  O      0.163170   -1.398098   -0.327328
  O      0.963171    0.666322    0.053863
  C      2.250098    0.155266    0.377801
  H     -3.201457    0.776334    0.439439
  H     -2.398043   -0.752037    0.820279
  H     -1.819390    0.755121    1.539114
  H     -1.101922    1.565615   -0.707396
  H     -1.747224    0.074185   -1.443315
  H      2.976271    0.603203   -0.300399
  H      2.254223   -0.931114    0.271526
  H      2.482704    0.433205    1.406033

----------------------------
CARTESIAN COORDINATES (A.U.)
----------------------------
  NO LB      ZA    FRAG     MASS         X           Y           Z
   0 C     6.0000    0    12.011   -4.235126    0.583654    1.212168
   1 C     6.0000    0    12.011   -2.455740    0.956740   -1.034773
   2 C     6.0000    0    12.011    0.008671   -0.392078   -0.524123
   3 O     8.0000    0    15.999    0.308347   -2.642023   -0.618559
   4 O     8.0000    0    15.999    1.820129    1.259165    0.101787
   5 C     6.0000    0    12.011    4.252070    0.293410    0.713941
   6 H     1.0000    0     1.008   -6.049877    1.467059    0.830420
   7 H     1.0000    0     1.008   -4.531644   -1.421143    1.550102
   8 H     1.0000    0     1.008   -3.438148    1.426972    2.908504
   9 H     1.0000    0     1.008   -2.082331    2.958583   -1.336785
  10 H     1.0000    0     1.008   -3.301775    0.140189   -2.727471
  11 H     1.0000    0     1.008    5.624337    1.139889   -0.567671
  12 H     1.0000    0     1.008    4.259864   -1.759550    0.513109
  13 H     1.0000    0     1.008    4.691630    0.818639    2.657018

--------------------------------
INTERNAL COORDINATES (ANGSTROEM)
--------------------------------
 C      0   0   0     0.000000000000     0.00000000     0.00000000
 C      1   0   0     1.529510239449     0.00000000     0.00000000
 C      2   1   0     1.511020822679   109.34945499     0.00000000
 O      3   2   1     1.202172870021   125.04693064    74.64210007
 O      3   2   1     1.338697722375   110.72735858   255.86681287
 C      5   3   2     1.422074920996   118.02087914   178.28623906
 H      1   2   3     1.086999610168   110.11464340   182.77440987
 H      1   2   3     1.087241532999   110.03916949   302.73455886
 H      1   2   3     1.087573613747   110.48421805    62.77074313
 H      2   1   3     1.089388351521   110.56262028   239.72269472
 H      2   1   3     1.090638522230   109.54922672   118.54597626
 H      6   5   3     1.089921689651   108.27053337   121.99063055
 H      6   5   3     1.091573358276   109.81017891     1.58405534
 H      6   5   3     1.090237041070   108.43917093   241.16255786

---------------------------
INTERNAL COORDINATES (A.U.)
---------------------------
 C      0   0   0     0.000000000000     0.00000000     0.00000000
 C      1   0   0     2.890355471586     0.00000000     0.00000000
 C      2   1   0     2.855415537516   109.34945499     0.00000000
 O      3   2   1     2.271777489969   125.04693064    74.64210007
 O      3   2   1     2.529772071393   110.72735858   255.86681287
 C      5   3   2     2.687332142601   118.02087914   178.28623906
 H      1   2   3     2.054131570897   110.11464340   182.77440987
 H      1   2   3     2.054588738793   110.03916949   302.73455886
 H      1   2   3     2.055216280461   110.48421805    62.77074313
 H      2   1   3     2.058645637858   110.56262028   239.72269472
 H      2   1   3     2.061008118118   109.54922672   118.54597626
 H      6   5   3     2.059653500861   108.27053337   121.99063055
 H      6   5   3     2.062774702227   109.81017891     1.58405534
 H      6   5   3     2.060249428679   108.43917093   241.16255786

---------------------
BASIS SET INFORMATION
---------------------
There are 3 groups of distinct atoms

 Group   1 Type C   : 11s6p1d contracted to 5s3p1d pattern {62111/411/1}
 Group   2 Type O   : 11s6p2d contracted to 5s3p2d pattern {62111/411/11}
 Group   3 Type H   : 4s1p contracted to 2s1p pattern {31/1}

Atom   0C    basis set group =>   1
Atom   1C    basis set group =>   1
Atom   2C    basis set group =>   1
Atom   3O    basis set group =>   2
Atom   4O    basis set group =>   2
Atom   5C    basis set group =>   1
Atom   6H    basis set group =>   3
Atom   7H    basis set group =>   3
Atom   8H    basis set group =>   3
Atom   9H    basis set group =>   3
Atom  10H    basis set group =>   3
Atom  11H    basis set group =>   3
Atom  12H    basis set group =>   3
Atom  13H    basis set group =>   3
---------------------------------
AUXILIARY/J BASIS SET INFORMATION
---------------------------------
There are 3 groups of distinct atoms

 Group   1 Type C   : 12s5p4d2f1g contracted to 6s4p3d1f1g pattern {711111/2111/211/2/1}
 Group   2 Type O   : 12s5p4d2f1g contracted to 6s4p3d1f1g pattern {711111/2111/211/2/1}
 Group   3 Type H   : 5s2p1d contracted to 3s1p1d pattern {311/2/1}

Atom   0C    basis set group =>   1
Atom   1C    basis set group =>   1
Atom   2C    basis set group =>   1
Atom   3O    basis set group =>   2
Atom   4O    basis set group =>   2
Atom   5C    basis set group =>   1
Atom   6H    basis set group =>   3
Atom   7H    basis set group =>   3
Atom   8H    basis set group =>   3
Atom   9H    basis set group =>   3
Atom  10H    basis set group =>   3
Atom  11H    basis set group =>   3
Atom  12H    basis set group =>   3
Atom  13H    basis set group =>   3

Checking for AutoStart:
The File: sp.gbw exists
Trying to determine its content:
     ... Fine, the file contains calculation information
     ... Fine, the calculation information was read
     ... Fine, the file contains a basis set
     ... Fine, the basis set was read
     ... Fine, the file contains a geometry
     ... Fine, the geometry was read
     ... Fine, the file contains a set of orbitals
     ... Fine, the orbitals can be read
     => possible old guess file was deleted
     => GBW file was renamed to GES file
     => GES file is set as startup file
     => Guess is set to MORead
     ... now leaving AutoStart

------------------------------------------------------------------------------
                             ORCA STARTUP CALCULATIONS
                           -- RI-GTO INTEGRALS CHOSEN --
------------------------------------------------------------------------------
------------------------------------------------------------------------------
                   ___                                                        
                  /   \      - P O W E R E D   B Y -                         
                 /     \                                                     
                 |  |  |   _    _      __       _____    __    __             
                 |  |  |  | |  | |    /  \     |  _  \  |  |  /  |          
                  \  \/   | |  | |   /    \    | | | |  |  | /  /          
                 / \  \   | |__| |  /  /\  \   | |_| |  |  |/  /          
                |  |  |   |  __  | /  /__\  \  |    /   |      \           
                |  |  |   | |  | | |   __   |  |    \   |  |\   \          
                \     /   | |  | | |  |  |  |  | |\  \  |  | \   \       
                 \___/    |_|  |_| |__|  |__|  |_| \__\ |__|  \__/        
                                                                              
                      - O R C A' S   B I G   F R I E N D -                    
                                      &                                       
                       - I N T E G R A L  F E E D E R -                       
                                                                              
 v1 FN, 2020, v2 2021, v3 2022-2024                                           
------------------------------------------------------------------------------


----------------------
SHARK INTEGRAL PACKAGE
----------------------

Number of atoms                             ...     14
Number of basis functions                   ...    164
Number of shells                            ...     80
Maximum angular momentum                    ...      2
Integral batch strategy                     ... SHARK/LIBINT Hybrid
RI-J (if used) integral strategy            ... SPLIT-RIJ (Revised 2003 algorithm where possible)
Printlevel                                  ...      1
Contraction scheme used                     ... SEGMENTED contraction
Prescreening option                         ... SCHWARTZ
   Thresh                                   ... 1.000e-10
   Tcut                                     ... 1.000e-11
   Tpresel                                  ... 1.000e-11 
Coulomb Range Separation                    ... NOT USED
Exchange Range Separation                   ... NOT USED
Multipole approximations                    ... NOT USED
Finite Nucleus Model                        ... NOT USED
CABS basis                                  ... NOT available
Auxiliary Coulomb fitting basis             ... AVAILABLE
   # of basis functions in Aux-J            ...    382
   # of shells in Aux-J                     ...    130
   Maximum angular momentum in Aux-J        ...      4
Auxiliary J/K fitting basis                 ... NOT available
Auxiliary Correlation fitting basis         ... NOT available
Auxiliary 'external' fitting basis          ... NOT available

Checking pre-screening integrals            ... done (  0.0 sec) Dimension = 80
Check shell pair data                       ... done (  0.0 sec)
Shell pair information
Shell pair cut-off parameter TPreSel        ...   1.0e-11
Total number of shell pairs                 ...      3240
Shell pairs after pre-screening             ...      2984
Total number of primitive shell pairs       ...     11481
Primitive shell pairs kept                  ...      7806
          la=0 lb=0:    978 shell pairs
          la=1 lb=0:   1097 shell pairs
          la=1 lb=1:    323 shell pairs
          la=2 lb=0:    350 shell pairs
          la=2 lb=1:    200 shell pairs
          la=2 lb=2:     36 shell pairs

Calculating one electron integrals          ... done (  0.0 sec)
Calculating RI/J V-Matrix + Cholesky decomp.... done (  0.0 sec)
Calculating Nuclear repulsion               ... done (  0.0 sec) ENN=    246.704721177934 Eh

Diagonalization of the overlap matrix:
Smallest eigenvalue                        ... 2.704e-04
Time for diagonalization                   ...    0.003 sec
Threshold for overlap eigenvalues          ... 1.000e-07
Number of eigenvalues below threshold      ... 0
Time for construction of square roots      ...    0.001 sec
Total time needed                          ...    0.005 sec

-------------------
DFT GRID GENERATION
-------------------

General Integration Accuracy     IntAcc      ... 4.388
Radial Grid Type                 RadialGrid  ... OptM3 with GC (2021)
Angular Grid (max. ang.)         AngularGrid ... 4 (Lebedev-302)
Angular grid pruning method      GridPruning ... 4 (adaptive)
Weight generation scheme         WeightScheme... mBecke (2022)
Basis function cutoff            BFCut       ... 1.0000e-10
Integration weight cutoff        WCut        ... 1.0000e-14
Partially contracted basis set               ... off
Rotationally invariant grid construction     ... off
Angular grids for H and He will be reduced by one unit
Diffuse basis detected: some atoms will have their outermost
                        angular grid increased by 1.

Total number of grid points                  ...    62781
Total number of batches                      ...      987
Average number of points per batch           ...       63
Average number of grid points per atom       ...     4484
Initializing property integral containers    ... done (  0.0 sec)

SHARK setup successfully completed in   0.6 seconds

Maximum memory used throughout the entire STARTUP-calculation: 28.5 MB
-------------------------------------------------------------------------------
                                 ORCA GUESS
                   Start orbitals & Density for SCF / CASSCF
-------------------------------------------------------------------------------

------------
SCF SETTINGS
------------
Hamiltonian:
 Density Functional     Method          .... DFT(GTOs)
  Functional kind                       .... Exchange
  Functional name                       .... Re-regularized SCAN exchange by Furness et al
  Functional family                     .... MGGA
  Functional refs                              
    [ 0] J. W. Furness, A. D. Kaplan, J. Ning, J. P. Perdew, and J. Sun.,  J. Phys. Chem. Lett. 11, 8208-8215 (2020), doi: 10.1021/acs.jpclett.0c02405
    [ 1] J. W. Furness, A. D. Kaplan, J. Ning, J. P. Perdew, and J. Sun.,  J. Phys. Chem. Lett. 11, 9248-9248 (2020), doi: 10.1021/acs.jpclett.0c03077
  Functional external parameters        .... 6
    Parameter  0 _c1        =  6.670000e-01 : c1 parameter        
    Parameter  1 _c2        =  8.000000e-01 : c2 parameter        
    Parameter  2 _d         =  1.240000e+00 : d parameter         
    Parameter  3 _k1        =  6.500000e-02 : k1 parameter        
    Parameter  4 _eta       =  1.000000e-03 : eta parameter       
    Parameter  5 _dp2       =  3.610000e-01 : dp2 parameter       
  Functional kind                       .... Correlation
  Functional name                       .... Re-regularized SCAN correlation by Furness et al
  Functional family                     .... MGGA
  Functional refs                              
    [ 0] J. W. Furness, A. D. Kaplan, J. Ning, J. P. Perdew, and J. Sun.,  J. Phys. Chem. Lett. 11, 8208-8215 (2020), doi: 10.1021/acs.jpclett.0c02405
    [ 1] J. W. Furness, A. D. Kaplan, J. Ning, J. P. Perdew, and J. Sun.,  J. Phys. Chem. Lett. 11, 9248-9248 (2020), doi: 10.1021/acs.jpclett.0c03077
  Functional external parameters        .... 1
    Parameter  0 _eta       =  1.000000e-03 : Regularization parameter
 Gradients option       PostSCFGGA      .... off
 RI-approximation to the Coulomb term is turned on
   Number of AuxJ basis functions       .... 382


General Settings:
 Integral files         IntName         .... sp
 Hartree-Fock type      HFTyp           .... RHF
 Total Charge           Charge          ....    0
 Multiplicity           Mult            ....    1
 Number of Electrons    NEL             ....   48
 Basis Dimension        Dim             ....  164
 Nuclear Repulsion      ENuc            ....    246.7047211779 Eh

Convergence Acceleration:
 AO-DIIS                CNVDIIS         .... on
   Start iteration      DIISMaxIt       ....    12
   Startup error        DIISStart       ....  0.200000
   # of expansion vecs  DIISMaxEq       ....     5
   Bias factor          DIISBfac        ....   1.050
   Max. coefficient     DIISMaxC        ....  10.000
 MO-DIIS                CNVKDIIS        .... off
 Trust-Rad. Augm. Hess. CNVTRAH         .... auto
   Auto Start mean grad. ratio tolernc. ....  1.125000
   Auto Start start iteration           ....     1
   Auto Start num. interpolation iter.  ....    10
   Max. Number of Micro iterations      ....    24
   Max. Number of Macro iterations      .... Maxiter - #DIIS iter
   Number of Davidson start vectors     ....     2
   Converg. threshold    (grad. norm)   ....   3.330e-04
   Grad. Scal. Fac. for Micro threshold ....   0.100
   Minimum threshold for Micro iter.    ....   1.000e-02
   NR start threshold (gradient norm)   ....   1.000e-04
   Initial trust radius                 ....   0.400
   Minimum AH scaling param. (alpha)    ....   1.000
   Maximum AH scaling param. (alpha)    .... 1000.000
   Quad. conv. algorithm                .... NR
   White noise on init. David. guess    .... on
   Maximum white noise                  ....   0.010
   Pseudo random numbers                .... off
   Inactive MOs                         .... canonical
   Orbital update algorithm             .... Taylor
   Preconditioner                       .... Diag
   Full preconditioner red. dimension   ....   250
   COSX micro iterations for RIJONX calc.... off
 SOSCF                  CNVSOSCF        .... on
   Start iteration      SOSCFMaxIt      ....   150
   Startup grad/error   SOSCFStart      ....  0.003300
   Hessian update       SOSCFHessUp     .... L-BFGS
 Level Shifting         CNVShift        .... on
   Level shift para.    LevelShift      ....    0.2500
   Turn off err/grad.   ShiftErr        ....    0.0010
 Zerner damping         CNVZerner       .... off
 Static damping         CNVDamp         .... on
   Fraction old density DampFac         ....    0.7000
   Max. Damping (<1)    DampMax         ....    0.9800
   Min. Damping (>=0)   DampMin         ....    0.0000
   Turn off err/grad.   DampErr         ....    0.1000

SCF Procedure:
 Maximum # iterations   MaxIter         ....   125
 SCF integral mode      SCFMode         .... Direct
   Integral package                     .... SHARK and LIBINT hybrid scheme
 Reset frequency        DirectResetFreq ....    20
 Integral Threshold     Thresh          ....  1.000e-10 Eh
 Primitive CutOff       TCut            ....  1.000e-11 Eh

Convergence Tolerance:
 Convergence Check Mode ConvCheckMode   .... Total+1el-Energy
 Convergence forced     ConvForced      .... 0
 Energy Change          TolE            ....  1.000e-06 Eh
 1-El. energy change                    ....  1.000e-03 Eh
 Orbital Gradient       TolG            ....  3.330e-04
 Orbital Rotation angle TolX            ....  3.330e-04
 DIIS Error             TolErr          ....  1.000e-06

---------------------
INITIAL GUESS: MOREAD
---------------------
Guess MOs are being read from file: sp.ges
Input Geometry matches current geometry (good)
Atom 0: N(Shells)= 9 and 6 - projection required
Input basis set needs projection
NBasis(read)= 100
NBasis(calc)= 164
Basis set overlap was calculated
Using GuessMode=FMatrix for the initial guess
C*T matrix was formed
Effective Fockian was calculated
Effective Fockian was diagonalized
Initial density was built
                      ------------------
                      INITIAL GUESS DONE (   0.0 sec)
                      ------------------
             **** ENERGY FILE WAS UPDATED (sp.en.tmp) ****
Finished Guess after   0.1 sec
Maximum memory used throughout the entire GUESS-calculation: 11.5 MB

-------------------------------------------------------------------------------------------
                                      ORCA LEAN-SCF
                              memory conserving SCF solver
-------------------------------------------------------------------------------------------

----------------------------------------D-I-I-S--------------------------------------------
Iteration    Energy (Eh)           Delta-E    RMSDP     MaxDP     DIISErr   Damp  Time(sec)
-------------------------------------------------------------------------------------------
               ***  Starting incremental Fock matrix formation  ***
    1    -307.4826311462445574     0.00e+00  3.55e-03  1.18e-01  6.25e-01  0.700   1.3
    2    -307.5284978375110541    -4.59e-02  2.92e-03  8.86e-02  4.39e-01  0.700   1.1
    3    -307.5609087978103844    -3.24e-02  2.15e-03  6.29e-02  3.08e-01  0.700   1.0
    4    -307.5836622324864038    -2.28e-02  1.54e-03  4.45e-02  2.16e-01  0.700   1.2
                               ***Turning on AO-DIIS***
    5    -307.5996210706126703    -1.60e-02  1.12e-03  3.20e-02  1.51e-01  0.700   1.0
    6    -307.6108065785117560    -1.12e-02  7.92e-04  2.26e-02  1.06e-01  0.700   1.2
    7    -307.6186474630615066    -7.84e-03  5.59e-04  1.59e-02  7.40e-02  0.700   1.0
    8    -307.6241406216944370    -5.49e-03  1.31e-03  3.70e-02  5.18e-02  0.000   1.0
                              *** Initializing SOSCF ***
---------------------------------------S-O-S-C-F--------------------------------------
Iteration    Energy (Eh)           Delta-E    RMSDP     MaxDP     MaxGrad    Time(sec)
--------------------------------------------------------------------------------------
    9    -307.6369737491983187    -1.28e-02  8.15e-06  2.66e-04  6.92e-05     1.1
                  *** Gradient check signals convergence ***

               *****************************************************
               *                     SUCCESS                       *
               *           SCF CONVERGED AFTER   9 CYCLES          *
               *****************************************************

             **** ENERGY FILE WAS UPDATED (sp.en.tmp) ****

----------------
TOTAL SCF ENERGY
----------------

Total Energy       :       -307.63697374919832 Eh           -8371.22764 eV

Components:
Nuclear Repulsion  :        246.70472117793443 Eh            6713.17675 eV
Electronic Energy  :       -554.34169492713272 Eh          -15084.40440 eV
One Electron Energy:       -906.85309059600706 Eh          -24676.72714 eV
Two Electron Energy:        352.51139566887434 Eh            9592.32274 eV

Virial components:
Potential Energy   :       -614.07938043983381 Eh          -16709.94946 eV
Kinetic Energy     :        306.44240669063549 Eh            8338.72182 eV
Virial Ratio       :          2.00389817803438

DFT components:
N(Alpha)           :       23.999992814340 electrons
N(Beta)            :       23.999992814340 electrons
N(Total)           :       47.999985628681 electrons
E(X)               :      -40.238756863967 Eh       
E(C)               :       -1.538972299011 Eh       
E(XC)              :      -41.777729162978 Eh       

---------------
SCF CONVERGENCE
---------------

  Last Energy change         ...    1.2833e-02  Tolerance :   1.0000e-06
  Last MAX-Density change    ...    2.6623e-04  Tolerance :   1.0000e-05
  Last RMS-Density change    ...    8.1491e-06  Tolerance :   1.0000e-06
  Last DIIS Error            ...    6.9237e-05  Tolerance :   1.0000e-06
  Last Orbital Gradient      ...    6.9237e-05  Tolerance :   3.3300e-04
  Last Orbital Rotation      ...    6.9237e-05  Tolerance :   3.3300e-04


----------------
ORBITAL ENERGIES
----------------

  NO   OCC          E(Eh)            E(eV) 
   0   2.0000     -18.999287      -516.9969 
   1   2.0000     -18.932018      -515.1664 
   2   2.0000     -10.153875      -276.3010 
   3   2.0000     -10.082962      -274.3714 
   4   2.0000     -10.044653      -273.3289 
   5   2.0000     -10.031568      -272.9729 
   6   2.0000      -1.073364       -29.2077 
   7   2.0000      -0.983674       -26.7671 
   8   2.0000      -0.760646       -20.6982 
   9   2.0000      -0.694923       -18.9098 
  10   2.0000      -0.611271       -16.6335 
  11   2.0000      -0.532718       -14.4960 
  12   2.0000      -0.472142       -12.8476 
  13   2.0000      -0.452151       -12.3037 
  14   2.0000      -0.448211       -12.1964 
  15   2.0000      -0.412493       -11.2245 
  16   2.0000      -0.402210       -10.9447 
  17   2.0000      -0.379624       -10.3301 
  18   2.0000      -0.346548        -9.4301 
  19   2.0000      -0.335405        -9.1268 
  20   2.0000      -0.326478        -8.8839 
  21   2.0000      -0.314930        -8.5697 
  22   2.0000      -0.273183        -7.4337 
  23   2.0000      -0.241160        -6.5623 
  24   0.0000      -0.015206        -0.4138 
  25   0.0000       0.068053         1.8518 
  26   0.0000       0.099212         2.6997 
  27   0.0000       0.121975         3.3191 
  28   0.0000       0.128506         3.4968 
  29   0.0000       0.144286         3.9262 
  30   0.0000       0.158224         4.3055 
  31   0.0000       0.168281         4.5791 
  32   0.0000       0.172905         4.7050 
  33   0.0000       0.179370         4.8809 
  34   0.0000       0.182490         4.9658 
*Only the first 10 virtual orbitals were printed.

                    ********************************
                    * MULLIKEN POPULATION ANALYSIS *
                    ********************************

-----------------------
MULLIKEN ATOMIC CHARGES
-----------------------
   0 C :   -0.466007
   1 C :   -0.288947
   2 C :    0.425294
   3 O :   -0.432600
   4 O :   -0.193495
   5 C :   -0.309781
   6 H :    0.152522
   7 H :    0.167154
   8 H :    0.148114
   9 H :    0.157234
  10 H :    0.158558
  11 H :    0.146544
  12 H :    0.188893
  13 H :    0.146516
Sum of atomic charges:    0.0000000

--------------------------------
MULLIKEN REDUCED ORBITAL CHARGES
--------------------------------
  0 C s       :     3.322399  s :     3.322399
      pz      :     0.981799  p :     3.116730
      px      :     1.030372
      py      :     1.104560
      dz2     :     0.006698  d :     0.026878
      dxz     :     0.006260
      dyz     :     0.003974
      dx2y2   :     0.006013
      dxy     :     0.003933

  1 C s       :     3.213416  s :     3.213416
      pz      :     1.016086  p :     3.040806
      px      :     0.963043
      py      :     1.061677
      dz2     :     0.008127  d :     0.034725
      dxz     :     0.007025
      dyz     :     0.004853
      dx2y2   :     0.007438
      dxy     :     0.007281

  2 C s       :     3.126374  s :     3.126374
      pz      :     0.752006  p :     2.322917
      px      :     0.812399
      py      :     0.758513
      dz2     :     0.007546  d :     0.125415
      dxz     :     0.009292
      dyz     :     0.028208
      dx2y2   :     0.028334
      dxy     :     0.052036

  3 O s       :     3.837693  s :     3.837693
      pz      :     1.481572  p :     4.571995
      px      :     1.774601
      py      :     1.315823
      dz2     :     0.003321  d :     0.022912
      dxz     :     0.001552
      dyz     :     0.008820
      dx2y2   :     0.008811
      dxy     :     0.000408

  4 O s       :     3.703228  s :     3.703228
      pz      :     1.700102  p :     4.469240
      px      :     1.154455
      py      :     1.614683
      dz2     :     0.005434  d :     0.021027
      dxz     :     0.005009
      dyz     :     0.004314
      dx2y2   :     0.006003
      dxy     :     0.000267

  5 C s       :     3.320876  s :     3.320876
      pz      :     1.078698  p :     2.945333
      px      :     0.771567
      py      :     1.095068
      dz2     :     0.008471  d :     0.043572
      dxz     :     0.011431
      dyz     :     0.002797
      dx2y2   :     0.012019
      dxy     :     0.008853

  6 H s       :     0.829179  s :     0.829179
      pz      :     0.003781  p :     0.018299
      px      :     0.009480
      py      :     0.005038

  7 H s       :     0.814699  s :     0.814699
      pz      :     0.003738  p :     0.018147
      px      :     0.003644
      py      :     0.010765

  8 H s       :     0.833698  s :     0.833698
      pz      :     0.008737  p :     0.018188
      px      :     0.004577
      py      :     0.004873

  9 H s       :     0.824941  s :     0.824941
      pz      :     0.003512  p :     0.017825
      px      :     0.003486
      py      :     0.010828

 10 H s       :     0.823533  s :     0.823533
      pz      :     0.008770  p :     0.017909
      px      :     0.004662
      py      :     0.004476

 11 H s       :     0.835773  s :     0.835773
      pz      :     0.006493  p :     0.017682
      px      :     0.006444
      py      :     0.004745

 12 H s       :     0.792336  s :     0.792336
      pz      :     0.003565  p :     0.018771
      px      :     0.002781
      py      :     0.012425

 13 H s       :     0.835805  s :     0.835805
      pz      :     0.010769  p :     0.017679
      px      :     0.002895
      py      :     0.004016


------------------------
MULLIKEN OVERLAP CHARGES
------------------------
B(  0-C ,  1-C ) :   0.4932 B(  0-C ,  2-C ) :  -0.1166 B(  0-C ,  6-H ) :   0.8159 
B(  0-C ,  7-H ) :   0.8499 B(  0-C ,  8-H ) :   0.8319 B(  0-C , 10-H ) :  -0.0553 
B(  1-C ,  2-C ) :   0.5517 B(  1-C ,  3-O ) :  -0.1332 B(  1-C ,  4-O ) :  -0.0939 
B(  1-C ,  6-H ) :  -0.0950 B(  1-C ,  7-H ) :  -0.0691 B(  1-C ,  8-H ) :  -0.0736 
B(  1-C ,  9-H ) :   0.8453 B(  1-C , 10-H ) :   0.8395 B(  2-C ,  3-O ) :   0.9923 
B(  2-C ,  4-O ) :   0.3608 B(  2-C ,  5-C ) :  -0.2400 B(  2-C ,  9-H ) :  -0.1239 
B(  2-C , 10-H ) :  -0.0697 B(  2-C , 12-H ) :  -0.0584 B(  3-O ,  4-O ) :  -0.2226 
B(  4-O ,  5-C ) :   0.3643 B(  4-O , 11-H ) :  -0.0792 B(  4-O , 12-H ) :  -0.0603 
B(  4-O , 13-H ) :  -0.0786 B(  5-C , 11-H ) :   0.7928 B(  5-C , 12-H ) :   0.8549 
B(  5-C , 13-H ) :   0.7894 


                     *******************************
                     * LOEWDIN POPULATION ANALYSIS *
                     *******************************

----------------------
LOEWDIN ATOMIC CHARGES
----------------------
   0 C :   -0.392672
   1 C :   -0.236825
   2 C :    0.356265
   3 O :   -0.430053
   4 O :   -0.605804
   5 C :   -0.049751
   6 H :    0.153051
   7 H :    0.162057
   8 H :    0.155351
   9 H :    0.174082
  10 H :    0.175320
  11 H :    0.172477
  12 H :    0.194516
  13 H :    0.171985

-------------------------------
LOEWDIN REDUCED ORBITAL CHARGES
-------------------------------
  0 C s       :     2.969345  s :     2.969345
      pz      :     1.094423  p :     3.360445
      px      :     1.104202
      py      :     1.161819
      dz2     :     0.015330  d :     0.062882
      dxz     :     0.014941
      dyz     :     0.008885
      dx2y2   :     0.014560
      dxy     :     0.009167

  1 C s       :     2.927936  s :     2.927936
      pz      :     1.101233  p :     3.235302
      px      :     1.026887
      py      :     1.107182
      dz2     :     0.016706  d :     0.073587
      dxz     :     0.015955
      dyz     :     0.009559
      dx2y2   :     0.016915
      dxy     :     0.014451

  2 C s       :     2.738904  s :     2.738904
      pz      :     0.720452  p :     2.631877
      px      :     0.926808
      py      :     0.984617
      dz2     :     0.019510  d :     0.272954
      dxz     :     0.016540
      dyz     :     0.054251
      dx2y2   :     0.065997
      dxy     :     0.116655

  3 O s       :     3.542214  s :     3.542214
      pz      :     1.459576  p :     4.665038
      px      :     1.718585
      py      :     1.486877
      dz2     :     0.027520  d :     0.222800
      dxz     :     0.010581
      dyz     :     0.045231
      dx2y2   :     0.068330
      dxy     :     0.071139

  4 O s       :     3.472341  s :     3.472341
      pz      :     1.687078  p :     4.668736
      px      :     1.349434
      py      :     1.632224
      dz2     :     0.059130  d :     0.464727
      dxz     :     0.106580
      dyz     :     0.037781
      dx2y2   :     0.137759
      dxy     :     0.123477

  5 C s       :     2.903588  s :     2.903588
      pz      :     1.091161  p :     3.041025
      px      :     0.858884
      py      :     1.090980
      dz2     :     0.021406  d :     0.105138
      dxz     :     0.027320
      dyz     :     0.005488
      dx2y2   :     0.029790
      dxy     :     0.021133

  6 H s       :     0.803411  s :     0.803411
      pz      :     0.008445  p :     0.043538
      px      :     0.023310
      py      :     0.011783

  7 H s       :     0.794016  s :     0.794016
      pz      :     0.008279  p :     0.043927
      px      :     0.008057
      py      :     0.027591

  8 H s       :     0.801196  s :     0.801196
      pz      :     0.021336  p :     0.043453
      px      :     0.010719
      py      :     0.011399

  9 H s       :     0.782091  s :     0.782091
      pz      :     0.008254  p :     0.043826
      px      :     0.008179
      py      :     0.027393

 10 H s       :     0.781176  s :     0.781176
      pz      :     0.021419  p :     0.043505
      px      :     0.011232
      py      :     0.010853

 11 H s       :     0.787179  s :     0.787179
      pz      :     0.015532  p :     0.040344
      px      :     0.013332
      py      :     0.011480

 12 H s       :     0.759588  s :     0.759588
      pz      :     0.007995  p :     0.045896
      px      :     0.006792
      py      :     0.031110

 13 H s       :     0.787661  s :     0.787661
      pz      :     0.025248  p :     0.040354
      px      :     0.005663
      py      :     0.009443


---------------------------------
LOEWDIN BOND ORDERS (THRESH 0.050000)
---------------------------------
B(  0-C ,  1-C ) :   1.1182 B(  0-C ,  2-C ) :   0.0792 B(  0-C ,  6-H ) :   0.9273 
B(  0-C ,  7-H ) :   0.9229 B(  0-C ,  8-H ) :   0.9274 B(  1-C ,  2-C ) :   0.9218 
B(  1-C ,  3-O ) :   0.1816 B(  1-C ,  4-O ) :   0.1860 B(  1-C ,  9-H ) :   0.8717 
B(  1-C , 10-H ) :   0.8745 B(  2-C ,  3-O ) :   2.2033 B(  2-C ,  4-O ) :   1.4326 
B(  2-C ,  5-C ) :   0.0865 B(  3-O ,  4-O ) :   0.4585 B(  3-O ,  5-C ) :   0.0774 
B(  4-O ,  5-C ) :   1.3644 B(  4-O , 11-H ) :   0.1010 B(  4-O , 12-H ) :   0.0952 
B(  4-O , 13-H ) :   0.1011 B(  5-C , 11-H ) :   0.8661 B(  5-C , 12-H ) :   0.8358 
B(  5-C , 13-H ) :   0.8660 

------------------------------------------
LOEWDIN REDUCED ORBITAL POPULATIONS PER MO
-------------------------------------------
THRESHOLD FOR PRINTING IS 0.1%%
                      0         1         2         3         4         5   
                 -18.99929 -18.93202 -10.15388 -10.08296 -10.04465 -10.03157
                   2.00000   2.00000   2.00000   2.00000   2.00000   2.00000
                  --------  --------  --------  --------  --------  --------
 0 C  s               0.0       0.0       0.0       0.0       0.0      99.7
 1 C  s               0.0       0.0       0.0       0.0      99.7       0.0
 2 C  s               0.0       0.0      98.9       0.0       0.0       0.0
 3 O  s               0.0      99.9       0.0       0.0       0.0       0.0
 3 O  py              0.0       0.0       0.2       0.0       0.0       0.0
 3 O  dx2y2           0.0       0.0       0.2       0.0       0.0       0.0
 4 O  s              99.9       0.0       0.0       0.0       0.0       0.0
 4 O  dx2y2           0.0       0.0       0.0       0.1       0.0       0.0
 4 O  dxy             0.0       0.0       0.2       0.1       0.0       0.0
 5 C  s               0.0       0.0       0.0      99.4       0.0       0.0

                      6         7         8         9        10        11   
                  -1.07336  -0.98367  -0.76065  -0.69492  -0.61127  -0.53272
                   2.00000   2.00000   2.00000   2.00000   2.00000   2.00000
                  --------  --------  --------  --------  --------  --------
 0 C  s               0.1       0.0      17.4      10.6      18.8       0.7
 0 C  pz              0.1       0.0       1.7       0.1       3.2       2.1
 0 C  px              0.2       0.0       1.3       0.0       2.3       0.1
 1 C  s               1.0       0.2      27.5       2.1       9.2       2.6
 1 C  pz              0.1       0.0       1.3       0.5       5.4       2.3
 1 C  px              1.6       0.1       0.1       3.8       4.6       1.7
 1 C  py              0.3       0.5       0.1       0.0       0.0       0.2
 1 C  dxz             0.0       0.0       0.0       0.1       0.1       0.0
 2 C  s              16.7       3.7       3.8       2.2       1.8       3.6
 2 C  pz              0.3       0.4       0.1       0.1       1.4       0.9
 2 C  px              4.3       1.2       7.0       1.2       5.1       1.9
 2 C  py              0.1      21.8       5.5       3.0       1.0       2.0
 2 C  dz2             0.5       0.1       0.0       0.0       0.0       0.0
 2 C  dx2y2           0.2       1.1       0.1       0.0       0.1       0.0
 2 C  dxy             0.3       0.6       0.0       0.2       0.2       0.0
 3 O  s              13.6      40.4       1.7       0.4       0.6       2.1
 3 O  pz              0.0       0.0       0.0       0.0       0.1       0.3
 3 O  px              0.0       0.2       0.2       0.0       0.4       0.8
 3 O  py              3.3       3.5       0.5       0.3       0.4       2.4
 3 O  dz2             0.4       0.0       0.1       0.0       0.1       0.1
 3 O  dx2y2           0.8       0.1       0.2       0.5       0.0       0.2
 3 O  dxy             0.1       0.2       0.5       0.0       0.3       0.1
 4 O  s              40.5      18.2       0.1       0.7       1.5       5.1
 4 O  pz              0.0       0.1       0.5       1.8       0.0       1.2
 4 O  px              0.1       0.6       6.3      20.5       0.1      15.7
 4 O  py              2.6       0.4       0.0       0.2       0.1       9.3
 4 O  dz2             0.4       0.1       0.0       0.2       0.3       0.3
 4 O  dxz             0.1       0.0       0.0       0.1       0.5       0.1
 4 O  dyz             0.1       0.1       0.0       0.1       0.0       0.0
 4 O  dx2y2           0.0       0.5       0.2       0.7       1.3       0.1
 4 O  dxy             0.2       0.7       0.3       1.1       0.0       0.2
 5 C  s               4.5       2.1       3.6      23.8       5.4       5.2
 5 C  pz              0.3       0.1       0.0       0.0       0.1       0.6
 5 C  px              4.9       1.4       0.2       0.4       1.8       9.5
 5 C  py              0.3       0.6       0.1       0.1       0.1       8.7
 5 C  dx2y2           0.2       0.1       0.0       0.0       0.0       0.2
 5 C  dxy             0.1       0.1       0.0       0.0       0.0       0.4
 6 H  s               0.0       0.0       2.5       2.2       6.5       0.2
 6 H  px              0.0       0.0       0.2       0.1       0.4       0.0
 6 H  py              0.0       0.0       0.0       0.0       0.1       0.0
 7 H  s               0.0       0.0       2.4       2.0       5.8       0.4
 7 H  py              0.0       0.0       0.2       0.2       0.5       0.0
 8 H  s               0.0       0.0       2.5       1.9       6.1       0.8
 8 H  pz              0.0       0.0       0.2       0.1       0.3       0.0
 8 H  px              0.0       0.0       0.0       0.0       0.1       0.0
 9 H  s               0.1       0.0       4.3       0.2       3.0       1.2
 9 H  py              0.0       0.0       0.4       0.0       0.3       0.1
10 H  s               0.1       0.0       4.0       0.5       3.5       2.8
10 H  pz              0.0       0.0       0.3       0.0       0.1       0.1
10 H  px              0.0       0.0       0.1       0.0       0.1       0.0
11 H  s               0.3       0.2       0.6       5.7       2.1       2.4
11 H  pz              0.0       0.0       0.0       0.2       0.1       0.1
11 H  px              0.0       0.0       0.0       0.2       0.0       0.0
11 H  py              0.0       0.0       0.0       0.1       0.0       0.1
12 H  s               0.4       0.1       0.5       4.6       1.6       7.2
12 H  py              0.0       0.0       0.1       0.4       0.1       0.4
13 H  s               0.3       0.2       0.6       5.7       2.0       2.8
13 H  pz              0.0       0.0       0.1       0.4       0.1       0.1

                     12        13        14        15        16        17   
                  -0.47214  -0.45215  -0.44821  -0.41249  -0.40221  -0.37962
                   2.00000   2.00000   2.00000   2.00000   2.00000   2.00000
                  --------  --------  --------  --------  --------  --------
 0 C  s               0.0       0.2       0.1       0.0       0.1       0.1
 0 C  pz              3.0       0.2       2.1       3.6       0.1      15.0
 0 C  px              1.8       1.9       0.0       9.3      10.4       0.0
 0 C  py              3.5       2.4       1.9      11.7       7.3       0.0
 0 C  dxz             0.0       0.0       0.0       0.0       0.1       0.1
 1 C  s               1.8       0.4       0.2       0.1       0.3       0.1
 1 C  pz              5.0       1.9       0.5       7.1       3.2       3.0
 1 C  px              7.1       0.1       2.7       2.4       0.1       8.5
 1 C  py              9.6       6.3       5.4       9.7       3.5       0.0
 1 C  dx2y2           0.0       0.0       0.0       0.1       0.0       0.0
 1 C  dxy             0.2       0.0       0.0       0.0       0.0       0.0
 2 C  s               1.7       1.0       0.7       0.3       0.9       0.2
 2 C  pz              1.0      11.1       1.7       0.4       1.7      11.5
 2 C  px             13.0       0.0       0.2       0.2       1.5       0.8
 2 C  py              0.1       0.3       2.8       2.1       3.1       0.9
 2 C  dx2y2           0.0       0.1       0.4       0.0       0.2       0.1
 2 C  dxy             0.0       0.0       0.0       0.2       0.0       0.1
 3 O  s               0.9       3.1       7.6       2.1       3.1       0.3
 3 O  pz              0.2       4.5       1.6       0.5       1.6      12.6
 3 O  px              9.5       0.3       0.0       0.0       0.0       0.1
 3 O  py              1.6       7.4      14.8       8.2      18.2       1.7
 3 O  dz2             0.0       0.1       0.1       0.0       0.1       0.0
 3 O  dxz             0.1       0.0       0.0       0.0       0.0       0.1
 3 O  dyz             0.0       0.7       0.2       0.0       0.1       0.6
 3 O  dx2y2           0.1       0.1       0.1       0.1       0.4       0.0
 3 O  dxy             1.2       0.0       0.0       0.0       0.0       0.0
 4 O  s               0.5       0.0       1.1       0.7       0.0       0.1
 4 O  pz              4.1      19.9       6.8       0.2       0.3       0.1
 4 O  px              0.1       3.9       2.9       6.0       0.6       2.0
 4 O  py              7.0       0.1      15.9       1.2       1.0       0.2
 4 O  dz2             0.0       0.0       0.0       0.3       0.2       0.3
 4 O  dxz             0.0       0.1       0.0       0.2       1.0       1.6
 4 O  dyz             0.0       0.6       0.1       0.0       0.1       0.0
 4 O  dx2y2           0.9       0.0       0.9       0.1       0.0       0.1
 4 O  dxy             0.9       0.1       0.0       0.0       0.5       0.6
 5 C  s               0.0       0.0       0.4       0.1       0.0       0.0
 5 C  pz              2.4      17.5       1.7       5.5       9.7       5.7
 5 C  px              0.1       0.6      10.4       1.4       1.1       7.4
 5 C  py              6.3       0.4       3.4       0.0       7.2       5.9
 5 C  dz2             0.0       0.0       0.1       0.0       0.2       0.0
 5 C  dxz             0.0       0.0       0.0       0.0       0.0       0.2
 5 C  dyz             0.0       0.1       0.0       0.0       0.0       0.0
 6 H  s               1.3       0.3       0.2       1.2       7.2       0.1
 6 H  pz              0.0       0.0       0.0       0.0       0.0       0.1
 6 H  px              0.1       0.0       0.0       0.0       0.1       0.0
 6 H  py              0.0       0.0       0.0       0.1       0.0       0.0
 7 H  s               1.1       1.5       0.2       4.8       1.5       0.3
 7 H  px              0.0       0.0       0.0       0.0       0.1       0.0
 7 H  py              0.0       0.1       0.0       0.1       0.0       0.0
 8 H  s               0.4       0.0       1.3       5.8       0.0       5.4
 8 H  pz              0.0       0.0       0.0       0.2       0.0       0.0
 9 H  s               5.3       2.7       1.7       3.7       1.0       0.1
 9 H  px              0.1       0.0       0.0       0.0       0.0       0.1
 9 H  py              0.2       0.1       0.0       0.1       0.0       0.0
10 H  s               2.9       0.5       2.1       5.9       0.1       0.0
10 H  pz              0.1       0.0       0.1       0.1       0.0       0.0
10 H  px              0.0       0.0       0.0       0.0       0.0       0.1
10 H  py              0.2       0.0       0.0       0.0       0.0       0.0
11 H  s               0.1       3.8       6.3       0.1       0.0      10.1
11 H  pz              0.0       0.0       0.1       0.0       0.1       0.1
11 H  px              0.0       0.1       0.0       0.0       0.0       0.1
12 H  s               2.4       0.1       0.3       0.0       3.9       2.2
13 H  s               1.7       4.6       0.1       3.1       7.3       0.7
13 H  pz              0.1       0.1       0.0       0.1       0.2       0.0

                     18        19        20        21        22        23   
                  -0.34655  -0.33541  -0.32648  -0.31493  -0.27318  -0.24116
                   2.00000   2.00000   2.00000   2.00000   2.00000   2.00000
                  --------  --------  --------  --------  --------  --------
 0 C  s               0.0       0.6       0.1       0.0       0.0       0.0
 0 C  pz              3.4      11.6       8.4       0.3       0.0       0.0
 0 C  px             14.5       8.0       1.1       3.6       0.0       0.6
 0 C  py             11.7       6.0      12.8       0.1       0.3       0.1
 0 C  dz2             0.1       0.1       0.3       0.1       0.0       0.0
 0 C  dxz             0.0       0.1       0.1       0.0       0.0       0.0
 0 C  dyz             0.0       0.0       0.3       0.0       0.0       0.0
 0 C  dx2y2           0.3       0.1       0.0       0.0       0.0       0.1
 0 C  dxy             0.3       0.0       0.0       0.0       0.0       0.0
 1 C  s               0.2       0.3       0.0       0.1       0.0       0.6
 1 C  pz              0.8      14.7       8.5       0.5       0.1       0.1
 1 C  px              2.2       5.0       1.4       5.4       0.0       4.3
 1 C  py              1.3       5.4       9.4       0.2       0.1       3.5
 1 C  dz2             0.1       0.1       0.3       0.1       0.0       0.0
 1 C  dxz             0.0       0.3       0.2       0.0       0.0       0.0
 1 C  dyz             0.0       0.0       0.3       0.0       0.0       0.0
 1 C  dx2y2           0.1       0.2       0.0       0.0       0.0       0.1
 1 C  dxy             0.2       0.0       0.0       0.0       0.0       0.0
 2 C  s               0.4       0.0       0.0       0.7       0.0       0.4
 2 C  pz              0.1       3.8       1.0       0.0       0.4       0.1
 2 C  px              7.8       0.4       0.2       0.2       0.0       1.3
 2 C  py              0.3       0.4       0.6       4.3       0.0       0.7
 2 C  dz2             0.0       0.0       0.0       0.0       0.2       0.0
 2 C  dxz             0.0       0.1       0.2       0.0       0.1       0.0
 2 C  dyz             0.0       0.3       0.0       0.0       1.7       0.4
 2 C  dx2y2           0.0       0.1       0.1       0.6       0.0       0.1
 2 C  dxy             0.0       0.0       0.1       0.1       0.2       3.7
 3 O  s               0.1       0.1       0.2       1.0       0.0       0.0
 3 O  pz              0.3      14.1       1.2       0.0      29.8       6.2
 3 O  px              6.7       1.0       0.1       0.0       3.3      63.1
 3 O  py              0.9       0.3       2.3       7.8       0.3       0.5
 3 O  dyz             0.0       0.2       0.0       0.0       0.1       0.1
 3 O  dx2y2           0.0       0.0       0.1       0.6       0.0       0.0
 3 O  dxy             0.3       0.0       0.0       0.0       0.0       0.6
 4 O  s               0.2       0.0       0.1       4.3       0.0       0.4
 4 O  pz              0.9       3.3       1.4       0.0      43.7       0.1
 4 O  px              0.1       0.1       0.7       3.3       3.1       1.3
 4 O  py              1.1       0.2       2.9      32.8       0.2       6.2
 4 O  dz2             0.1       0.2       0.0       0.0       0.1       0.2
 4 O  dxz             0.1       0.2       0.3       0.3       0.4       0.1
 4 O  dyz             0.1       0.3       0.0       0.0       0.4       0.0
 4 O  dx2y2           0.0       0.0       0.0       1.8       0.1       0.1
 4 O  dxy             0.1       0.0       0.3       0.5       0.0       0.3
 5 C  s               0.0       0.0       0.0       0.3       0.0       0.2
 5 C  pz              2.0       3.2       0.6       0.0       5.0       0.0
 5 C  px              0.9       0.0       0.6       1.2       0.3       0.7
 5 C  py              7.2       0.1       1.5      11.9       0.0       0.7
 5 C  dz2             0.1       0.1       0.0       0.1       0.2       0.0
 5 C  dxz             0.0       0.1       0.1       0.0       0.8       0.0
 5 C  dx2y2           0.1       0.0       0.1       0.6       0.1       0.1
 5 C  dxy             0.1       0.0       0.0       0.1       0.0       0.0
 6 H  s              15.8       0.2       0.0       1.9       0.0       0.7
 6 H  pz              0.0       0.1       0.1       0.0       0.0       0.0
 6 H  px              0.2       0.0       0.0       0.0       0.0       0.0
 6 H  py              0.0       0.1       0.1       0.0       0.0       0.0
 7 H  s               5.6       6.1       7.4       0.2       0.2       0.2
 7 H  pz              0.0       0.1       0.1       0.0       0.0       0.0
 7 H  px              0.2       0.0       0.0       0.0       0.0       0.0
 8 H  s               1.8       0.1      12.1       1.5       0.1       0.0
 8 H  py              0.2       0.1       0.0       0.0       0.0       0.0
 9 H  s               1.3       6.7       6.1       0.3       0.0       1.5
 9 H  pz              0.0       0.1       0.1       0.0       0.0       0.0
 9 H  px              0.0       0.0       0.0       0.0       0.0       0.1
 9 H  py              0.0       0.1       0.0       0.0       0.0       0.0
10 H  s               1.1       0.9      12.4       2.2       0.1       0.0
10 H  py              0.0       0.1       0.0       0.0       0.0       0.0
11 H  s               0.3       0.9       1.8       0.7       4.0       0.0
12 H  s               4.4       0.2       0.9       8.9       0.0       0.1
12 H  py              0.1       0.0       0.0       0.1       0.0       0.1
13 H  s               2.9       2.3       0.1       0.5       4.4       0.0

                     24        25        26        27        28        29   
                  -0.01521   0.06805   0.09921   0.12198   0.12851   0.14429
                   0.00000   0.00000   0.00000   0.00000   0.00000   0.00000
                  --------  --------  --------  --------  --------  --------
 0 C  s               2.2       4.0       3.2      27.1       5.5       0.0
 0 C  pz              1.5       1.8       0.2       0.9      11.3       3.5
 0 C  px              0.9       2.6       1.1       6.7       9.3       1.1
 0 C  py              0.2       0.0       0.1       0.8       0.0       5.3
 0 C  dz2             0.0       0.0       0.1       0.0       0.7       0.1
 0 C  dxz             0.0       0.4       0.1       0.0       0.8       0.0
 0 C  dyz             0.0       0.0       0.0       0.0       0.0       1.0
 0 C  dx2y2           0.1       0.0       0.0       0.1       0.0       0.0
 0 C  dxy             0.0       0.0       0.1       0.0       0.3       0.0
 1 C  s               0.1       8.9       2.3       3.0      11.2       3.8
 1 C  pz              0.2       1.1       0.5       1.9      13.7       2.3
 1 C  px              0.9       0.4       0.4       6.6       2.3       6.9
 1 C  py              0.0       0.4       0.6       0.6       1.0      10.9
 1 C  dz2             0.0       0.0       0.0       0.3       0.7       0.0
 1 C  dxz             1.8       0.0       0.0       0.2       0.1       0.0
 1 C  dyz             0.0       0.0       0.0       0.1       0.1       0.0
 1 C  dx2y2           0.2       0.1       0.2       0.1       0.0       1.9
 1 C  dxy             0.0       0.0       0.0       0.1       0.0       1.3
 2 C  s               0.0       8.3       4.7       0.3       0.8       4.2
 2 C  pz             36.5       0.1       0.1       3.1       2.5       2.6
 2 C  px              2.7       1.6       0.2       2.4       0.8       0.9
 2 C  py              0.2       0.5       2.5       0.6       0.0       3.3
 2 C  dz2             0.0       1.1       0.3       0.0       0.3       0.7
 2 C  dxz             0.4       0.4       0.0       0.0       0.0       0.2
 2 C  dyz             0.7       0.0       0.0       0.0       0.0       0.0
 2 C  dx2y2           0.1       0.1       0.9       0.0       0.0       0.1
 3 O  s               0.0       1.3       1.4       0.0       0.0       0.3
 3 O  pz             21.3       0.0       0.0       0.6       0.0       0.7
 3 O  px              1.7       0.6       0.1       1.4       0.4       0.3
 3 O  py              0.1       0.2       0.4       0.0       0.0       0.1
 3 O  dz2             0.0       1.2       0.6       0.1       0.6       1.1
 3 O  dxz             0.3       0.2       0.2       0.0       0.3       1.0
 3 O  dyz             5.7       0.0       0.1       0.5       0.1       0.0
 3 O  dx2y2           0.2       0.1       0.1       0.0       0.4       1.7
 3 O  dxy             0.4       0.3       0.2       0.0       0.0       0.0
 4 O  s               0.0       9.2       1.7       0.6       0.3       0.1
 4 O  pz              9.5       0.1       0.4       0.1       0.2       0.0
 4 O  px              0.7       1.7       4.7       0.2       1.1       0.9
 4 O  py              0.1       1.6       0.9       0.1       0.2       2.5
 4 O  dz2             1.2       1.5       3.1       0.5       0.0       0.4
 4 O  dxz             3.1       0.5       1.4       0.2       0.1       0.1
 4 O  dyz             0.9       0.0       0.0       0.4       0.4       0.1
 4 O  dx2y2           0.2       0.2       2.8       0.4       0.2       1.5
 4 O  dxy             0.1       0.0       1.4       0.4       0.0       5.6
 5 C  s               0.0       3.3      22.6       7.8       7.6       0.0
 5 C  pz              0.1       1.5       1.2       0.2       0.9       0.4
 5 C  px              0.0      26.5      17.2       2.5       3.6       0.7
 5 C  py              0.0       3.8       3.1       0.8       2.3       8.1
 5 C  dz2             0.1       0.6       0.1       0.2       0.2       0.1
 5 C  dxz             0.3       0.5       0.1       0.0       0.1       0.0
 5 C  dx2y2           0.0       1.2       0.6       0.1       0.1       0.1
 5 C  dxy             0.0       0.7       0.3       0.1       0.3       0.2
 6 H  s               0.8       0.8       1.6       2.3       1.6       0.3
 6 H  pz              0.0       0.3       0.1       0.2       0.3       0.1
 6 H  px              0.2       0.0       0.2       1.3       0.1       0.0
 6 H  py              0.0       0.1       0.2       0.6       0.1       0.0
 7 H  s               0.1       0.4       0.5       4.8       0.3       0.1
 7 H  pz              0.0       0.0       0.0       0.0       0.1       0.7
 7 H  px              0.0       0.1       0.1       0.0       0.5       0.0
 7 H  py              0.0       0.2       0.2       2.4       0.2       0.1
 8 H  s               0.1       1.0       0.2       3.3       1.2       0.4
 8 H  pz              0.1       0.1       0.0       1.0       1.2       0.0
 8 H  px              0.0       0.4       0.1       0.3       0.1       0.0
 8 H  py              0.0       0.0       0.0       0.7       0.2       0.4
 9 H  s               0.3       0.5       1.3       0.9       0.2      11.3
 9 H  pz              0.0       0.0       0.0       0.2       0.5       0.1
 9 H  px              0.0       0.0       0.0       0.1       0.1       1.2
 9 H  py              0.0       0.4       0.4       0.6       0.4       3.4
10 H  s               1.9       1.1       0.3       0.6       1.2       1.0
10 H  pz              0.0       0.4       0.0       0.0       2.1       0.0
10 H  px              0.1       0.2       0.0       0.4       0.0       0.1
10 H  py              0.0       0.0       0.0       0.2       0.0       1.9
11 H  s               0.6       0.8       2.8       2.2       2.5       0.3
11 H  pz              0.0       0.5       0.2       0.8       0.7       0.1
11 H  px              0.0       0.3       1.4       0.1       0.1       0.1
11 H  py              0.0       0.4       0.0       0.2       0.3       0.0
12 H  s               0.0       0.3       1.9       0.4       0.4       0.8
12 H  px              0.0       0.8       0.2       0.1       0.2       0.1
12 H  py              0.0       0.0       1.1       0.2       0.2       0.3
13 H  s               0.7       0.7       2.6       2.7       2.7       0.7
13 H  pz              0.0       0.2       1.0       1.0       1.2       0.1
13 H  px              0.0       0.8       0.6       0.0       0.1       0.0
13 H  py              0.0       0.2       0.0       0.1       0.2       0.0

                     30        31        32        33        34        35   
                   0.15822   0.16828   0.17290   0.17937   0.18249   0.18604
                   0.00000   0.00000   0.00000   0.00000   0.00000   0.00000
                  --------  --------  --------  --------  --------  --------
 0 C  s               0.0       0.9       0.4       0.0       0.0       0.6
 0 C  pz              3.1       2.2      10.8       2.4       0.3       5.3
 0 C  px              3.5       0.7       2.1      15.2       0.4       5.7
 0 C  py              7.7       5.6       0.5       4.1       2.0       4.2
 0 C  dz2             0.5       0.0       0.1       0.1       0.3       1.5
 0 C  dxz             0.4       0.4       1.1       0.0       0.1       0.1
 0 C  dyz             0.2       0.1       0.3       0.1       0.1       0.8
 0 C  dx2y2           0.2       0.6       0.1       1.0       0.0       0.1
 0 C  dxy             0.5       0.1       0.2       0.1       0.0       0.4
 1 C  s               0.4       0.1       1.6       0.1       0.1       0.5
 1 C  pz              5.6       0.8       0.9       8.4       0.2       0.1
 1 C  px              1.6       5.4       2.7       6.8       2.5       3.1
 1 C  py             11.3      11.2       0.4       4.9       1.1       2.4
 1 C  dz2             0.6       0.7       0.1       0.1       0.1       0.4
 1 C  dxz             0.4       0.0       0.0       0.2       0.1       0.0
 1 C  dyz             1.4       0.3       0.0       0.3       0.1       0.1
 1 C  dx2y2           0.0       0.3       0.3       0.2       0.2       0.0
 1 C  dxy             0.0       1.0       0.0       0.1       0.0       0.3
 2 C  s               0.0       1.5       2.2       0.3       0.4       0.8
 2 C  pz              7.3       2.2       6.8       0.1       2.0       4.4
 2 C  px              0.9       1.1       0.3       0.4       2.0       2.3
 2 C  py              1.6       7.6       1.7       3.9       2.4       0.8
 2 C  dz2             0.0       0.1       0.0       0.1       0.0       0.3
 2 C  dx2y2           0.1       0.6       0.2       0.1       0.0       0.0
 2 C  dxy             0.1       0.7       0.0       0.0       0.0       0.0
 3 O  s               0.3       1.5       0.3       1.3       0.3       0.3
 3 O  pz              1.0       0.0       0.7       0.1       1.8       0.4
 3 O  px              0.5       0.1       0.6       0.5       0.3       0.7
 3 O  py              1.1       0.4       0.0       1.1       0.6       0.3
 3 O  dz2             0.1       0.8       0.8       0.7       0.9       0.1
 3 O  dxz             0.0       0.2       1.8       0.0       2.6       0.0
 3 O  dyz             0.0       0.0       0.0       0.0       0.1       0.2
 3 O  dx2y2           0.9       0.5       0.0       0.3       0.1       0.0
 3 O  dxy             0.6       1.4       0.0       0.0       0.0       0.0
 4 O  s               0.1       0.0       0.2       0.1       0.0       0.3
 4 O  pz              0.2       0.1       0.6       0.3       2.0       0.3
 4 O  px              0.0       1.2       0.7       0.1       0.0       1.3
 4 O  py              0.2       0.0       1.0       0.1       0.0       0.2
 4 O  dz2             1.7       1.4       2.9       0.0       0.4       0.1
 4 O  dxz             0.0       1.0       0.5       0.7       0.7       0.1
 4 O  dyz             1.3       0.5       0.3       0.1       6.5       0.4
 4 O  dx2y2           0.2       0.5       0.1       0.0       0.5       0.0
 4 O  dxy             0.2       2.5       2.0       0.9       0.3       0.3
 5 C  s               0.8       0.0       0.6       0.5       0.0       0.2
 5 C  pz              2.0       3.6      15.9       9.9      13.5      17.1
 5 C  px              2.5       0.1       2.7       6.8       1.4       1.6
 5 C  py              1.9       5.1       8.1       6.6       0.3       3.0
 5 C  dz2             0.1       0.3       1.4       0.1       1.0       0.6
 5 C  dxz             0.1       0.0       0.1       0.1       1.2       0.0
 5 C  dyz             0.3       0.3       0.0       0.0       1.9       0.0
 5 C  dx2y2           0.4       0.9       0.7       0.0       0.0       0.0
 5 C  dxy             0.0       0.0       0.0       0.0       0.5       0.1
 6 H  s               1.3       1.0       1.2       4.6       0.2       3.4
 6 H  pz              0.2       0.2       0.4       0.1       0.1       0.0
 6 H  px              0.1       0.5       0.2       1.9       0.0       0.3
 6 H  py              0.0       0.2       0.3       0.0       0.1       1.6
 7 H  s               4.5       1.5       0.5       3.8       1.2       3.9
 7 H  pz              0.1       0.2       0.6       0.2       0.0       0.5
 7 H  px              0.3       0.1       0.0       0.0       0.0       0.4
 7 H  py              1.1       0.0       0.1       0.8       0.4       0.4
 8 H  s               2.8       3.5       5.0       0.2       2.2      12.2
 8 H  pz              1.2       0.2       0.2       0.0       0.5       2.5
 8 H  px              0.4       0.8       0.4       0.0       0.1       0.1
 8 H  py              0.0       0.0       0.2       1.0       0.0       0.3
 9 H  s               1.9       4.3       0.1       0.7       0.1       1.0
 9 H  pz              1.1       0.1       0.0       0.1       0.0       0.0
 9 H  px              0.0       0.8       0.0       0.1       0.0       0.2
 9 H  py              0.7       1.7       0.0       0.0       0.0       0.0
10 H  s              10.4       4.0       0.1       0.2       0.1       0.4
10 H  pz              2.0       0.8       0.0       0.1       0.0       0.2
10 H  px              0.3       0.3       0.3       0.5       0.2       0.1
10 H  py              0.8       0.2       0.0       0.3       0.1       0.1
11 H  s               1.6       1.7       0.4       2.8      15.0       0.4
11 H  pz              0.0       0.3       0.7       0.5       0.2       0.1
11 H  px              0.0       0.2       0.0       0.8       2.0       0.1
11 H  py              0.1       0.2       0.7       0.5       1.8       0.0
12 H  s               3.2       7.2       8.9       0.5       0.1       1.0
12 H  pz              0.2       0.1       0.1       0.0       2.1       0.0
12 H  px              0.0       0.0       0.0       0.0       0.3       0.1
12 H  py              0.7       1.3       1.3       0.0       0.1       0.4
13 H  s               0.2       0.7       3.0       0.5      17.2       5.5
13 H  pz              0.0       0.6       0.0       0.2       2.5       2.6
13 H  px              0.1       0.0       0.1       0.1       0.8       0.0
13 H  py              0.4       0.5       0.5       0.0       0.8       0.0

                     36        37        38        39        40        41   
                   0.19249   0.20630   0.21181   0.22785   0.24810   0.25515
                   0.00000   0.00000   0.00000   0.00000   0.00000   0.00000
                  --------  --------  --------  --------  --------  --------
 0 C  s               0.3       1.4       1.1       0.0       1.7       0.3
 0 C  pz             10.8       4.7      12.4       6.5       4.0       6.4
 0 C  px              3.5       5.2       5.0       1.6      10.7       0.8
 0 C  py              2.4       2.9       1.1      57.5       3.2       2.0
 0 C  dz2             0.0       0.1       0.4       0.3       0.1       0.1
 0 C  dxz             0.2       0.1       1.4       0.2       0.0       0.1
 0 C  dyz             0.0       0.1       0.1       0.1       0.0       0.2
 0 C  dx2y2           1.7       0.8       0.0       0.2       0.5       0.1
 0 C  dxy             0.6       0.0       0.5       0.0       0.3       0.3
 1 C  s               1.3       0.2       4.4       0.0       0.0       0.1
 1 C  pz              0.7       2.7      20.0       0.5       5.7      17.5
 1 C  px             11.0       1.2       1.6       0.4       6.8       4.9
 1 C  py              0.7       0.8       3.5       0.8       8.2      11.7
 1 C  dz2             0.7       0.1       0.0       0.4       0.9       0.1
 1 C  dxz             0.3       0.1       0.1       0.1       1.1       0.8
 1 C  dyz             0.1       0.0       0.0       0.2       0.0       0.8
 1 C  dx2y2           0.2       0.5       0.1       0.2       0.4       0.0
 1 C  dxy             0.6       0.2       0.2       0.1       0.0       0.0
 2 C  s               2.5       0.1       0.7       0.0       3.4       1.9
 2 C  pz              0.0       1.4       0.7       0.5       2.3       1.8
 2 C  px              4.3       0.2       1.1       0.9       0.0       1.8
 2 C  py              0.4       1.4       0.5       2.2       6.9       7.3
 2 C  dz2             0.1       0.1       0.0       0.0       0.2       0.7
 2 C  dxz             0.0       0.0       0.0       0.0       0.3       0.3
 2 C  dx2y2           0.2       0.0       0.0       0.4       0.4       0.1
 2 C  dxy             0.0       0.1       0.0       0.2       0.0       0.1
 3 O  s               0.3       0.3       0.1       0.6       2.1       0.1
 3 O  pz              0.0       0.1       0.1       0.1       1.3       0.0
 3 O  px              0.7       0.5       0.2       1.1       0.7       0.6
 3 O  py              0.3       1.0       0.3       0.7       0.3       1.9
 3 O  dz2             0.3       0.0       0.4       0.2       0.5       0.1
 3 O  dxz             0.0       1.8       1.2       0.1       0.1       0.3
 3 O  dyz             0.0       0.3       0.0       0.0       0.2       0.2
[...]
 5 C  s               0.0       0.1       0.0       0.0       0.1       1.7
 5 C  pz              0.0       1.1       0.0       0.1       0.0       0.5
 5 C  px              0.3       0.3       0.2       0.0       0.0       6.9
 5 C  py              3.6       5.9       2.2       0.1       0.3       0.5
 5 C  dz2             2.2       7.4       1.9       0.0       0.6       3.3
 5 C  dxz             0.4       0.0       0.2       0.0       0.0       1.8
 5 C  dyz             0.5       0.0       0.2       0.1       0.0       0.2
 5 C  dx2y2           3.4       5.1       2.4       0.1       1.3       3.6
 5 C  dxy             0.1       0.0       0.3       0.0       1.4       4.6
 6 H  s               1.5       0.4       3.9       0.1       0.5       0.0
 6 H  px              2.1       1.2       7.5       0.1       0.9       0.0
 6 H  py              2.2       0.1       1.1       0.2       0.2       0.0
 7 H  s               1.9       4.3       2.7       1.4       0.0       0.0
 7 H  pz              0.6       0.3       0.0       0.2       0.0       0.0
 7 H  px              0.0       0.1       0.4       0.4       0.0       0.0
 7 H  py              4.5      10.4       7.1       3.2       0.0       0.0
 8 H  s               6.7       1.1       1.8       0.9       0.2       0.0
 8 H  pz             11.0       1.9       2.8       2.1       0.4       0.0
 8 H  px              2.5       0.7       0.5       0.1       0.0       0.0
 8 H  py              2.6       0.1       2.0       0.4       0.1       0.0
 9 H  s               0.4       0.5       1.0       6.7       0.1       0.0
 9 H  pz              0.1       0.1       0.0       0.9       0.0       0.0
 9 H  px              0.1       0.0       0.0       0.6       0.1       0.0
 9 H  py              0.7       0.8       3.7      13.5       0.3       0.0
10 H  s               0.7       0.8       1.1       6.8       0.5       0.0
10 H  pz              0.8       1.1       2.4      11.5       0.8       0.0
10 H  px              0.3       0.7       1.0       1.9       0.0       0.0
10 H  py              0.1       0.1       0.7       1.6       0.1       0.0
11 H  s               1.1       0.4       0.7       0.1       0.1       0.4
11 H  pz              1.2       0.6       0.9       0.1       0.3       0.7
11 H  px              1.0       0.4       0.7       0.1       0.1       0.0
11 H  py              0.2       0.0       0.1       0.0       0.0       0.4
12 H  s               2.9       5.3       1.7       0.0       0.3       0.1
12 H  pz              0.1       0.0       0.1       0.0       0.2       0.0
12 H  px              0.0       0.1       0.0       0.0       1.4       0.1
12 H  py              7.2      13.6       4.0       0.1       0.7       0.1
13 H  s               0.3       2.3       0.3       0.0       0.2       0.4
13 H  pz              0.6       5.0       0.7       0.0       0.5       0.6
13 H  px              0.0       0.2       0.0       0.0       0.0       0.2
13 H  py              0.0       0.1       0.0       0.0       0.0       0.2

                    156       157       158       159       160       161   
                   4.29186   4.44129  21.89929  21.95877  22.03373  22.26357
                   0.00000   0.00000   0.00000   0.00000   0.00000   0.00000
                  --------  --------  --------  --------  --------  --------
 0 C  s               0.0       0.0      85.9       9.1       0.5       4.3
 1 C  s               0.0       0.0       6.4      30.1      62.5       0.6
 1 C  px              0.1       0.0       0.0       0.0       0.0       0.0
 1 C  dx2y2           0.2       0.0       0.0       0.0       0.0       0.0
 1 C  dxy             0.3       0.0       0.0       0.0       0.0       0.0
 2 C  s               2.0       6.3       2.6       2.5       0.2      93.7
 2 C  pz              0.4       0.0       0.0       0.0       0.0       0.0
 2 C  px              3.6       0.2       0.0       0.0       0.0       0.0
 2 C  py              3.1       7.2       0.0       0.0       0.0       0.1
 2 C  dz2             0.8       1.7       0.0       0.0       0.0       0.0
 2 C  dxz             0.7       0.0       0.0       0.0       0.0       0.0
 2 C  dyz             1.1       0.0       0.0       0.0       0.0       0.0
 2 C  dx2y2           0.0       4.2       0.0       0.0       0.0       0.0
 2 C  dxy            10.8       0.2       0.0       0.0       0.0       0.0
 3 O  s               0.3      18.9       0.0       0.0       0.0       0.2
 3 O  px              0.5       0.4       0.0       0.0       0.0       0.0
 3 O  py              0.1      21.7       0.0       0.0       0.0       0.2
 3 O  dz2             0.2       8.4       0.0       0.0       0.0       0.0
 3 O  dyz             0.1       0.2       0.0       0.0       0.0       0.0
 3 O  dx2y2           0.6      24.1       0.0       0.0       0.0       0.0
 3 O  dxy             2.0       1.8       0.0       0.0       0.0       0.0
 4 O  s               5.7       1.1       0.0       0.0       0.1       0.1
 4 O  pz              2.1       0.0       0.0       0.0       0.0       0.0
 4 O  px             24.3       0.3       0.0       0.0       0.0       0.1
 4 O  py              3.6       0.3       0.0       0.0       0.0       0.0
 4 O  dz2             1.4       0.6       0.0       0.0       0.0       0.0
 4 O  dxz             0.8       0.3       0.0       0.0       0.0       0.0
 4 O  dyz             2.6       0.0       0.0       0.0       0.0       0.0
 4 O  dx2y2           0.2       0.6       0.0       0.0       0.0       0.0
 4 O  dxy            25.0       0.1       0.0       0.0       0.0       0.0
 5 C  s               0.6       0.2       4.7      58.0      36.5       0.4
 5 C  px              1.5       0.2       0.0       0.0       0.0       0.0
 5 C  py              0.5       0.0       0.0       0.0       0.0       0.0
 5 C  dz2             0.2       0.0       0.0       0.0       0.0       0.0
 5 C  dxz             0.3       0.0       0.0       0.0       0.0       0.0
 5 C  dx2y2           1.8       0.1       0.0       0.0       0.0       0.0
 5 C  dxy             0.8       0.2       0.0       0.0       0.0       0.0
12 H  s               0.2       0.0       0.0       0.0       0.0       0.0
12 H  py              0.3       0.0       0.0       0.0       0.0       0.0

                    162       163   
                  43.68189  43.70462
                   0.00000   0.00000
                  --------  --------
 3 O  s              95.7       4.2
 4 O  s               4.2      95.7


                      *****************************
                      * MAYER POPULATION ANALYSIS *
                      *****************************

  NA   - Mulliken gross atomic population
  ZA   - Total nuclear charge
  QA   - Mulliken gross atomic charge
  VA   - Mayer's total valence
  BVA  - Mayer's bonded valence
  FA   - Mayer's free valence

  ATOM       NA         ZA         QA         VA         BVA        FA
  0 C      6.4660     6.0000    -0.4660     3.8224     3.8224    -0.0000
  1 C      6.2889     6.0000    -0.2889     3.7767     3.7767    -0.0000
  2 C      5.5747     6.0000     0.4253     3.7459     3.7459    -0.0000
  3 O      8.4326     8.0000    -0.4326     1.9600     1.9600     0.0000
  4 O      8.1935     8.0000    -0.1935     1.9331     1.9331     0.0000
  5 C      6.3098     6.0000    -0.3098     3.7408     3.7408     0.0000
  6 H      0.8475     1.0000     0.1525     0.9607     0.9607    -0.0000
  7 H      0.8328     1.0000     0.1672     0.9592     0.9592    -0.0000
  8 H      0.8519     1.0000     0.1481     0.9637     0.9637    -0.0000
  9 H      0.8428     1.0000     0.1572     0.9616     0.9616    -0.0000
 10 H      0.8414     1.0000     0.1586     0.9598     0.9598    -0.0000
 11 H      0.8535     1.0000     0.1465     0.9580     0.9580     0.0000
 12 H      0.8111     1.0000     0.1889     0.9597     0.9597    -0.0000
 13 H      0.8535     1.0000     0.1465     0.9579     0.9579     0.0000

  Mayer bond orders larger than 0.100000
B(  0-C ,  1-C ) :   0.9000 B(  0-C ,  6-H ) :   0.9708 B(  0-C ,  7-H ) :   0.9750 
B(  0-C ,  8-H ) :   0.9752 B(  1-C ,  2-C ) :   0.9609 B(  1-C ,  9-H ) :   0.9757 
B(  1-C , 10-H ) :   0.9620 B(  2-C ,  3-O ) :   1.8497 B(  2-C ,  4-O ) :   1.0395 
B(  4-O ,  5-C ) :   0.8477 B(  5-C , 11-H ) :   0.9650 B(  5-C , 12-H ) :   0.9676 
B(  5-C , 13-H ) :   0.9638 

-------
TIMINGS
-------

Total SCF time: 0 days 0 hours 0 min 10 sec 

Total time                  ....      10.013 sec
Sum of individual times     ....       9.976 sec  ( 99.6%)

SCF preparation             ....       0.053 sec  (  0.5%)
Fock matrix formation       ....       9.756 sec  ( 97.4%)
  Startup                   ....       0.003 sec  (  0.0% of F)
  Split-RI-J                ....       1.773 sec  ( 18.2% of F)
  XC integration            ....       7.956 sec  ( 81.5% of F)
    XC Preparation          ....       0.000 sec  (  0.0% of XC)
    Basis function eval.    ....       1.476 sec  ( 18.5% of XC)
    Density eval.           ....       2.641 sec  ( 33.2% of XC)
    XC-Functional eval.     ....       1.176 sec  ( 14.8% of XC)
    XC-Potential eval.      ....       2.456 sec  ( 30.9% of XC)
Diagonalization             ....       0.000 sec  (  0.0%)
Density matrix formation    ....       0.014 sec  (  0.1%)
Total Energy calculation    ....       0.001 sec  (  0.0%)
Population analysis         ....       0.074 sec  (  0.7%)
Orbital Transformation      ....       0.010 sec  (  0.1%)
Orbital Orthonormalization  ....       0.000 sec  (  0.0%)
DIIS solution               ....       0.064 sec  (  0.6%)
  MO trafo                  ....       0.000 sec  (  0.0 % of DIIS)
  Orb grad                  ....       0.000 sec  (  0.0 % of DIIS)
  Energy W gradient         ....       0.000 sec  (  0.0 % of DIIS)
  DIIS error                ....       0.007 sec  ( 11.5 % of DIIS)
  DIIS work                 ....       0.051 sec  ( 78.8 % of DIIS)
  Form Q                    ....       0.000 sec  (  0.0 % of DIIS)
  Form QpQm                 ....       0.000 sec  (  0.0 % of DIIS)
  Exp/Cayley                ....       0.000 sec  (  0.0 % of DIIS)
  Orb update                ....       0.000 sec  (  0.0 % of DIIS)
  Wake-sleep                ....       0.001 sec  (  1.5 % of DIIS)
SOSCF solution              ....       0.004 sec  (  0.0%)
  MO trafo                  ....       0.004 sec  ( 98.5 % of SOSCF)
  Orb grad                  ....       0.000 sec  (  0.0 % of SOSCF)
  Rot update                ....       0.000 sec  (  0.0 % of SOSCF)
  Step                      ....       0.000 sec  (  0.0 % of SOSCF)
Finished LeanSCF after  10.0 sec

Maximum memory used throughout the entire LEANSCF-calculation: 17.2 MB


-------------------------------------------------------------------------------
                          DFT DISPERSION CORRECTION                            
                                                                               
                                DFTD4 V3.4.0                                   
-------------------------------------------------------------------------------
The R2SCAN3C composite method is recognized
Using three-body term ABC
Active option DFTDOPT                   ...         5   

-------------------------   ----------------
Dispersion correction           -0.002980828
-------------------------   ----------------

------------------   -----------------
gCP correction             0.009533153
------------------   -----------------

-------------------------   --------------------
FINAL SINGLE POINT ENERGY      -307.630421423612
-------------------------   --------------------


------------------------------------------------------------------------------
                              ORCA PROPERTY CALCULATIONS
------------------------------------------------------------------------------

GBWName                                 ... sp.gbw
Number of atoms                         ...     14
Number of basis functions               ...    164
Max core memory                         ...   1024 MB

Electric properties:
Dipole moment                           ... YES
Quadrupole moment                       ...  NO
Static polarizability (Dipole/Dipole)   ...  NO
Static polarizability (Dipole/Quad.)    ...  NO
Static polarizability (Quad./Quad.)     ...  NO
Static polarizability (Velocity)        ...  NO

Atomic electric properties:
Dipole moment                           ...  NO
Quadrupole moment                       ...  NO
Static polarizability                   ...  NO

Choice of electric origin               ... Center of mass
Position of electric origin             ...    -0.000015     0.000012     0.000007

General magnetic properties:
Magnetizability                         ...  NO

EPR properties:
g-Tensor (aka g-matrix)                 ...  NO
Zero-Field splitting spin-orbit         ...  NO
Zero-field splitting spin-spin          ...  NO
Hyperfine couplings                     ...  NO (   0 nuclei)
Quadrupole couplings                    ...  NO (   0 nuclei)
Contact density                         ...  NO (   0 nuclei)

NMR properties:
Chemical shifts                         ...  NO (   0 nuclei)
Spin-rotation constants                 ...  NO (   0 nuclei)
Spin-spin couplings                     ...  NO (   0 nuclei,    0 pairs)

Choice of magnetic origin               ... GIAO
Position of magnetic origin             ...     0.000000     0.000000     0.000000

Properties with geometric perturbations:
SCF Hessian                             ...  NO
IR spectrum                             ...  NO
VCD spectrum                            ...  NO
X-ray spectroscopy properties:
SCF XES/XAS/RIXS spectra                ...  NO


-------------
DIPOLE MOMENT
-------------

Method             : SCF
Type of density    : Electron Density
Multiplicity       :   1
Irrep              :   0
Energy             :  -307.6369737491983187 Eh
Relativity type    : 
Basis              : AO
                                X                 Y                 Z
Electronic contribution:      2.473160681      -1.648369108      -1.739201366
Nuclear contribution   :     -2.380170757       2.357568833       1.895999788
                        -----------------------------------------
Total Dipole Moment    :      0.092989924       0.709199725       0.156798422
                        -----------------------------------------
Magnitude (a.u.)       :      0.732254820
Magnitude (Debye)      :      1.861243837



--------------------
Rotational spectrum 
--------------------
 
Rotational constants in cm-1:             0.242424             0.076667             0.066873 
Rotational constants in MHz :          7267.694259          2298.425696          2004.798520 

Dipole components along the rotational axes: 
x,y,z [a.u.] :     0.054362     0.729170    -0.039414 
x,y,z [Debye]:     0.138177     1.853402    -0.100182 

 

Dipole moment calculation done in   0.0 sec 

Maximum memory used throughout the entire PROP-calculation: 9.9 MB

--------------------------------
SUGGESTED CITATIONS FOR THIS RUN
--------------------------------

Below you find a list of papers that are relevant to this ORCA run
We neither can nor want to force you to cite these papers, but we appreciate if you do
You receive ORCA, which is the product of decades of hard work by many enthusiastic individuals, for free
The only thing we kindly ask in return is that you cite our papers,
We deeply appreciate it, if you show your appreciation for ORCA by not just citing the generic ORCA reference.

Please note that relegating all ORCA citations to the supporting information does *not* help us.
SI sections are not indexed - citations you put there will not count into any citation statistics
But we need these citations in order to attract the funding resources that allow us to do what we are doing

Therefore, if you are a happy ORCA user, please consider citing a few of the papers listed below in the main body of your paper

In addition to the list printed below, the program has created the file sp.bibtex that contains the list in bibtex format
You can import this file easily into all common literature databanks and citation aid programs


List of essential papers. We consider these as the minimum necessary citations

  1. Neese,F.
     Software update: the ORCA program system, version 5.0
     WIRES Comput. Molec. Sci., 2022 12(1)e1606
     doi.org/10.1002/wcms.1606
  2. Grimme,S.; Hansen,A.; Ehlert,S.; Mewes,J.
     r2SCAN-3c: A 'Swiss army knife' composite electronic-structure method
     J. Chem. Phys., 2021 154 064103
     doi.org/10.1063/5.0040021

List of papers to cite with high priority. The work reported in these papers was absolutely
necessary for this run to complete.
Our perspective: the developers of density functionals and basis sets usually get cited in chemistry papers
Good! But without the algorithms to do something with them, the functionals or basis sets would not do anything.
Hence, in our opinion, the algorithm design and method developments papers are equally worthy of getting cited

  1. Neese,F.
     An improvement of the resolution of the identity approximation for the formation of the Coulomb matrix
     J. Comp. Chem., 2003 24(14)1740-1747
     doi.org/10.1002/jcc.10318
  2. Neese,F.
     The SHARK Integral Generation and Digestion System
     J. Comp. Chem., 2022  1-16
     doi.org/10.1002/jcc.26942
  3. Lehtola,S.; Steigemann,C.; Oliveira,M.; Marques,M.
     Recent developments in Libxc - A comprehensive library of functionals for density functional theory
     Software X, 2018 7 
     doi.org/10.1016/j.softx.2017.11.002
  4. Caldeweyher,E.; Bannwarth,C.; Grimme,S.
     Extension of the D3 dispersion coefficient model
     J. Chem. Phys., 2017 147 034112
     doi.org/10.1063/1.4993215
  5. Caldeweyher,E.; Ehlert,S.; Hansen,A.; Neugebauer,H.; Spicher,S.; Bannwarth,C.; Grimme,S.
     A generally applicable atomic-charge dependent London dispersion correction
     J. Chem. Phys., 2019 150 154122
     doi.org/10.1063/1.5090222
  6. Caldeweyher,E.; Mewes,J.; Ehlert,S.; Grimme,S.
     Extension and evaluation of the D4 London-dispersion model for periodic systems
     Phys. Chem. Chem. Phys., 2020 22(16)8499-8512
     doi.org/10.1039/D0CP00502A
  7. Wittmann,L.; Gordiy,I.; Friede,M.; Helmich-Paris,B.; Grimme,S.; Hansen,A.; Bursch,M.
     Extension of the D3 and D4 London Dispersion Corrections to the full Actinides Series
     Phys. Chem. Chem. Phys., 2024 26(32)21379-21394
     doi.org/https://doi.org/10.1039/D4CP01514B 

List of suggested additional citations. These are papers that are important in the 'surrounding' of 
of this run, or papers that preceded the highly important papers. If you like your results we are grateful for a citation.

  1. Neese,F.
     The ORCA program system
     WIRES Comput. Molec. Sci., 2012 2(1)73-78
     doi.org/10.1002/wcms.81
  2. Neese,F.
     Software update: the ORCA program system, version 4.0
     WIRES Comput. Molec. Sci., 2018 8(1)1-6
     doi.org/10.1002/wcms.1327
  3. Neese,F.; Wennmohs,F.; Becker,U.; Riplinger,C.
     The ORCA quantum chemistry program package
     J. Chem. Phys., 2020 152 Art. No. L224108
     doi.org/10.1063/5.0004608

List of optional additional citations

  1. Neese,F.
     Approximate second-order SCF convergence for spin unrestricted wavefunctions
     Chem. Phys. Lett., 2000 325(1-3)93-98
     doi.org/10.1016/s0009-2614(00)00662-x

Timings for individual modules:

Sum of individual times          ...       10.876 sec (=   0.181 min)
Startup calculation              ...        0.633 sec (=   0.011 min)   5.8 %
SCF iterations                   ...       10.197 sec (=   0.170 min)  93.8 %
Property calculations            ...        0.046 sec (=   0.001 min)   0.4 %
                             ****ORCA TERMINATED NORMALLY****
TOTAL RUN TIME: 0 days 0 hours 0 minutes 11 seconds 17 msec
