
                                 *****************
                                 * O   R   C   A *
                                 *****************

                                            #,                                       
                                            ###                                      
                                            ####                                     
                                            #####                                    
                                            ######                                   
                                           ########,                                 
                                     ,,################,,,,,                         
                               ,,#################################,,                 
                          ,,##########################################,,             
                       ,#########################################, ''#####,          
                    ,#############################################,,   '####,        
                  ,##################################################,,,,####,       
                ,###########''''           ''''###############################       
              ,#####''   ,,,,##########,,,,          '''####'''          '####       
            ,##' ,,,,###########################,,,                        '##       
           ' ,,###''''                  '''############,,,                           
         ,,##''                                '''############,,,,        ,,,,,,###''
      ,#''                                            '''#######################'''  
     '                                                          ''''####''''         
             ,#######,   #######,   ,#######,      ##                                
            ,#'     '#,  ##    ##  ,#'     '#,    #''#        ,####,   ,####,        
            ##       ##  ##   ,#'  ##            #'  '#       #'       #'  '#        
            ##       ##  #######   ##           ,######,      #####,   #    #        
            '#,     ,#'  ##    ##  '#,     ,#' ,#      #,     #,   #   #,  ,#        
             '#######'   ##     ##  '#######'  #'      '#     '####' # '####'        



                #########################################################
                #                        -***-                          #
                #          Department of theory and spectroscopy        #
                #                                                       #
                #                      Frank Neese                      #
                #                                                       #
                #     Directorship, Architecture, Infrastructure        #
                #                    SHARK, DRIVERS                     #
                #        Core code/Algorithms in most modules           #
                #                                                       #
                #        Max Planck Institute fuer Kohlenforschung      #
                #                Kaiser Wilhelm Platz 1                 #
                #                 D-45470 Muelheim/Ruhr                 #
                #                      Germany                          #
                #                                                       #
                #                  All rights reserved                  #
                #                        -***-                          #
                #########################################################


                         Program Version 6.0.1  -  RELEASE   -


 With contributions from (in alphabetic order):
[Max-Planck-Institut fuer Kohlenforschung]                               
  Daniel Aravena         : Magnetic Suceptibility                        
  Michael Atanasov       : Ab Initio Ligand Field Theory (pilot matlab implementation)
  Alexander A. Auer      : GIAO ZORA, VPT2 properties, NMR spectrum      
  Ute Becker             : All parallelization in ORCA, NUMFREQ, NUMCALC 
  Giovanni Bistoni       : ED, misc. LED, open-shell LED, HFLD           
  Martin Brehm           : Molecular dynamics                            
  Dmytro Bykov           : pre 5.0 version of the SCF Hessian            
  Marcos Casanova-Páez   : Triplet and SCS-CIS(D). UHF-(DLPNO)-IP/EA/STEOM-CCSD. UHF-CVS-IP/STEOM-CCSD   
  Vijay G. Chilkuri      : MRCI spin determinant printing, contributions to CSF-ICE 
  Pauline Colinet        : FMM embedding                                 
  Dipayan Datta          : RHF DLPNO-CCSD density                        
  Achintya Kumar Dutta   : EOM-CC, STEOM-CC                              
  Nicolas Foglia         : Exact transition moments, OPA infrastructure, MCD improvements    
  Dmitry Ganyushin       : Spin-Orbit,Spin-Spin,Magnetic field MRCI      
  Miquel Garcia-Rates    : C-PCM and meta-GGA Hessian, CCSD/C-PCM, Gaussian charge scheme 
  Tiago L. C. Gouveia    : GS-ROHF, GS-ROCIS                             
  Yang Guo               : DLPNO-NEVPT2, F12-NEVPT2, CIM, IAO-localization        
  Andreas Hansen         : Spin unrestricted coupled pair/coupled cluster methods 
  Ingolf Harden          : AUTO-CI MPn and infrastructure                
  Benjamin Helmich-Paris : MC-RPA, TRAH-(SCF,CASSCF), AVAS, COSX integrals, SCF dyn. polar. 
  Lee Huntington         : MR-EOM, pCC                                   
  Robert Izsak           : Overlap fitted RIJCOSX, COSX-SCS-MP3, EOM     
  Riya Kayal             : Wick's Theorem for AUTO-CI, AUTO-CI UHF-CCSDT 
  Emily Kempfer          : AUTO-CI, RHF CISDT and CCSDT                  
  Christian Kollmar      : KDIIS, OOCD, Brueckner-CCSD(T), CCSD density, CASPT2, CASPT2-K, improved NEVPT2 
  Axel Koslowski         : Symmetry handling                             
  Simone Kossmann        : meta-GGA functionals, TD-DFT gradient, OOMP2, (MP2 Hessian; deprecated post 5.0) 
  Lucas Lang             : DCDCAS                                        
  Marvin Lechner         : AUTO-CI (C++ implementation), FIC-MRCC        
  Spencer Leger          : CASSCF response                               
  Dagmar Lenk            : GEPOL surface, SMD, ORCA-2-JSON               
  Dimitrios Liakos       : Extrapolation schemes; Compound Job, initial MDCI parallelization 
  Dimitrios Manganas     : Further ROCIS development; embedding schemes. LFT, Crystal Embedding 
  Dimitrios Pantazis     : SARC Basis sets                               
  Anastasios Papadopoulos: AUTO-CI, single reference methods and gradients 
  Taras Petrenko         : pre 6.0 DFT Hessian and TD-DFT gradient, (ASA, deprecated), ECA, 1-Electron XAS/XES, NRVS 
  Peter Pinski           : DLPNO-MP2, DLPNO-MP2 Gradient                 
  Christoph Reimann      : Effective Core Potentials                     
  Marius Retegan         : Local ZFS, SOC                                
  Christoph Riplinger    : Optimizer, TS searches, QM/MM, DLPNO-CCSD(T), (RO)-DLPNO pert. Triples 
  Michael Roemelt        : Original ROCIS implementation                 
  Masaaki Saitow         : Open-shell DLPNO-CCSD energy and density      
  Barbara Sandhoefer     : DKH picture change effects                    
  Kantharuban Sivalingam : CASSCF convergence/infrastructure, NEVPT2 and variants, FIC-MRCI 
  Bernardo de Souza      : ESD, SOC TD-DFT                               
  Georgi L. Stoychev     : AutoAux, RI-MP2 NMR, DLPNO-MP2 response, X2C  
  Van Anh Tran           : RI-MP2 g-tensors                              
  Willem Van den Heuvel  : Paramagnetic NMR                              
  Zikuan Wang            : NOTCH, Electric field optimization            
  Frank Wennmohs         : Technical directorship and infrastructure     
  Hang Xu                : AUTO-CI-Response properties                   
                                                                         
[FACCTs GmbH]                                                            
  Markus Bursch, Miquel Garcia-Rates, Christoph Riplinger, Bernardo de Souza, Georgi L. Stoychev 
                                                                 
  APM, Basis sets (HGBS, AHGBS, def-TZVP (Ac-Lr), def2-XVPD (La-Lu)), CI-OPT, improved COSX, DLPNO-Multilevel,           
  DOCKER, DRACO, updates on ESD, GOAT, IRC, LR-CPCM, MBIS, meta-GGA TD-DFT gradient, ML-optimized integration grids, 
  MM, NACMEs, nearIR, NEB, NEB-TS, NL-DFT gradient (VV10), 2- and 3-layer-ONIOM, interface openCOSMO-RS, QMMM,   
  Crystal-QMMM, SF, symmetry and pop. for TD-DFT, r2SCAN hybrids, SOLVATOR                                   
                                                                         
[Other institutions]                                                     
  V. Asgeirsson          : NEB                                           
  Christoph Bannwarth    : sTDA-DFT, sTD-DFT, PBEh-3c, B97-3c, D3        
  Sebastian Ehlert       : rSCAN, r2SCAN, r2SCAN-3c, D4, dhf basis sets  
  Marvin Friede          : D4 for Fr, Ra, Ac-Lr                          
  Lars Goerigk           : TD-DFT with DH, B97 family of functionals     
  Stefan Grimme          : VdW corrections, initial TS optimization, DFT functionals, gCP, sTDA/sTD-DF 
  Waldemar Hujo          : DFT-NL                                        
  H. Jonsson             : NEB                                           
  Holger Kruse           : gCP                                           
  Marcel Mueller         : wB97X-3c, vDZP basis set                      
  Hagen Neugebauer       : wr2SCAN                                       
  Tobias Risthaus        : range-separated hybrid DFT                    
  Lukas Wittmann         : regularized MP2, r2SCAN double-hybrids, wr2SCAN        
                                                                         
We gratefully acknowledge several colleagues who have allowed us to      
interface, adapt or use parts of their codes:                            
  Ed Valeev, F. Pavosevic, A. Kumar             : LibInt (2-el integral package), F12 methods 
  Garnet Chan, S. Sharma, J. Yang, R. Olivares  : DMRG                   
  Ulf Ekstrom                                   : XCFun DFT Library      
  Mihaly Kallay                                 : mrcc  (arbitrary order and MRCC methods)
  Frank Weinhold                                : gennbo (NPA and NBO analysis)           
  Simon Mueller                                 : openCOSMO-RS                            
  Christopher J. Cramer and Donald G. Truhlar   : smd solvation model                     
  S Lehtola, MJT Oliveira, MAL Marques          : LibXC Library                           
  Liviu Ungur et al                             : ANISO software                          


 Your calculation uses the libint2 library for the computation of 2-el integrals
 For citations please refer to: http://libint.valeyev.net

 Your ORCA version has been built with support for libXC version: 6.2.2
 For citations please refer to: https://libxc.gitlab.io

 This ORCA versions uses:
   CBLAS   interface :  Fast vector & matrix operations
   LAPACKE interface :  Fast linear algebra routines
   SCALAPACK package :  Parallel linear algebra routines
   Shared memory     :  Shared parallel matrices
   BLAS/LAPACK       :  OpenBLAS 0.3.27  USE64BITINT DYNAMIC_ARCH NO_AFFINITY Zen SINGLE_THREADED
        Core in use  :  Zen
   Copyright (c) 2011-2014, The OpenBLAS Project


Your calculation utilizes the geometrical counterpoise correction gCP
Please cite in your paper:
H.Kruse, S. Grimme J.Chem.Phys., 136, (2012), 154101 
   

Your calculation utilizes the atom-pairwise dispersion correction
based on EEQ partial charges (D4)


================================================================================

----- Orbital basis set information -----
Your calculation utilizes the basis: def2-SV(P)
   F. Weigend and R. Ahlrichs, Phys. Chem. Chem. Phys. 7, 3297 (2005).

----- AuxJ basis set information -----
Your calculation utilizes the auxiliary basis: def2/J
   F. Weigend, Phys. Chem. Chem. Phys. 8, 1057 (2006).

================================================================================
                                        WARNINGS
                       Please study these warnings very carefully!
================================================================================

WARNING: Old DensityContainer found on disk!
         Will remove this file - 
         If you want to keep old densities, please start your calculation with a different basename. 


================================================================================
                                       INPUT FILE
================================================================================
NAME = sp.inp
|  1> ! pbe def2-sv(p) def2/J RI DEFGRID1 loosescf d4 GCP(DFT/SV(P)) printgap
|  2> %output
|  3>     printlevel normal
|  4> end
|  5> * xyz 0 1
|  6> C -1.1066192576 -0.0185172301 -0.0478507653
|  7> C -0.0185124843 1.1065712536 0.048069069
|  8> C 1.1066124587 0.0185103977 -0.0478625945
|  9> C 0.0185138182 -1.1065940331 0.0482147068
| 10> F 0.0295459065 -1.7609470784 1.2125201812
| 11> F 0.0334121251 -2.0028981989 -0.9380041213
| 12> F 2.0034646135 0.0335346929 0.9379428466
| 13> F 1.7604615101 0.0293920535 -1.2126037266
| 14> F -0.0334328497 2.003056171 -0.9380161189
| 15> F -0.0295205315 1.7608598404 1.212437743
| 16> F -1.7604610423 -0.0296595173 -1.2125938644
| 17> F -2.0034662767 -0.0333192423 0.937956437
| 18> *
| 19> 
| 20>                          ****END OF INPUT****
================================================================================

                       ****************************
                       * Single Point Calculation *
                       ****************************

---------------------------------
CARTESIAN COORDINATES (ANGSTROEM)
---------------------------------
  C     -1.106619   -0.018517   -0.047851
  C     -0.018512    1.106571    0.048069
  C      1.106612    0.018510   -0.047863
  C      0.018514   -1.106594    0.048215
  F      0.029546   -1.760947    1.212520
  F      0.033412   -2.002898   -0.938004
  F      2.003465    0.033535    0.937943
  F      1.760462    0.029392   -1.212604
  F     -0.033433    2.003056   -0.938016
  F     -0.029521    1.760860    1.212438
  F     -1.760461   -0.029660   -1.212594
  F     -2.003466   -0.033319    0.937956

----------------------------
CARTESIAN COORDINATES (A.U.)
----------------------------
  NO LB      ZA    FRAG     MASS         X           Y           Z
   0 C     6.0000    0    12.011   -2.091207   -0.034992   -0.090425
   1 C     6.0000    0    12.011   -0.034984    2.091117    0.090837
   2 C     6.0000    0    12.011    2.091194    0.034980   -0.090447
   3 C     6.0000    0    12.011    0.034986   -2.091160    0.091113
   4 F     9.0000    0    18.998    0.055834   -3.327708    2.291331
   5 F     9.0000    0    18.998    0.063140   -3.784929   -1.772571
   6 F     9.0000    0    18.998    3.785999    0.063371    1.772455
   7 F     9.0000    0    18.998    3.326790    0.055543   -2.291489
   8 F     9.0000    0    18.998   -0.063179    3.785228   -1.772594
   9 F     9.0000    0    18.998   -0.055786    3.327543    2.291175
  10 F     9.0000    0    18.998   -3.326789   -0.056048   -2.291470
  11 F     9.0000    0    18.998   -3.786003   -0.062964    1.772481

--------------------------------
INTERNAL COORDINATES (ANGSTROEM)
--------------------------------
 C      0   0   0     0.000000000000     0.00000000     0.00000000
 C      1   0   0     1.568120231637     0.00000000     0.00000000
 C      2   1   0     1.568115253278    89.78772223     0.00000000
 C      3   2   1     1.568135669988    89.78373366   352.99355543
 F      4   3   2     1.335629758797   113.52730881   251.29439799
 F      4   3   2     1.332745547386   115.43123614   125.27612390
 F      3   2   1     1.332809770642   115.45097339   234.69449977
 F      3   2   1     1.335761542063   113.50974035   108.67659393
 F      2   1   3     1.332768480354   115.44114654   118.28514840
 F      2   1   3     1.335653076556   113.52013254   244.29737216
 F      1   2   3     1.335761848866   113.51413513   251.32848477
 F      1   2   3     1.332805130295   115.44512229   125.31108984

---------------------------
INTERNAL COORDINATES (A.U.)
---------------------------
 C      0   0   0     0.000000000000     0.00000000     0.00000000
 C      1   0   0     2.963317782854     0.00000000     0.00000000
 C      2   1   0     2.963308375121    89.78772223     0.00000000
 C      3   2   1     2.963346957111    89.78373366   352.99355543
 F      4   3   2     2.523974460441   113.52730881   251.29439799
 F      4   3   2     2.518524090763   115.43123614   125.27612390
 F      3   2   1     2.518645455127   115.45097339   234.69449977
 F      3   2   1     2.524223494724   113.50974035   108.67659393
 F      2   1   3     2.518567427791   115.44114654   118.28514840
 F      2   1   3     2.524018524619   113.52013254   244.29737216
 F      1   2   3     2.524224074496   113.51413513   251.32848477
 F      1   2   3     2.518636686143   115.44512229   125.31108984

---------------------
BASIS SET INFORMATION
---------------------
There are 2 groups of distinct atoms

 Group   1 Type C   : 7s4p1d contracted to 3s2p1d pattern {511/31/1}
 Group   2 Type F   : 7s4p1d contracted to 3s2p1d pattern {511/31/1}

Atom   0C    basis set group =>   1
Atom   1C    basis set group =>   1
Atom   2C    basis set group =>   1
Atom   3C    basis set group =>   1
Atom   4F    basis set group =>   2
Atom   5F    basis set group =>   2
Atom   6F    basis set group =>   2
Atom   7F    basis set group =>   2
Atom   8F    basis set group =>   2
Atom   9F    basis set group =>   2
Atom  10F    basis set group =>   2
Atom  11F    basis set group =>   2
---------------------------------
AUXILIARY/J BASIS SET INFORMATION
---------------------------------
There are 2 groups of distinct atoms

 Group   1 Type C   : 12s5p4d2f1g contracted to 6s4p3d1f1g pattern {711111/2111/211/2/1}
 Group   2 Type F   : 12s5p4d2f1g contracted to 6s4p3d1f1g pattern {711111/2111/211/2/1}

Atom   0C    basis set group =>   1
Atom   1C    basis set group =>   1
Atom   2C    basis set group =>   1
Atom   3C    basis set group =>   1
Atom   4F    basis set group =>   2
Atom   5F    basis set group =>   2
Atom   6F    basis set group =>   2
Atom   7F    basis set group =>   2
Atom   8F    basis set group =>   2
Atom   9F    basis set group =>   2
Atom  10F    basis set group =>   2
Atom  11F    basis set group =>   2

Checking for AutoStart:
The File: sp.gbw exists
Trying to determine its content:
     ... Fine, the file contains calculation information
     ... Fine, the calculation information was read
     ... Fine, the file contains a basis set
     ... Fine, the basis set was read
     ... Fine, the file contains a geometry
     ... Fine, the geometry was read
     ... Fine, the file contains a set of orbitals
     ... Fine, the orbitals can be read
     => possible old guess file was deleted
     => GBW file was renamed to GES file
     => GES file is set as startup file
     => Guess is set to MORead
     ... now leaving AutoStart

------------------------------------------------------------------------------
                             ORCA STARTUP CALCULATIONS
                           -- RI-GTO INTEGRALS CHOSEN --
------------------------------------------------------------------------------
------------------------------------------------------------------------------
                   ___                                                        
                  /   \      - P O W E R E D   B Y -                         
                 /     \                                                     
                 |  |  |   _    _      __       _____    __    __             
                 |  |  |  | |  | |    /  \     |  _  \  |  |  /  |          
                  \  \/   | |  | |   /    \    | | | |  |  | /  /          
                 / \  \   | |__| |  /  /\  \   | |_| |  |  |/  /          
                |  |  |   |  __  | /  /__\  \  |    /   |      \           
                |  |  |   | |  | | |   __   |  |    \   |  |\   \          
                \     /   | |  | | |  |  |  |  | |\  \  |  | \   \       
                 \___/    |_|  |_| |__|  |__|  |_| \__\ |__|  \__/        
                                                                              
                      - O R C A' S   B I G   F R I E N D -                    
                                      &                                       
                       - I N T E G R A L  F E E D E R -                       
                                                                              
 v1 FN, 2020, v2 2021, v3 2022-2024                                           
------------------------------------------------------------------------------


----------------------
SHARK INTEGRAL PACKAGE
----------------------

Number of atoms                             ...     12
Number of basis functions                   ...    168
Number of shells                            ...     72
Maximum angular momentum                    ...      2
Integral batch strategy                     ... SHARK/LIBINT Hybrid
RI-J (if used) integral strategy            ... SPLIT-RIJ (Revised 2003 algorithm where possible)
Printlevel                                  ...      1
Contraction scheme used                     ... SEGMENTED contraction
Prescreening option                         ... SCHWARTZ
   Thresh                                   ... 1.000e-09
   Tcut                                     ... 1.000e-10
   Tpresel                                  ... 1.000e-10 
Coulomb Range Separation                    ... NOT USED
Exchange Range Separation                   ... NOT USED
Multipole approximations                    ... NOT USED
Finite Nucleus Model                        ... NOT USED
CABS basis                                  ... NOT available
Auxiliary Coulomb fitting basis             ... AVAILABLE
   # of basis functions in Aux-J            ...    588
   # of shells in Aux-J                     ...    180
   Maximum angular momentum in Aux-J        ...      4
Auxiliary J/K fitting basis                 ... NOT available
Auxiliary Correlation fitting basis         ... NOT available
Auxiliary 'external' fitting basis          ... NOT available

Checking pre-screening integrals            ... done (  0.0 sec) Dimension = 72
Check shell pair data                       ... done (  0.0 sec)
Shell pair information
Shell pair cut-off parameter TPreSel        ...   1.0e-10
Total number of shell pairs                 ...      2628
Shell pairs after pre-screening             ...      2278
Total number of primitive shell pairs       ...     10596
Primitive shell pairs kept                  ...      6188
          la=0 lb=0:    548 shell pairs
          la=1 lb=0:    776 shell pairs
          la=1 lb=1:    284 shell pairs
          la=2 lb=0:    348 shell pairs
          la=2 lb=1:    256 shell pairs
          la=2 lb=2:     66 shell pairs

Calculating one electron integrals          ... done (  0.0 sec)
Calculating RI/J V-Matrix + Cholesky decomp.... done (  0.0 sec)
Calculating Nuclear repulsion               ... done (  0.0 sec) ENN=    888.357755966081 Eh

Diagonalization of the overlap matrix:
Smallest eigenvalue                        ... 1.491e-04
Time for diagonalization                   ...    0.002 sec
Threshold for overlap eigenvalues          ... 1.000e-07
Number of eigenvalues below threshold      ... 0
Time for construction of square roots      ...    0.001 sec
Total time needed                          ...    0.004 sec

-------------------
DFT GRID GENERATION
-------------------

General Integration Accuracy     IntAcc      ... 4.159
Radial Grid Type                 RadialGrid  ... OptM3 with GC (2021)
Angular Grid (max. ang.)         AngularGrid ... 3 (Lebedev-194)
Angular grid pruning method      GridPruning ... 4 (adaptive)
Weight generation scheme         WeightScheme... mBecke (2022)
Basis function cutoff            BFCut       ... 1.0000e-10
Integration weight cutoff        WCut        ... 1.0000e-14
Partially contracted basis set               ... off
Rotationally invariant grid construction     ... off
Angular grids for H and He will be reduced by one unit

Total number of grid points                  ...    39712
Total number of batches                      ...      628
Average number of points per batch           ...       63
Average number of grid points per atom       ...     3309
Initializing property integral containers    ... done (  0.0 sec)

SHARK setup successfully completed in   0.2 seconds

Maximum memory used throughout the entire STARTUP-calculation: 20.5 MB
-------------------------------------------------------------------------------
                                 ORCA GUESS
                   Start orbitals & Density for SCF / CASSCF
-------------------------------------------------------------------------------

------------
SCF SETTINGS
------------
Hamiltonian:
 Density Functional     Method          .... DFT(GTOs)
 Exchange Functional    Exchange        .... PBE
   PBE kappa parameter   XKappa         ....  0.804000
   PBE mue parameter    XMuePBE         ....  0.219520
 Correlation Functional Correlation     .... PBE
   PBE beta parameter  CBetaPBE         ....  0.066725
 LDA part of GGA corr.  LDAOpt          .... PW91-LDA
 Gradients option       PostSCFGGA      .... off
   NL short-range parameter             ....  6.400000
 RI-approximation to the Coulomb term is turned on
   Number of AuxJ basis functions       .... 588


General Settings:
 Integral files         IntName         .... sp
 Hartree-Fock type      HFTyp           .... RHF
 Total Charge           Charge          ....    0
 Multiplicity           Mult            ....    1
 Number of Electrons    NEL             ....   96
 Basis Dimension        Dim             ....  168
 Nuclear Repulsion      ENuc            ....    888.3577559661 Eh

Convergence Acceleration:
 AO-DIIS                CNVDIIS         .... on
   Start iteration      DIISMaxIt       ....    12
   Startup error        DIISStart       ....  0.200000
   # of expansion vecs  DIISMaxEq       ....     5
   Bias factor          DIISBfac        ....   1.050
   Max. coefficient     DIISMaxC        ....  10.000
 MO-DIIS                CNVKDIIS        .... off
 Trust-Rad. Augm. Hess. CNVTRAH         .... auto
   Auto Start mean grad. ratio tolernc. ....  1.125000
   Auto Start start iteration           ....     1
   Auto Start num. interpolation iter.  ....    10
   Max. Number of Micro iterations      ....    24
   Max. Number of Macro iterations      .... Maxiter - #DIIS iter
   Number of Davidson start vectors     ....     2
   Converg. threshold    (grad. norm)   ....   1.000e-04
   Grad. Scal. Fac. for Micro threshold ....   0.100
   Minimum threshold for Micro iter.    ....   1.000e-02
   NR start threshold (gradient norm)   ....   1.000e-04
   Initial trust radius                 ....   0.400
   Minimum AH scaling param. (alpha)    ....   1.000
   Maximum AH scaling param. (alpha)    .... 1000.000
   Quad. conv. algorithm                .... NR
   White noise on init. David. guess    .... on
   Maximum white noise                  ....   0.010
   Pseudo random numbers                .... off
   Inactive MOs                         .... canonical
   Orbital update algorithm             .... Taylor
   Preconditioner                       .... Diag
   Full preconditioner red. dimension   ....   250
 SOSCF                  CNVSOSCF        .... on
   Start iteration      SOSCFMaxIt      ....   150
   Startup grad/error   SOSCFStart      ....  0.003300
   Hessian update       SOSCFHessUp     .... L-BFGS
 Level Shifting         CNVShift        .... on
   Level shift para.    LevelShift      ....    0.2500
   Turn off err/grad.   ShiftErr        ....    0.0010
 Zerner damping         CNVZerner       .... off
 Static damping         CNVDamp         .... on
   Fraction old density DampFac         ....    0.7000
   Max. Damping (<1)    DampMax         ....    0.9800
   Min. Damping (>=0)   DampMin         ....    0.0000
   Turn off err/grad.   DampErr         ....    0.1000

SCF Procedure:
 Maximum # iterations   MaxIter         ....   125
 SCF integral mode      SCFMode         .... Direct
   Integral package                     .... SHARK and LIBINT hybrid scheme
 Reset frequency        DirectResetFreq ....    20
 Integral Threshold     Thresh          ....  1.000e-09 Eh
 Primitive CutOff       TCut            ....  1.000e-10 Eh

Convergence Tolerance:
 Convergence Check Mode ConvCheckMode   .... Total+1el-Energy
 Convergence forced     ConvForced      .... 0
 Energy Change          TolE            ....  1.000e-05 Eh
 1-El. energy change                    ....  1.000e-02 Eh
 Orbital Gradient       TolG            ....  1.000e-04
 Orbital Rotation angle TolX            ....  1.000e-04
 DIIS Error             TolErr          ....  5.000e-04

---------------------
INITIAL GUESS: MOREAD
---------------------
Guess MOs are being read from file: sp.ges
Input Geometry matches current geometry (good)
Input basis set matches current basis set (good)
Occupation numbers will be reassigned to an Aufbau configuration
MOs were renormalized
MOs were reorthogonalized (Cholesky)
                      ------------------
                      INITIAL GUESS DONE (   0.0 sec)
                      ------------------
             **** ENERGY FILE WAS UPDATED (sp.en.tmp) ****
Finished Guess after   0.0 sec
Maximum memory used throughout the entire GUESS-calculation: 11.2 MB

-------------------------------------------------------------------------------------------
                                      ORCA LEAN-SCF
                              memory conserving SCF solver
-------------------------------------------------------------------------------------------

----------------------------------------D-I-I-S--------------------------------------------
Iteration    Energy (Eh)           Delta-E    RMSDP     MaxDP     DIISErr   Damp  Time(sec)
-------------------------------------------------------------------------------------------
               ***  Starting incremental Fock matrix formation  ***
                              *** Initializing SOSCF ***
---------------------------------------S-O-S-C-F--------------------------------------
Iteration    Energy (Eh)           Delta-E    RMSDP     MaxDP     MaxGrad    Time(sec)
--------------------------------------------------------------------------------------
    1    -949.4781288168121591     0.00e+00  9.67e-06  2.96e-04  2.77e-06     0.3
               *** Restarting incremental Fock matrix formation ***
    2    -949.4781288163967474     4.15e-10  2.28e-06  4.16e-05  9.05e-06     0.3
                  *** Gradient check signals convergence ***

               *****************************************************
               *                     SUCCESS                       *
               *           SCF CONVERGED AFTER   2 CYCLES          *
               *****************************************************

             **** ENERGY FILE WAS UPDATED (sp.en.tmp) ****

----------------
TOTAL SCF ENERGY
----------------

Total Energy       :       -949.47812881639675 Eh          -25836.61339 eV

Components:
Nuclear Repulsion  :        888.35775596608119 Eh           24173.44349 eV
Electronic Energy  :      -1837.83588478247793 Eh          -50010.05689 eV
One Electron Energy:      -3086.40725750333968 Eh          -83985.41121 eV
Two Electron Energy:       1248.57137272086175 Eh           33975.35433 eV

Virial components:
Potential Energy   :      -1893.81366912055000 Eh          -51533.28984 eV
Kinetic Energy     :        944.33554030415326 Eh           25696.67645 eV
Virial Ratio       :          2.00544572166646

DFT components:
N(Alpha)           :       48.000240489355 electrons
N(Beta)            :       48.000240489355 electrons
N(Total)           :       96.000480978710 electrons
E(X)               :     -101.089287724177 Eh       
E(C)               :       -3.382990185753 Eh       
E(XC)              :     -104.472277909930 Eh       

---------------
SCF CONVERGENCE
---------------

  Last Energy change         ...   -4.1541e-10  Tolerance :   1.0000e-05
  Last MAX-Density change    ...    4.1594e-05  Tolerance :   1.0000e-03
  Last RMS-Density change    ...    2.2790e-06  Tolerance :   1.0000e-04
  Last DIIS Error            ...    1.3758e-05  Tolerance :   5.0000e-04
  Last Orbital Gradient      ...    9.0505e-06  Tolerance :   1.0000e-04
  Last Orbital Rotation      ...    2.0282e-05  Tolerance :   1.0000e-04


----------------
ORBITAL ENERGIES
----------------

  NO   OCC          E(Eh)            E(eV) 
   0   2.0000     -24.317978      -661.7258 
   1   2.0000     -24.317925      -661.7244 
   2   2.0000     -24.317893      -661.7235 
   3   2.0000     -24.317811      -661.7213 
   4   2.0000     -24.316707      -661.6912 
   5   2.0000     -24.316669      -661.6902 
   6   2.0000     -24.316650      -661.6897 
   7   2.0000     -24.316640      -661.6894 
   8   2.0000     -10.090251      -274.5697 
   9   2.0000     -10.090115      -274.5660 
  10   2.0000     -10.090108      -274.5658 
  11   2.0000     -10.089950      -274.5615 
  12   2.0000      -1.206889       -32.8411 
  13   2.0000      -1.187957       -32.3260 
  14   2.0000      -1.187904       -32.3245 
  15   2.0000      -1.174135       -31.9498 
  16   2.0000      -1.136351       -30.9217 
  17   2.0000      -1.125020       -30.6133 
  18   2.0000      -1.124988       -30.6125 
  19   2.0000      -1.115699       -30.3597 
  20   2.0000      -0.820178       -22.3182 
  21   2.0000      -0.650012       -17.6877 
  22   2.0000      -0.650007       -17.6876 
  23   2.0000      -0.589252       -16.0344 
  24   2.0000      -0.577847       -15.7240 
  25   2.0000      -0.565448       -15.3866 
  26   2.0000      -0.564860       -15.3706 
  27   2.0000      -0.532981       -14.5032 
  28   2.0000      -0.532946       -14.5022 
  29   2.0000      -0.525352       -14.2955 
  30   2.0000      -0.525349       -14.2955 
  31   2.0000      -0.509871       -13.8743 
  32   2.0000      -0.432645       -11.7729 
  33   2.0000      -0.432639       -11.7727 
  34   2.0000      -0.424916       -11.5626 
  35   2.0000      -0.420541       -11.4435 
  36   2.0000      -0.416386       -11.3304 
  37   2.0000      -0.415507       -11.3065 
  38   2.0000      -0.402767       -10.9599 
  39   2.0000      -0.402758       -10.9596 
  40   2.0000      -0.394958       -10.7473 
  41   2.0000      -0.379710       -10.3324 
  42   2.0000      -0.373284       -10.1576 
  43   2.0000      -0.373282       -10.1575 
  44   2.0000      -0.367108        -9.9895 
  45   2.0000      -0.333790        -9.0829 
  46   2.0000      -0.333782        -9.0827 
  47   2.0000      -0.276338        -7.5195 
  48   0.0000      -0.070572        -1.9203 
  49   0.0000       0.027117         0.7379 
  50   0.0000       0.083587         2.2745 
  51   0.0000       0.083590         2.2746 
  52   0.0000       0.121558         3.3078 
  53   0.0000       0.121614         3.3093 
  54   0.0000       0.163835         4.4582 
  55   0.0000       0.163922         4.4606 
  56   0.0000       0.166014         4.5175 
  57   0.0000       0.167387         4.5548 
  58   0.0000       0.294684         8.0188 
*Only the first 10 virtual orbitals were printed.

                    ********************************
                    * MULLIKEN POPULATION ANALYSIS *
                    ********************************

-----------------------
MULLIKEN ATOMIC CHARGES
-----------------------
   0 C :    0.240862
   1 C :    0.240845
   2 C :    0.240863
   3 C :    0.240816
   4 F :   -0.116822
   5 F :   -0.123953
   6 F :   -0.123969
   7 F :   -0.116934
   8 F :   -0.123959
   9 F :   -0.116848
  10 F :   -0.116935
  11 F :   -0.123965
Sum of atomic charges:   -0.0000000

--------------------------------
MULLIKEN REDUCED ORBITAL CHARGES
--------------------------------
  0 C s       :     3.048171  s :     3.048171
      pz      :     0.671174  p :     2.578553
      px      :     0.873967
      py      :     1.033412
      dz2     :     0.035420  d :     0.132415
      dxz     :     0.037981
      dyz     :     0.019236
      dx2y2   :     0.014047
      dxy     :     0.025731

  1 C s       :     3.048216  s :     3.048216
      pz      :     0.671190  p :     2.578492
      px      :     1.033363
      py      :     0.873939
      dz2     :     0.035426  d :     0.132447
      dxz     :     0.019241
      dyz     :     0.037994
      dx2y2   :     0.014050
      dxy     :     0.025736

  2 C s       :     3.048171  s :     3.048171
      pz      :     0.671173  p :     2.578552
      px      :     0.873966
      py      :     1.033413
      dz2     :     0.035419  d :     0.132414
      dxz     :     0.037981
      dyz     :     0.019236
      dx2y2   :     0.014047
      dxy     :     0.025731

  3 C s       :     3.048250  s :     3.048250
      pz      :     0.671178  p :     2.578479
      px      :     1.033355
      py      :     0.873946
      dz2     :     0.035431  d :     0.132455
      dxz     :     0.019244
      dyz     :     0.037997
      dx2y2   :     0.014048
      dxy     :     0.025736

  4 F s       :     3.887890  s :     3.887890
      pz      :     1.564630  p :     5.220497
      px      :     1.900448
      py      :     1.755418
      dz2     :     0.002746  d :     0.008435
      dxz     :     0.001555
      dyz     :     0.002957
      dx2y2   :     0.000571
      dxy     :     0.000606

  5 F s       :     3.890276  s :     3.890276
      pz      :     1.653348  p :     5.225174
      px      :     1.898343
      py      :     1.673483
      dz2     :     0.001810  d :     0.008502
      dxz     :     0.001134
      dyz     :     0.003336
      dx2y2   :     0.001185
      dxy     :     0.001036

  6 F s       :     3.890311  s :     3.890311
      pz      :     1.653573  p :     5.225158
      px      :     1.673241
      py      :     1.898343
      dz2     :     0.001808  d :     0.008500
      dxz     :     0.003336
      dyz     :     0.001132
      dx2y2   :     0.001187
      dxy     :     0.001037

  7 F s       :     3.887941  s :     3.887941
      pz      :     1.564448  p :     5.220561
      px      :     1.755625
      py      :     1.900488
      dz2     :     0.002748  d :     0.008432
      dxz     :     0.002954
      dyz     :     0.001555
      dx2y2   :     0.000570
      dxy     :     0.000605

  8 F s       :     3.890286  s :     3.890286
      pz      :     1.653438  p :     5.225171
      px      :     1.898339
      py      :     1.673395
      dz2     :     0.001810  d :     0.008501
      dxz     :     0.001133
      dyz     :     0.003336
      dx2y2   :     0.001186
      dxy     :     0.001037

  9 F s       :     3.887899  s :     3.887899
      pz      :     1.564618  p :     5.220515
      px      :     1.900460
      py      :     1.755437
      dz2     :     0.002746  d :     0.008434
      dxz     :     0.001555
      dyz     :     0.002956
      dx2y2   :     0.000571
      dxy     :     0.000606

 10 F s       :     3.887941  s :     3.887941
      pz      :     1.564446  p :     5.220562
      px      :     1.755629
      py      :     1.900487
      dz2     :     0.002748  d :     0.008432
      dxz     :     0.002954
      dyz     :     0.001555
      dx2y2   :     0.000570
      dxy     :     0.000605

 11 F s       :     3.890310  s :     3.890310
      pz      :     1.653569  p :     5.225155
      px      :     1.673243
      py      :     1.898344
      dz2     :     0.001808  d :     0.008500
      dxz     :     0.003336
      dyz     :     0.001132
      dx2y2   :     0.001187
      dxy     :     0.001037


------------------------
MULLIKEN OVERLAP CHARGES
------------------------
B(  0-C ,  1-C ) :  -0.3385 B(  0-C ,  2-C ) :   0.1266 B(  0-C ,  3-C ) :  -0.3386 
B(  0-C ,  4-F ) :  -0.0857 B(  0-C ,  5-F ) :  -0.0622 B(  0-C ,  8-F ) :  -0.0622 
B(  0-C ,  9-F ) :  -0.0858 B(  0-C , 10-F ) :   0.7166 B(  0-C , 11-F ) :   0.7061 
B(  1-C ,  2-C ) :  -0.3385 B(  1-C ,  3-C ) :   0.1269 B(  1-C ,  6-F ) :  -0.0623 
B(  1-C ,  7-F ) :  -0.0858 B(  1-C ,  8-F ) :   0.7060 B(  1-C ,  9-F ) :   0.7166 
B(  1-C , 10-F ) :  -0.0858 B(  1-C , 11-F ) :  -0.0623 B(  2-C ,  3-C ) :  -0.3386 
B(  2-C ,  4-F ) :  -0.0857 B(  2-C ,  5-F ) :  -0.0622 B(  2-C ,  6-F ) :   0.7060 
B(  2-C ,  7-F ) :   0.7166 B(  2-C ,  8-F ) :  -0.0622 B(  2-C ,  9-F ) :  -0.0857 
B(  3-C ,  4-F ) :   0.7166 B(  3-C ,  5-F ) :   0.7059 B(  3-C ,  6-F ) :  -0.0623 
B(  3-C ,  7-F ) :  -0.0858 B(  3-C , 10-F ) :  -0.0858 B(  3-C , 11-F ) :  -0.0623 
B(  4-F ,  5-F ) :  -0.0910 B(  6-F ,  7-F ) :  -0.0910 B(  8-F ,  9-F ) :  -0.0910 
B( 10-F , 11-F ) :  -0.0910 


                     *******************************
                     * LOEWDIN POPULATION ANALYSIS *
                     *******************************

----------------------
LOEWDIN ATOMIC CHARGES
----------------------
   0 C :    0.040664
   1 C :    0.040594
   2 C :    0.040666
   3 C :    0.040575
   4 F :   -0.021192
   5 F :   -0.019347
   6 F :   -0.019385
   7 F :   -0.021305
   8 F :   -0.019366
   9 F :   -0.021217
  10 F :   -0.021306
  11 F :   -0.019381

-------------------------------
LOEWDIN REDUCED ORBITAL CHARGES
-------------------------------
  0 C s       :     2.888352  s :     2.888352
      pz      :     0.784848  p :     2.775546
      px      :     0.911388
      py      :     1.079311
      dz2     :     0.080103  d :     0.295437
      dxz     :     0.086193
      dyz     :     0.035108
      dx2y2   :     0.023766
      dxy     :     0.070266

  1 C s       :     2.888321  s :     2.888321
      pz      :     0.784879  p :     2.775577
      px      :     1.079275
      py      :     0.911423
      dz2     :     0.080113  d :     0.295508
      dxz     :     0.035119
      dyz     :     0.086227
      dx2y2   :     0.023769
      dxy     :     0.070281

  2 C s       :     2.888352  s :     2.888352
      pz      :     0.784847  p :     2.775546
      px      :     0.911387
      py      :     1.079312
      dz2     :     0.080102  d :     0.295436
      dxz     :     0.086193
      dyz     :     0.035107
      dx2y2   :     0.023767
      dxy     :     0.070267

  3 C s       :     2.888311  s :     2.888311
      pz      :     0.784894  p :     2.775589
      px      :     1.079270
      py      :     0.911425
      dz2     :     0.080124  d :     0.295525
      dxz     :     0.035124
      dyz     :     0.086234
      dx2y2   :     0.023764
      dxy     :     0.070279

  4 F s       :     3.726633  s :     3.726633
      pz      :     1.609981  p :     5.280596
      px      :     1.899334
      py      :     1.771281
      dz2     :     0.004624  d :     0.013963
      dxz     :     0.002317
      dyz     :     0.005297
      dx2y2   :     0.000861
      dxy     :     0.000864

  5 F s       :     3.725290  s :     3.725290
      pz      :     1.689034  p :     5.280019
      px      :     1.896130
      py      :     1.694855
      dz2     :     0.002645  d :     0.014038
      dxz     :     0.001703
      dyz     :     0.006235
      dx2y2   :     0.001963
      dxy     :     0.001493

  6 F s       :     3.725328  s :     3.725328
      pz      :     1.689226  p :     5.280022
      px      :     1.694655
      py      :     1.896141
      dz2     :     0.002640  d :     0.014035
      dxz     :     0.006234
      dyz     :     0.001700
      dx2y2   :     0.001965
      dxy     :     0.001494

  7 F s       :     3.726710  s :     3.726710
      pz      :     1.609801  p :     5.280638
      px      :     1.771464
      py      :     1.899374
      dz2     :     0.004627  d :     0.013957
      dxz     :     0.005291
      dyz     :     0.002317
      dx2y2   :     0.000859
      dxy     :     0.000862

  8 F s       :     3.725304  s :     3.725304
      pz      :     1.689112  p :     5.280025
      px      :     1.896131
      py      :     1.694782
      dz2     :     0.002643  d :     0.014037
      dxz     :     0.001702
      dyz     :     0.006235
      dx2y2   :     0.001964
      dxy     :     0.001493

  9 F s       :     3.726646  s :     3.726646
      pz      :     1.609967  p :     5.280609
      px      :     1.899345
      py      :     1.771297
      dz2     :     0.004624  d :     0.013962
      dxz     :     0.002317
      dyz     :     0.005296
      dx2y2   :     0.000861
      dxy     :     0.000864

 10 F s       :     3.726710  s :     3.726710
      pz      :     1.609799  p :     5.280639
      px      :     1.771467
      py      :     1.899373
      dz2     :     0.004627  d :     0.013957
      dxz     :     0.005291
      dyz     :     0.002317
      dx2y2   :     0.000859
      dxy     :     0.000862

 11 F s       :     3.725326  s :     3.725326
      pz      :     1.689222  p :     5.280020
      px      :     1.694657
      py      :     1.896141
      dz2     :     0.002641  d :     0.014035
      dxz     :     0.006234
      dyz     :     0.001700
      dx2y2   :     0.001965
      dxy     :     0.001494


---------------------------------
LOEWDIN BOND ORDERS (THRESH 0.050000)
---------------------------------
B(  0-C ,  1-C ) :   0.9233 B(  0-C ,  2-C ) :   0.1223 B(  0-C ,  3-C ) :   0.9233 
B(  0-C ,  4-F ) :   0.0699 B(  0-C ,  5-F ) :   0.0675 B(  0-C ,  8-F ) :   0.0675 
B(  0-C ,  9-F ) :   0.0699 B(  0-C , 10-F ) :   1.3381 B(  0-C , 11-F ) :   1.3490 
B(  1-C ,  2-C ) :   0.9233 B(  1-C ,  3-C ) :   0.1223 B(  1-C ,  6-F ) :   0.0675 
B(  1-C ,  7-F ) :   0.0699 B(  1-C ,  8-F ) :   1.3490 B(  1-C ,  9-F ) :   1.3383 
B(  1-C , 10-F ) :   0.0699 B(  1-C , 11-F ) :   0.0675 B(  2-C ,  3-C ) :   0.9233 
B(  2-C ,  4-F ) :   0.0699 B(  2-C ,  5-F ) :   0.0675 B(  2-C ,  6-F ) :   1.3490 
B(  2-C ,  7-F ) :   1.3381 B(  2-C ,  8-F ) :   0.0675 B(  2-C ,  9-F ) :   0.0699 
B(  3-C ,  4-F ) :   1.3384 B(  3-C ,  5-F ) :   1.3490 B(  3-C ,  6-F ) :   0.0675 
B(  3-C ,  7-F ) :   0.0699 B(  3-C , 10-F ) :   0.0699 B(  3-C , 11-F ) :   0.0675 
B(  4-F ,  5-F ) :   0.0840 B(  6-F ,  7-F ) :   0.0840 B(  8-F ,  9-F ) :   0.0840 
B( 10-F , 11-F ) :   0.0840 

------------------------------------------
LOEWDIN REDUCED ORBITAL POPULATIONS PER MO
-------------------------------------------
THRESHOLD FOR PRINTING IS 0.1%%
                      0         1         2         3         4         5   
                 -24.31798 -24.31793 -24.31789 -24.31781 -24.31671 -24.31667
                   2.00000   2.00000   2.00000   2.00000   2.00000   2.00000
                  --------  --------  --------  --------  --------  --------
 4 F  s              36.5      44.8       0.0      17.8       0.3       0.0
 5 F  s               0.5       0.0       0.0       0.3      18.9       0.0
 6 F  s               0.7       0.0       0.0       0.2      30.6      50.3
 7 F  s              19.2       0.3      49.9      29.6       0.1       0.0
 8 F  s               0.5       0.1       0.0       0.3      16.2       0.0
 9 F  s              22.5      54.4       0.0      22.2       0.3       0.0
10 F  s              19.3       0.4      50.0      29.4       0.1       0.0
11 F  s               0.7       0.0       0.0       0.2      33.4      49.5

                      6         7         8         9        10        11   
                 -24.31665 -24.31664 -10.09025 -10.09011 -10.09011 -10.08995
                   2.00000   2.00000   2.00000   2.00000   2.00000   2.00000
                  --------  --------  --------  --------  --------  --------
 0 C  s               0.0       0.0      24.4       0.0      49.8      25.4
 1 C  s               0.0       0.0      25.0      49.9       0.0      24.7
 2 C  s               0.0       0.0      24.3       0.0      49.8      25.4
 3 C  s               0.0       0.0      25.8      49.7       0.0      24.1
 4 F  s               0.1       0.4       0.0       0.0       0.0       0.0
 5 F  s              61.5      18.7       0.0       0.0       0.0       0.0
 6 F  s               0.8      17.4       0.0       0.0       0.0       0.0
 7 F  s               0.0       0.7       0.0       0.0       0.0       0.0
 8 F  s              37.0      45.9       0.0       0.0       0.0       0.0
 9 F  s               0.0       0.5       0.0       0.0       0.0       0.0
10 F  s               0.0       0.7       0.0       0.0       0.0       0.0
11 F  s               0.6      15.5       0.0       0.0       0.0       0.0

                     12        13        14        15        16        17   
                  -1.20689  -1.18796  -1.18790  -1.17413  -1.13635  -1.12502
                   2.00000   2.00000   2.00000   2.00000   2.00000   2.00000
                  --------  --------  --------  --------  --------  --------
 0 C  s               7.3       0.0       7.2       2.3       0.0       0.0
 0 C  pz              0.0       0.0       0.0       0.1       5.6       0.0
 0 C  px              0.4       0.0       4.2       3.5       0.1       0.0
 0 C  py              0.0       1.7       0.0       0.0       0.0       0.0
 0 C  dz2             0.1       0.0       0.3       0.2       0.0       0.0
 0 C  dxz             0.0       0.0       0.0       0.0       0.5       0.0
 0 C  dx2y2           0.1       0.0       0.1       0.1       0.0       0.0
 1 C  s               7.3       7.2       0.0       2.3       0.0       0.0
 1 C  pz              0.0       0.0       0.0       0.1       5.6       9.0
 1 C  px              0.0       0.0       1.7       0.0       0.0       0.0
 1 C  py              0.4       4.2       0.0       3.5       0.1       0.1
 1 C  dz2             0.1       0.3       0.0       0.2       0.0       0.0
 1 C  dyz             0.0       0.0       0.0       0.0       0.5       1.1
 1 C  dx2y2           0.1       0.1       0.0       0.1       0.0       0.0
 2 C  s               7.3       0.0       7.2       2.3       0.0       0.0
 2 C  pz              0.0       0.0       0.0       0.1       5.6       0.0
 2 C  px              0.4       0.0       4.2       3.5       0.1       0.0
 2 C  py              0.0       1.7       0.0       0.0       0.0       0.0
 2 C  dz2             0.1       0.0       0.3       0.2       0.0       0.0
 2 C  dxz             0.0       0.0       0.0       0.0       0.5       0.0
 2 C  dx2y2           0.1       0.0       0.1       0.1       0.0       0.0
 3 C  s               7.3       7.2       0.0       2.3       0.0       0.0
 3 C  pz              0.0       0.0       0.0       0.1       5.6       9.0
 3 C  px              0.0       0.0       1.7       0.0       0.0       0.0
 3 C  py              0.4       4.2       0.0       3.5       0.1       0.1
 3 C  dz2             0.1       0.3       0.0       0.2       0.0       0.0
 3 C  dyz             0.0       0.0       0.0       0.0       0.5       1.1
 3 C  dx2y2           0.1       0.1       0.0       0.1       0.0       0.0
 4 F  s               8.1      17.1       0.0       9.3       8.7      19.4
 4 F  pz              0.5       0.9       0.0       0.4       0.1       0.2
 4 F  py              0.1       0.2       0.0       0.1       0.1       0.2
 5 F  s               7.9      16.9       0.0       8.5       9.7      19.4
 5 F  pz              0.4       0.7       0.0       0.3       0.1       0.2
 5 F  py              0.2       0.4       0.0       0.2       0.2       0.3
 6 F  s               7.8       0.0      16.9       8.5       9.6       0.0
 6 F  pz              0.4       0.0       0.7       0.3       0.1       0.0
 6 F  px              0.2       0.0       0.4       0.2       0.2       0.0
 7 F  s               8.1       0.0      17.1       9.3       8.7       0.0
 7 F  pz              0.5       0.0       0.9       0.4       0.1       0.0
 7 F  px              0.1       0.0       0.2       0.1       0.1       0.0
 8 F  s               7.9      16.9       0.0       8.5       9.6      19.4
 8 F  pz              0.4       0.7       0.0       0.3       0.1       0.2
 8 F  py              0.2       0.4       0.0       0.2       0.2       0.3
 9 F  s               8.1      17.1       0.0       9.3       8.7      19.4
 9 F  pz              0.5       0.9       0.0       0.4       0.1       0.2
 9 F  py              0.1       0.2       0.0       0.1       0.1       0.2
10 F  s               8.1       0.0      17.1       9.3       8.7       0.0
10 F  pz              0.5       0.0       0.9       0.4       0.1       0.0
10 F  px              0.1       0.0       0.2       0.1       0.1       0.0
11 F  s               7.8       0.0      16.9       8.5       9.6       0.0
11 F  pz              0.4       0.0       0.7       0.3       0.1       0.0
11 F  px              0.2       0.0       0.4       0.2       0.2       0.0

                     18        19        20        21        22        23   
                  -1.12499  -1.11570  -0.82018  -0.65001  -0.65001  -0.58925
                   2.00000   2.00000   2.00000   2.00000   2.00000   2.00000
                  --------  --------  --------  --------  --------  --------
 0 C  s               0.0       0.0       8.1      10.9       0.0       2.4
 0 C  pz              9.0       3.5       0.1       0.0       0.0       0.1
 0 C  px              0.1       0.1      11.6       0.4       0.0       1.5
 0 C  py              0.0       0.0       0.0       0.0       9.5       0.0
 0 C  dz2             0.0       0.0       0.3       0.0       0.0       0.0
 0 C  dxz             1.1       0.7       0.0       0.0       0.0       0.0
 0 C  dxy             0.0       0.0       0.0       0.0       0.3       0.0
 1 C  s               0.0       0.0       8.1       0.0      10.9       2.4
 1 C  pz              0.0       3.5       0.1       0.0       0.0       0.1
 1 C  px              0.0       0.0       0.0       9.5       0.0       0.0
 1 C  py              0.0       0.1      11.6       0.0       0.4       1.5
 1 C  dz2             0.0       0.0       0.3       0.0       0.0       0.0
 1 C  dyz             0.0       0.7       0.0       0.0       0.0       0.0
 1 C  dxy             0.0       0.0       0.0       0.3       0.0       0.0
 2 C  s               0.0       0.0       8.1      10.9       0.0       2.4
 2 C  pz              9.0       3.5       0.1       0.0       0.0       0.1
 2 C  px              0.1       0.1      11.6       0.4       0.0       1.5
 2 C  py              0.0       0.0       0.0       0.0       9.5       0.0
 2 C  dz2             0.0       0.0       0.3       0.0       0.0       0.0
 2 C  dxz             1.1       0.7       0.0       0.0       0.0       0.0
 2 C  dxy             0.0       0.0       0.0       0.0       0.3       0.0
 3 C  s               0.0       0.0       8.1       0.0      10.9       2.4
 3 C  pz              0.0       3.5       0.1       0.0       0.0       0.1
 3 C  px              0.0       0.0       0.0       9.5       0.0       0.0
 3 C  py              0.0       0.1      11.6       0.0       0.4       1.5
 3 C  dz2             0.0       0.0       0.3       0.0       0.0       0.0
 3 C  dyz             0.0       0.7       0.0       0.0       0.0       0.0
 3 C  dxy             0.0       0.0       0.0       0.3       0.0       0.0
 4 F  s               0.0      10.0       1.8       0.0       3.9       2.1
 4 F  pz              0.0       0.1       0.3       0.0       6.6       8.4
 4 F  px              0.0       0.0       0.0       0.8       0.0       0.0
 4 F  py              0.0       0.1       0.6       0.0       2.6       1.1
 5 F  s               0.0      10.3       1.4       0.0       4.3       1.6
 5 F  pz              0.0       0.1       0.1       0.0       4.7       5.8
 5 F  px              0.0       0.0       0.0       0.7       0.0       0.0
 5 F  py              0.0       0.1       0.6       0.0       5.0       1.9
 6 F  s              19.4      10.3       1.4       4.3       0.0       1.6
 6 F  pz              0.2       0.1       0.1       4.7       0.0       5.8
 6 F  px              0.3       0.1       0.6       5.0       0.0       1.9
 6 F  py              0.0       0.0       0.0       0.0       0.7       0.0
 7 F  s              19.4      10.0       1.8       3.9       0.0       2.0
 7 F  pz              0.2       0.1       0.3       6.6       0.0       8.3
 7 F  px              0.2       0.1       0.6       2.6       0.0       1.1
 7 F  py              0.0       0.0       0.0       0.0       0.8       0.0
 8 F  s               0.0      10.3       1.4       0.0       4.3       1.6
 8 F  pz              0.0       0.1       0.1       0.0       4.7       5.8
 8 F  px              0.0       0.0       0.0       0.7       0.0       0.0
 8 F  py              0.0       0.1       0.6       0.0       5.0       1.9
 9 F  s               0.0      10.0       1.8       0.0       3.9       2.1
 9 F  pz              0.0       0.1       0.3       0.0       6.6       8.4
 9 F  px              0.0       0.0       0.0       0.8       0.0       0.0
 9 F  py              0.0       0.1       0.6       0.0       2.6       1.1
10 F  s              19.4      10.0       1.8       3.9       0.0       2.0
10 F  pz              0.2       0.1       0.3       6.6       0.0       8.3
10 F  px              0.2       0.1       0.6       2.6       0.0       1.1
10 F  py              0.0       0.0       0.0       0.0       0.8       0.0
11 F  s              19.4      10.3       1.4       4.3       0.0       1.6
11 F  pz              0.2       0.1       0.1       4.7       0.0       5.8
11 F  px              0.3       0.1       0.6       5.0       0.0       1.9
11 F  py              0.0       0.0       0.0       0.0       0.7       0.0

                     24        25        26        27        28        29   
                  -0.57785  -0.56545  -0.56486  -0.53298  -0.53295  -0.52535
                   2.00000   2.00000   2.00000   2.00000   2.00000   2.00000
                  --------  --------  --------  --------  --------  --------
 0 C  s               0.5       0.0       0.0       0.0       0.1       0.3
 0 C  pz              0.0       6.0       0.0       0.0       7.6       1.3
 0 C  px              5.8       0.1       0.0       0.0       1.2       6.9
 0 C  py              0.0       0.0      14.8       2.1       0.0       0.0
 0 C  dxz             0.0       0.0       0.0       0.0       0.1       0.0
 0 C  dyz             0.0       0.0       0.0       0.1       0.0       0.0
 0 C  dx2y2           0.0       0.0       0.0       0.0       0.1       0.3
 1 C  s               0.5       0.0       0.0       0.1       0.0       0.0
 1 C  pz              0.0       6.0       0.0       7.6       0.0       0.0
 1 C  px              0.0       0.0      14.8       0.0       2.1       6.8
 1 C  py              5.8       0.1       0.0       1.2       0.0       0.0
 1 C  dxz             0.0       0.0       0.0       0.0       0.1       0.0
 1 C  dyz             0.0       0.0       0.0       0.1       0.0       0.0
 2 C  s               0.5       0.0       0.0       0.0       0.1       0.3
 2 C  pz              0.0       6.0       0.0       0.0       7.6       1.3
 2 C  px              5.8       0.1       0.0       0.0       1.2       6.9
 2 C  py              0.0       0.0      14.8       2.1       0.0       0.0
 2 C  dxz             0.0       0.0       0.0       0.0       0.1       0.0
 2 C  dyz             0.0       0.0       0.0       0.1       0.0       0.0
 2 C  dx2y2           0.0       0.0       0.0       0.0       0.1       0.3
 3 C  s               0.5       0.0       0.0       0.1       0.0       0.0
 3 C  pz              0.0       6.0       0.0       7.6       0.0       0.0
 3 C  px              0.0       0.0      14.8       0.0       2.1       6.8
 3 C  py              5.8       0.1       0.0       1.2       0.0       0.0
 3 C  dxz             0.0       0.0       0.0       0.0       0.1       0.0
 3 C  dyz             0.0       0.0       0.0       0.1       0.0       0.0
 4 F  s               1.1       1.4       0.0       2.6       0.0       0.0
 4 F  pz              7.4       2.6       0.0      17.3       0.0       0.0
 4 F  px              0.0       0.0       5.0       0.0       2.0       3.1
 4 F  py              0.0       4.5       0.0       5.0       0.0       0.0
 5 F  s               1.4       1.7       0.0       0.8       0.0       0.0
 5 F  pz              7.6       2.2       0.0       0.1       0.0       0.0
 5 F  px              0.0       0.0       5.1       0.0       0.4       3.9
 5 F  py              0.9       6.5       0.0      10.3       0.0       0.0
 6 F  s               1.5       1.7       0.0       0.0       0.8       1.5
 6 F  pz              7.7       2.2       0.0       0.0       0.1      16.2
 6 F  px              0.9       6.5       0.0       0.0      10.3       2.3
 6 F  py              0.0       0.0       5.1       0.4       0.0       0.0
 7 F  s               1.1       1.4       0.0       0.0       2.6       0.0
 7 F  pz              7.5       2.6       0.0       0.0      17.3       1.5
 7 F  px              0.0       4.4       0.0       0.0       5.0       5.4
 7 F  py              0.0       0.0       4.9       2.0       0.0       0.0
 8 F  s               1.4       1.7       0.0       0.8       0.0       0.0
 8 F  pz              7.6       2.2       0.0       0.1       0.0       0.0
 8 F  px              0.0       0.0       5.1       0.0       0.4       3.9
 8 F  py              0.9       6.5       0.0      10.3       0.0       0.0
 9 F  s               1.1       1.4       0.0       2.6       0.0       0.0
 9 F  pz              7.4       2.6       0.0      17.3       0.0       0.0
 9 F  px              0.0       0.0       5.0       0.0       2.0       3.1
 9 F  py              0.0       4.5       0.0       5.0       0.0       0.0
10 F  s               1.1       1.4       0.0       0.0       2.6       0.0
10 F  pz              7.5       2.6       0.0       0.0      17.3       1.5
10 F  px              0.0       4.4       0.0       0.0       5.0       5.4
10 F  py              0.0       0.0       4.9       2.0       0.0       0.0
11 F  s               1.5       1.7       0.0       0.0       0.8       1.5
11 F  pz              7.7       2.2       0.0       0.0       0.1      16.2
11 F  px              0.9       6.5       0.0       0.0      10.3       2.3
11 F  py              0.0       0.0       5.1       0.4       0.0       0.0

                     30        31        32        33        34        35   
                  -0.52535  -0.50987  -0.43265  -0.43264  -0.42492  -0.42054
                   2.00000   2.00000   2.00000   2.00000   2.00000   2.00000
                  --------  --------  --------  --------  --------  --------
 0 C  s               0.0       0.0       0.0       0.5       0.3       0.0
 0 C  pz              0.0       3.7       0.0       0.0       0.0       0.0
 0 C  px              0.0       0.0       0.0       1.2       0.5       0.0
 0 C  py              6.8       0.0       1.7       0.0       0.0       1.5
 0 C  dz2             0.0       0.0       0.0       0.8       0.6       0.0
 0 C  dxz             0.0       0.4       0.0       0.0       0.1       0.0
 0 C  dxy             0.0       0.0       0.5       0.0       0.0       0.4
 1 C  s               0.3       0.0       0.5       0.0       0.2       0.0
 1 C  pz              1.3       3.7       0.0       0.0       0.0       0.0
 1 C  px              0.0       0.0       0.0       1.7       0.0       1.5
 1 C  py              6.9       0.0       1.2       0.0       0.5       0.0
 1 C  dz2             0.0       0.0       0.8       0.0       0.6       0.0
 1 C  dyz             0.0       0.4       0.0       0.0       0.1       0.0
 1 C  dx2y2           0.3       0.0       0.0       0.0       0.1       0.0
 1 C  dxy             0.0       0.0       0.0       0.5       0.0       0.4
 2 C  s               0.0       0.0       0.0       0.5       0.3       0.0
 2 C  pz              0.0       3.7       0.0       0.0       0.0       0.0
 2 C  px              0.0       0.0       0.0       1.2       0.5       0.0
 2 C  py              6.8       0.0       1.7       0.0       0.0       1.5
 2 C  dz2             0.0       0.0       0.0       0.8       0.6       0.0
 2 C  dxz             0.0       0.4       0.0       0.0       0.1       0.0
 2 C  dxy             0.0       0.0       0.5       0.0       0.0       0.4
 3 C  s               0.3       0.0       0.5       0.0       0.2       0.0
 3 C  pz              1.3       3.7       0.0       0.0       0.0       0.0
 3 C  px              0.0       0.0       0.0       1.7       0.0       1.5
 3 C  py              6.9       0.0       1.2       0.0       0.5       0.0
 3 C  dz2             0.0       0.0       0.8       0.0       0.6       0.0
 3 C  dyz             0.0       0.4       0.0       0.0       0.1       0.0
 3 C  dx2y2           0.3       0.0       0.0       0.0       0.1       0.0
 3 C  dxy             0.0       0.0       0.0       0.5       0.0       0.4
 4 F  s               0.0       0.8       0.0       0.0       0.0       0.0
 4 F  pz              1.5       6.2       1.2       0.0       1.6       0.0
 4 F  px              0.0       0.0       0.0       7.1       0.0      18.4
 4 F  py              5.4       3.8      12.7       0.0      11.0       0.0
 5 F  s               1.5       0.7       0.0       0.0       0.0       0.0
 5 F  pz             16.3       2.7       3.1       0.0       2.5       0.0
 5 F  px              0.0       0.0       0.0      10.9       0.0       4.6
 5 F  py              2.3       6.7      10.0       0.0       8.3       0.0
 6 F  s               0.0       0.7       0.0       0.0       0.0       0.0
 6 F  pz              0.0       2.7       0.0       3.1       2.5       0.0
 6 F  px              0.0       6.7       0.0      10.0       8.3       0.0
 6 F  py              3.9       0.0      10.9       0.0       0.0       4.6
 7 F  s               0.0       0.8       0.0       0.0       0.0       0.0
 7 F  pz              0.0       6.3       0.0       1.2       1.6       0.0
 7 F  px              0.0       3.8       0.0      12.7      10.9       0.0
 7 F  py              3.1       0.0       7.1       0.0       0.0      18.3
 8 F  s               1.5       0.7       0.0       0.0       0.0       0.0
 8 F  pz             16.2       2.7       3.1       0.0       2.5       0.0
 8 F  px              0.0       0.0       0.0      10.9       0.0       4.6
 8 F  py              2.3       6.7      10.0       0.0       8.3       0.0
 9 F  s               0.0       0.8       0.0       0.0       0.0       0.0
 9 F  pz              1.5       6.3       1.2       0.0       1.6       0.0
 9 F  px              0.0       0.0       0.0       7.1       0.0      18.4
 9 F  py              5.4       3.8      12.7       0.0      11.0       0.0
10 F  s               0.0       0.8       0.0       0.0       0.0       0.0
10 F  pz              0.0       6.3       0.0       1.2       1.6       0.0
10 F  px              0.0       3.8       0.0      12.7      10.9       0.0
10 F  py              3.1       0.0       7.1       0.0       0.0      18.3
11 F  s               0.0       0.7       0.0       0.0       0.0       0.0
11 F  pz              0.0       2.7       0.0       3.1       2.5       0.0
11 F  px              0.0       6.7       0.0      10.0       8.3       0.0
11 F  py              3.9       0.0      10.9       0.0       0.0       4.6

                     36        37        38        39        40        41   
                  -0.41639  -0.41551  -0.40277  -0.40276  -0.39496  -0.37971
                   2.00000   2.00000   2.00000   2.00000   2.00000   2.00000
                  --------  --------  --------  --------  --------  --------
 0 C  s               0.4       0.0       0.0       0.0       0.0       0.0
 0 C  pz              0.0       0.0       0.8       0.0       1.1       0.0
 0 C  px              1.2       0.0       0.0       0.0       0.0       0.0
 0 C  py              0.0       0.1       0.0       0.0       0.0       0.0
 0 C  dz2             0.8       0.0       0.0       0.0       0.0       0.0
 0 C  dxz             0.0       0.0       0.2       0.0       0.5       0.0
 0 C  dyz             0.0       0.4       0.0       0.7       0.0       0.3
 0 C  dx2y2           0.2       0.0       0.0       0.0       0.0       0.0
 1 C  s               0.4       0.0       0.0       0.0       0.0       0.0
 1 C  pz              0.0       0.0       0.0       0.8       1.1       0.0
 1 C  px              0.0       0.1       0.0       0.0       0.0       0.0
 1 C  py              1.2       0.0       0.0       0.0       0.0       0.0
 1 C  dz2             0.8       0.0       0.0       0.0       0.0       0.0
 1 C  dxz             0.0       0.4       0.7       0.0       0.0       0.3
 1 C  dyz             0.0       0.0       0.0       0.2       0.5       0.0
 1 C  dx2y2           0.2       0.0       0.0       0.0       0.0       0.0
 2 C  s               0.4       0.0       0.0       0.0       0.0       0.0
 2 C  pz              0.0       0.0       0.8       0.0       1.1       0.0
 2 C  px              1.2       0.0       0.0       0.0       0.0       0.0
 2 C  py              0.0       0.1       0.0       0.0       0.0       0.0
 2 C  dz2             0.8       0.0       0.0       0.0       0.0       0.0
 2 C  dxz             0.0       0.0       0.2       0.0       0.5       0.0
 2 C  dyz             0.0       0.4       0.0       0.7       0.0       0.3
 2 C  dx2y2           0.2       0.0       0.0       0.0       0.0       0.0
 3 C  s               0.4       0.0       0.0       0.0       0.0       0.0
 3 C  pz              0.0       0.0       0.0       0.8       1.1       0.0
 3 C  px              0.0       0.1       0.0       0.0       0.0       0.0
 3 C  py              1.2       0.0       0.0       0.0       0.0       0.0
 3 C  dz2             0.8       0.0       0.0       0.0       0.0       0.0
 3 C  dxz             0.0       0.4       0.7       0.0       0.0       0.3
 3 C  dyz             0.0       0.0       0.0       0.2       0.5       0.0
 3 C  dx2y2           0.2       0.0       0.0       0.0       0.0       0.0
 4 F  pz              0.3       0.0       0.0       3.4       6.8       0.0
 4 F  px              0.0       5.2      20.8       0.0       0.0      12.7
 4 F  py             11.3       0.0       0.0       1.9       3.7       0.0
 5 F  pz              1.9       0.0       0.0       3.0      10.1       0.0
 5 F  px              0.0      19.1      18.9       0.0       0.0      12.0
 5 F  py              8.8       0.0       0.0       0.3       2.7       0.0
 6 F  pz              1.9       0.0       2.9       0.0      10.1       0.0
 6 F  px              8.8       0.0       0.3       0.0       2.7       0.0
 6 F  py              0.0      19.1       0.0      18.8       0.0      12.0
 7 F  pz              0.3       0.0       3.4       0.0       6.8       0.0
 7 F  px             11.3       0.0       1.9       0.0       3.7       0.0
 7 F  py              0.0       5.2       0.0      20.9       0.0      12.7
 8 F  pz              1.9       0.0       0.0       2.9      10.1       0.0
 8 F  px              0.0      19.1      18.9       0.0       0.0      12.0
 8 F  py              8.8       0.0       0.0       0.3       2.7       0.0
 9 F  pz              0.3       0.0       0.0       3.4       6.8       0.0
 9 F  px              0.0       5.2      20.9       0.0       0.0      12.7
 9 F  py             11.3       0.0       0.0       1.9       3.7       0.0
10 F  pz              0.3       0.0       3.4       0.0       6.8       0.0
10 F  px             11.3       0.0       1.9       0.0       3.7       0.0
10 F  py              0.0       5.2       0.0      20.9       0.0      12.7
11 F  pz              1.9       0.0       2.9       0.0      10.1       0.0
11 F  px              8.8       0.0       0.3       0.0       2.7       0.0
11 F  py              0.0      19.1       0.0      18.8       0.0      12.0

                     42        43        44        45        46        47   
                  -0.37328  -0.37328  -0.36711  -0.33379  -0.33378  -0.27634
                   2.00000   2.00000   2.00000   2.00000   2.00000   2.00000
                  --------  --------  --------  --------  --------  --------
 0 C  s               0.0       0.0       0.0       4.5       0.0       0.0
 0 C  pz              0.2       0.0       0.0       0.1       0.0       0.0
 0 C  px              0.0       0.0       0.0       6.6       0.0       0.0
 0 C  py              0.0       0.0       0.0       0.0       5.1      10.5
 0 C  dz2             0.0       0.0       0.0       0.7       0.0       0.0
 0 C  dxz             0.4       0.0       0.2       0.0       0.0       0.0
 0 C  dxy             0.0       0.0       0.0       0.0       1.5       0.6
 1 C  s               0.0       0.0       0.0       0.0       4.5       0.0
 1 C  pz              0.0       0.2       0.0       0.0       0.1       0.0
 1 C  px              0.0       0.0       0.0       5.1       0.0      10.5
 1 C  py              0.0       0.0       0.0       0.0       6.6       0.0
 1 C  dz2             0.0       0.0       0.0       0.0       0.7       0.0
 1 C  dyz             0.0       0.4       0.2       0.0       0.0       0.0
 1 C  dxy             0.0       0.0       0.0       1.5       0.0       0.6
 2 C  s               0.0       0.0       0.0       4.5       0.0       0.0
 2 C  pz              0.2       0.0       0.0       0.1       0.0       0.0
 2 C  px              0.0       0.0       0.0       6.6       0.0       0.0
 2 C  py              0.0       0.0       0.0       0.0       5.1      10.5
 2 C  dz2             0.0       0.0       0.0       0.7       0.0       0.0
 2 C  dxz             0.4       0.0       0.2       0.0       0.0       0.0
 2 C  dxy             0.0       0.0       0.0       0.0       1.5       0.6
 3 C  s               0.0       0.0       0.0       0.0       4.5       0.0
 3 C  pz              0.0       0.2       0.0       0.0       0.1       0.0
 3 C  px              0.0       0.0       0.0       5.1       0.0      10.5
 3 C  py              0.0       0.0       0.0       0.0       6.6       0.0
 3 C  dz2             0.0       0.0       0.0       0.0       0.7       0.0
 3 C  dyz             0.0       0.4       0.2       0.0       0.0       0.0
 3 C  dxy             0.0       0.0       0.0       1.5       0.0       0.6
 4 F  pz              0.0       9.0       5.1       0.0       0.2       0.0
 4 F  px              4.8       0.0       0.0       8.5       0.0       6.7
 4 F  py              0.0      10.4       7.1       0.0       6.8       0.0
 5 F  pz              0.0      14.2       8.2       0.0       0.1       0.0
 5 F  px              3.6       0.0       0.0       8.4       0.0       7.1
 5 F  py              0.0       7.3       4.4       0.0       7.3       0.0
 6 F  pz             14.2       0.0       8.2       0.1       0.0       0.0
 6 F  px              7.3       0.0       4.4       7.4       0.0       0.0
 6 F  py              0.0       3.6       0.0       0.0       8.4       7.1
 7 F  pz              9.0       0.0       5.1       0.2       0.0       0.0
 7 F  px             10.4       0.0       7.1       6.8       0.0       0.0
 7 F  py              0.0       4.8       0.0       0.0       8.5       6.7
 8 F  pz              0.0      14.2       8.2       0.0       0.1       0.0
 8 F  px              3.6       0.0       0.0       8.4       0.0       7.1
 8 F  py              0.0       7.3       4.4       0.0       7.3       0.0
 9 F  pz              0.0       9.0       5.1       0.0       0.2       0.0
 9 F  px              4.8       0.0       0.0       8.5       0.0       6.7
 9 F  py              0.0      10.4       7.1       0.0       6.8       0.0
10 F  pz              9.0       0.0       5.1       0.2       0.0       0.0
10 F  px             10.4       0.0       7.1       6.8       0.0       0.0
10 F  py              0.0       4.8       0.0       0.0       8.5       6.7
11 F  pz             14.2       0.0       8.2       0.1       0.0       0.0
11 F  px              7.3       0.0       4.4       7.4       0.0       0.0
11 F  py              0.0       3.6       0.0       0.0       8.4       7.1

                     48        49        50        51        52        53   
                  -0.07057   0.02712   0.08359   0.08359   0.12156   0.12161
                   0.00000   0.00000   0.00000   0.00000   0.00000   0.00000
                  --------  --------  --------  --------  --------  --------
 0 C  s               0.0       7.2       0.0       3.7       0.6       0.0
 0 C  pz             11.3       0.0       0.0       0.9      26.9       0.0
 0 C  px              0.1       5.9       0.0      16.0       0.5       0.0
 0 C  py              0.0       0.0      15.0       0.0       0.0       0.4
 0 C  dz2             0.1       0.7       0.0       1.2       0.2       0.0
 0 C  dxz             3.6       0.0       0.0       0.0       3.8       0.0
 0 C  dyz             0.0       0.0       0.0       0.0       0.0       1.4
 0 C  dx2y2           0.0       2.5       0.0       0.9       0.0       0.0
 0 C  dxy             0.0       0.0       3.2       0.0       0.0       0.1
 1 C  s               0.0       7.2       3.7       0.0       0.0       0.6
 1 C  pz             11.3       0.0       0.9       0.0       0.0      26.9
 1 C  px              0.0       0.0       0.0      15.0       0.4       0.0
 1 C  py              0.1       5.9      16.0       0.0       0.0       0.4
 1 C  dz2             0.1       0.7       1.2       0.0       0.0       0.2
 1 C  dxz             0.0       0.0       0.0       0.0       1.4       0.0
 1 C  dyz             3.6       0.0       0.0       0.0       0.0       3.8
 1 C  dx2y2           0.0       2.5       0.9       0.0       0.0       0.0
 1 C  dxy             0.0       0.0       0.0       3.2       0.1       0.0
 2 C  s               0.0       7.2       0.0       3.7       0.6       0.0
 2 C  pz             11.3       0.0       0.0       0.9      26.9       0.0
 2 C  px              0.1       5.9       0.0      16.0       0.5       0.0
 2 C  py              0.0       0.0      15.0       0.0       0.0       0.4
 2 C  dz2             0.1       0.7       0.0       1.2       0.2       0.0
 2 C  dxz             3.6       0.0       0.0       0.0       3.8       0.0
 2 C  dyz             0.0       0.0       0.0       0.0       0.0       1.4
 2 C  dx2y2           0.0       2.5       0.0       0.9       0.0       0.0
 2 C  dxy             0.0       0.0       3.2       0.0       0.0       0.1
 3 C  s               0.0       7.2       3.7       0.0       0.0       0.6
 3 C  pz             11.3       0.0       0.9       0.0       0.0      26.9
 3 C  px              0.0       0.0       0.0      15.0       0.4       0.0
 3 C  py              0.1       5.9      16.0       0.0       0.0       0.4
 3 C  dz2             0.1       0.7       1.2       0.0       0.0       0.2
 3 C  dxz             0.0       0.0       0.0       0.0       1.4       0.0
 3 C  dyz             3.6       0.0       0.0       0.0       0.0       3.8
 3 C  dx2y2           0.0       2.5       0.9       0.0       0.0       0.0
 3 C  dxy             0.0       0.0       0.0       3.2       0.1       0.0
 4 F  s               0.9       1.2       0.5       0.0       0.0       2.4
 4 F  pz              0.6       2.4       1.1       0.0       0.0       2.3
 4 F  px              0.0       0.0       0.0       1.9       0.9       0.0
[...]
11 F  dxy             5.9       0.0       0.1       0.0       0.0       0.0

                    162       163       164       165       166       167   
                   3.61479   3.67732   3.70525   3.75093   3.75103   3.81291
                   0.00000   0.00000   0.00000   0.00000   0.00000   0.00000
                  --------  --------  --------  --------  --------  --------
 0 C  s               0.0       0.8       0.1       0.0       0.0       0.0
 0 C  pz              0.0       0.1       1.4       2.5       0.0       1.1
 0 C  px              0.0       0.7       0.0       0.0       0.0       0.0
 0 C  dz2             0.0       3.0       0.5       0.2       0.0       0.1
 0 C  dxz             0.0       0.3       1.3       4.5       0.0       4.2
 0 C  dyz             0.0       0.0       0.0       0.0       0.3       0.0
 0 C  dx2y2           0.0       0.1       0.0       0.0       0.0       0.0
 0 C  dxy             0.1       0.0       0.0       0.0       0.0       0.0
 1 C  s               2.0       0.8       0.1       0.0       0.0       0.0
 1 C  pz              0.0       0.1       1.4       0.0       2.5       1.1
 1 C  py              1.3       0.7       0.0       0.0       0.0       0.0
 1 C  dz2             3.6       3.0       0.5       0.0       0.2       0.1
 1 C  dxz             0.0       0.0       0.0       0.3       0.0       0.0
 1 C  dyz             0.1       0.3       1.3       0.0       4.5       4.2
 1 C  dx2y2           0.1       0.1       0.0       0.0       0.0       0.0
 2 C  s               0.0       0.8       0.1       0.0       0.0       0.0
 2 C  pz              0.0       0.1       1.4       2.5       0.0       1.1
 2 C  px              0.0       0.7       0.0       0.0       0.0       0.0
 2 C  dz2             0.0       3.0       0.5       0.2       0.0       0.1
 2 C  dxz             0.0       0.3       1.3       4.5       0.0       4.2
 2 C  dyz             0.0       0.0       0.0       0.0       0.3       0.0
 2 C  dx2y2           0.0       0.1       0.0       0.0       0.0       0.0
 2 C  dxy             0.1       0.0       0.0       0.0       0.0       0.0
 3 C  s               2.0       0.8       0.1       0.0       0.0       0.0
 3 C  pz              0.0       0.1       1.4       0.0       2.5       1.1
 3 C  py              1.3       0.7       0.0       0.0       0.0       0.0
 3 C  dz2             3.6       3.0       0.5       0.0       0.2       0.1
 3 C  dxz             0.0       0.0       0.0       0.3       0.0       0.0
 3 C  dyz             0.1       0.3       1.3       0.0       4.5       4.2
 3 C  dx2y2           0.1       0.1       0.0       0.0       0.0       0.0
 4 F  s               1.2       0.0       1.5       0.0       2.3       0.5
 4 F  pz              0.3       0.0       0.5       0.0       0.8       0.4
 4 F  py              0.5       0.1       0.3       0.0       0.2       0.0
 4 F  dz2             1.6       0.5       4.4       0.0       8.0       5.5
 4 F  dxz             0.0       0.0       0.0       0.2       0.0       0.0
 4 F  dyz            15.1       3.9       8.1       0.0       8.7       3.0
 4 F  dx2y2           2.8       1.4       0.9       0.0       0.3       0.0
 4 F  dxy             0.0       0.0       0.0       0.6       0.0       0.0
 5 F  s               0.9       0.6       0.8       0.0       2.3       0.6
 5 F  pz              0.2       0.0       0.2       0.0       0.6       0.4
 5 F  py              0.7       0.5       0.1       0.0       0.4       0.2
 5 F  dz2             0.0       1.2       1.1       0.0       2.4       1.6
 5 F  dyz            12.9       6.8       3.4       0.0      13.0       6.9
 5 F  dx2y2           6.5       4.9       0.4       0.0       2.0       0.7
 5 F  dxy             0.0       0.0       0.0       0.6       0.0       0.0
 6 F  s               0.0       0.6       0.8       2.3       0.0       0.6
 6 F  pz              0.0       0.0       0.2       0.6       0.0       0.4
 6 F  px              0.0       0.5       0.1       0.4       0.0       0.2
 6 F  dz2             0.0       1.2       1.1       2.4       0.0       1.5
 6 F  dxz             0.0       6.8       3.4      13.0       0.0       6.9
 6 F  dx2y2           0.0       4.9       0.4       2.0       0.0       0.7
 6 F  dxy             0.1       0.0       0.0       0.0       0.6       0.0
 7 F  s               0.0       0.0       1.5       2.3       0.0       0.5
 7 F  pz              0.0       0.0       0.5       0.8       0.0       0.4
 7 F  px              0.0       0.1       0.3       0.2       0.0       0.0
 7 F  dz2             0.0       0.5       4.4       8.0       0.0       5.5
 7 F  dxz             0.0       3.9       8.1       8.7       0.0       3.0
 7 F  dyz             0.0       0.0       0.0       0.0       0.2       0.0
 7 F  dx2y2           0.0       1.4       0.9       0.3       0.0       0.0
 7 F  dxy             0.0       0.0       0.0       0.0       0.6       0.0
 8 F  s               0.9       0.6       0.7       0.0       2.3       0.6
 8 F  pz              0.2       0.0       0.2       0.0       0.6       0.4
 8 F  py              0.7       0.5       0.1       0.0       0.4       0.2
 8 F  dz2             0.0       1.2       1.1       0.0       2.4       1.6
 8 F  dyz            12.9       6.8       3.4       0.0      13.0       6.9
 8 F  dx2y2           6.5       4.9       0.4       0.0       2.0       0.7
 8 F  dxy             0.0       0.0       0.0       0.6       0.0       0.0
 9 F  s               1.2       0.0       1.5       0.0       2.3       0.5
 9 F  pz              0.3       0.0       0.5       0.0       0.8       0.4
 9 F  py              0.5       0.1       0.3       0.0       0.2       0.0
 9 F  dz2             1.6       0.5       4.4       0.0       8.0       5.5
 9 F  dxz             0.0       0.0       0.0       0.2       0.0       0.0
 9 F  dyz            15.1       3.9       8.1       0.0       8.7       3.0
 9 F  dx2y2           2.8       1.4       0.9       0.0       0.3       0.0
 9 F  dxy             0.0       0.0       0.0       0.6       0.0       0.0
10 F  s               0.0       0.0       1.5       2.3       0.0       0.5
10 F  pz              0.0       0.0       0.5       0.8       0.0       0.4
10 F  px              0.0       0.1       0.3       0.2       0.0       0.0
10 F  dz2             0.0       0.5       4.4       8.0       0.0       5.5
10 F  dxz             0.0       3.9       8.1       8.7       0.0       3.0
10 F  dyz             0.0       0.0       0.0       0.0       0.2       0.0
10 F  dx2y2           0.0       1.4       0.9       0.3       0.0       0.0
10 F  dxy             0.0       0.0       0.0       0.0       0.6       0.0
11 F  s               0.0       0.6       0.8       2.3       0.0       0.6
11 F  pz              0.0       0.0       0.2       0.6       0.0       0.4
11 F  px              0.0       0.5       0.1       0.4       0.0       0.2
11 F  dz2             0.0       1.2       1.1       2.4       0.0       1.5
11 F  dxz             0.0       6.8       3.4      13.0       0.0       6.9
11 F  dx2y2           0.0       4.9       0.4       2.0       0.0       0.7
11 F  dxy             0.1       0.0       0.0       0.0       0.6       0.0



                      *****************************
                      * MAYER POPULATION ANALYSIS *
                      *****************************

  NA   - Mulliken gross atomic population
  ZA   - Total nuclear charge
  QA   - Mulliken gross atomic charge
  VA   - Mayer's total valence
  BVA  - Mayer's bonded valence
  FA   - Mayer's free valence

  ATOM       NA         ZA         QA         VA         BVA        FA
  0 C      5.7591     6.0000     0.2409     4.1974     4.1974     0.0000
  1 C      5.7592     6.0000     0.2408     4.1974     4.1974    -0.0000
  2 C      5.7591     6.0000     0.2409     4.1974     4.1974    -0.0000
  3 C      5.7592     6.0000     0.2408     4.1973     4.1973    -0.0000
  4 F      9.1168     9.0000    -0.1168     1.2589     1.2589     0.0000
  5 F      9.1240     9.0000    -0.1240     1.2580     1.2580    -0.0000
  6 F      9.1240     9.0000    -0.1240     1.2580     1.2580    -0.0000
  7 F      9.1169     9.0000    -0.1169     1.2588     1.2588    -0.0000
  8 F      9.1240     9.0000    -0.1240     1.2580     1.2580    -0.0000
  9 F      9.1168     9.0000    -0.1168     1.2588     1.2588    -0.0000
 10 F      9.1169     9.0000    -0.1169     1.2588     1.2588    -0.0000
 11 F      9.1240     9.0000    -0.1240     1.2580     1.2580     0.0000

  Mayer bond orders larger than 0.100000
B(  0-C ,  1-C ) :   0.9064 B(  0-C ,  3-C ) :   0.9064 B(  0-C , 10-F ) :   1.1846 
B(  0-C , 11-F ) :   1.1568 B(  1-C ,  2-C ) :   0.9064 B(  1-C ,  8-F ) :   1.1568 
B(  1-C ,  9-F ) :   1.1847 B(  2-C ,  3-C ) :   0.9064 B(  2-C ,  6-F ) :   1.1568 
B(  2-C ,  7-F ) :   1.1846 B(  3-C ,  4-F ) :   1.1847 B(  3-C ,  5-F ) :   1.1567 


-------
TIMINGS
-------

Total SCF time: 0 days 0 hours 0 min 0 sec 

Total time                  ....       0.725 sec
Sum of individual times     ....       0.717 sec  ( 98.8%)

SCF preparation             ....       0.028 sec  (  3.9%)
Fock matrix formation       ....       0.609 sec  ( 84.0%)
  Startup                   ....       0.001 sec  (  0.2% of F)
  Split-RI-J                ....       0.295 sec  ( 48.5% of F)
  XC integration            ....       0.310 sec  ( 50.9% of F)
    Basis function eval.    ....       0.111 sec  ( 35.8% of XC)
    Density eval.           ....       0.072 sec  ( 23.4% of XC)
    XC-Functional eval.     ....       0.021 sec  (  6.7% of XC)
    XC-Potential eval.      ....       0.094 sec  ( 30.2% of XC)
Diagonalization             ....       0.000 sec  (  0.0%)
Density matrix formation    ....       0.001 sec  (  0.2%)
Total Energy calculation    ....       0.000 sec  (  0.0%)
Population analysis         ....       0.065 sec  (  9.0%)
Orbital Transformation      ....       0.003 sec  (  0.5%)
Orbital Orthonormalization  ....       0.000 sec  (  0.0%)
DIIS solution               ....       0.004 sec  (  0.5%)
  MO trafo                  ....       0.000 sec  (  0.0 % of DIIS)
  Orb grad                  ....       0.000 sec  (  0.0 % of DIIS)
  Energy W gradient         ....       0.000 sec  (  0.0 % of DIIS)
  DIIS error                ....       0.001 sec  ( 14.7 % of DIIS)
  DIIS work                 ....       0.003 sec  ( 83.5 % of DIIS)
  Form Q                    ....       0.000 sec  (  0.0 % of DIIS)
  Form QpQm                 ....       0.000 sec  (  0.0 % of DIIS)
  Exp/Cayley                ....       0.000 sec  (  0.0 % of DIIS)
  Orb update                ....       0.000 sec  (  0.0 % of DIIS)
  Wake-sleep                ....       0.000 sec  (  1.8 % of DIIS)
SOSCF solution              ....       0.005 sec  (  0.7%)
  MO trafo                  ....       0.004 sec  ( 75.4 % of SOSCF)
  Orb grad                  ....       0.000 sec  (  0.7 % of SOSCF)
  Rot update                ....       0.000 sec  (  0.4 % of SOSCF)
  Step                      ....       0.001 sec  ( 21.6 % of SOSCF)
Finished LeanSCF after   0.7 sec

Maximum memory used throughout the entire LEANSCF-calculation: 13.9 MB


-------------------------------------------------------------------------------
                          DFT DISPERSION CORRECTION                            
                                                                               
                                DFTD4 V3.4.0                                   
-------------------------------------------------------------------------------
The PBE functional is recognized
Active option DFTDOPT                   ...         5   

-------------------------   ----------------
Dispersion correction           -0.011911610
-------------------------   ----------------

------------------   -----------------
gCP correction             0.112006786
------------------   -----------------

-------------------------   --------------------
FINAL SINGLE POINT ENERGY      -949.378033640224
-------------------------   --------------------


------------------------------------------------------------------------------
                              ORCA PROPERTY CALCULATIONS
------------------------------------------------------------------------------

GBWName                                 ... sp.gbw
Number of atoms                         ...     12
Number of basis functions               ...    168
Max core memory                         ...   1024 MB

Electric properties:
Dipole moment                           ... YES
Quadrupole moment                       ...  NO
Static polarizability (Dipole/Dipole)   ...  NO
Static polarizability (Dipole/Quad.)    ...  NO
Static polarizability (Quad./Quad.)     ...  NO
Static polarizability (Velocity)        ...  NO

Atomic electric properties:
Dipole moment                           ...  NO
Quadrupole moment                       ...  NO
Static polarizability                   ...  NO

Choice of electric origin               ... Center of mass
Position of electric origin             ...    -0.000000    -0.000000     0.000000

General magnetic properties:
Magnetizability                         ...  NO

EPR properties:
g-Tensor (aka g-matrix)                 ...  NO
Zero-Field splitting spin-orbit         ...  NO
Zero-field splitting spin-spin          ...  NO
Hyperfine couplings                     ...  NO (   0 nuclei)
Quadrupole couplings                    ...  NO (   0 nuclei)
Contact density                         ...  NO (   0 nuclei)

NMR properties:
Chemical shifts                         ...  NO (   0 nuclei)
Spin-rotation constants                 ...  NO (   0 nuclei)
Spin-spin couplings                     ...  NO (   0 nuclei,    0 pairs)

Choice of magnetic origin               ... GIAO
Position of magnetic origin             ...     0.000000     0.000000     0.000000

Properties with geometric perturbations:
SCF Hessian                             ...  NO
IR spectrum                             ...  NO
VCD spectrum                            ...  NO
X-ray spectroscopy properties:
SCF XES/XAS/RIXS spectra                ...  NO


-------------
DIPOLE MOMENT
-------------

Method             : SCF
Type of density    : Electron Density
Multiplicity       :   1
Irrep              :   0
Energy             :  -949.4781288163967474 Eh
Relativity type    : 
Basis              : AO
                                X                 Y                 Z
Electronic contribution:     -0.000007026      -0.000082317       0.000303904
Nuclear contribution   :     -0.000003201      -0.000017346       0.000334135
                        -----------------------------------------
Total Dipole Moment    :     -0.000010227      -0.000099663       0.000638039
                        -----------------------------------------
Magnitude (a.u.)       :      0.000645857
Magnitude (Debye)      :      0.001641638



--------------------
Rotational spectrum 
--------------------
 
Rotational constants in cm-1:             0.035234             0.035233             0.028118 
Rotational constants in MHz :          1056.285585          1056.248203           842.968112 

Dipole components along the rotational axes: 
x,y,z [a.u.] :    -0.000010    -0.000100     0.000638 
x,y,z [Debye]:    -0.000026    -0.000253     0.001622 

 

Dipole moment calculation done in   0.0 sec 

Maximum memory used throughout the entire PROP-calculation: 9.6 MB

--------------------------------
SUGGESTED CITATIONS FOR THIS RUN
--------------------------------

Below you find a list of papers that are relevant to this ORCA run
We neither can nor want to force you to cite these papers, but we appreciate if you do
You receive ORCA, which is the product of decades of hard work by many enthusiastic individuals, for free
The only thing we kindly ask in return is that you cite our papers,
We deeply appreciate it, if you show your appreciation for ORCA by not just citing the generic ORCA reference.

Please note that relegating all ORCA citations to the supporting information does *not* help us.
SI sections are not indexed - citations you put there will not count into any citation statistics
But we need these citations in order to attract the funding resources that allow us to do what we are doing

Therefore, if you are a happy ORCA user, please consider citing a few of the papers listed below in the main body of your paper

In addition to the list printed below, the program has created the file sp.bibtex that contains the list in bibtex format
You can import this file easily into all common literature databanks and citation aid programs


List of essential papers. We consider these as the minimum necessary citations

  1. Neese,F.
     Software update: the ORCA program system, version 5.0
     WIRES Comput. Molec. Sci., 2022 12(1)e1606
     doi.org/10.1002/wcms.1606

List of papers to cite with high priority. The work reported in these papers was absolutely
necessary for this run to complete.
Our perspective: the developers of density functionals and basis sets usually get cited in chemistry papers
Good! But without the algorithms to do something with them, the functionals or basis sets would not do anything.
Hence, in our opinion, the algorithm design and method developments papers are equally worthy of getting cited

  1. Neese,F.
     An improvement of the resolution of the identity approximation for the formation of the Coulomb matrix
     J. Comp. Chem., 2003 24(14)1740-1747
     doi.org/10.1002/jcc.10318
  2. Neese,F.
     The SHARK Integral Generation and Digestion System
     J. Comp. Chem., 2022  1-16
     doi.org/10.1002/jcc.26942
  3. Caldeweyher,E.; Bannwarth,C.; Grimme,S.
     Extension of the D3 dispersion coefficient model
     J. Chem. Phys., 2017 147 034112
     doi.org/10.1063/1.4993215
  4. Caldeweyher,E.; Ehlert,S.; Hansen,A.; Neugebauer,H.; Spicher,S.; Bannwarth,C.; Grimme,S.
     A generally applicable atomic-charge dependent London dispersion correction
     J. Chem. Phys., 2019 150 154122
     doi.org/10.1063/1.5090222
  5. Caldeweyher,E.; Mewes,J.; Ehlert,S.; Grimme,S.
     Extension and evaluation of the D4 London-dispersion model for periodic systems
     Phys. Chem. Chem. Phys., 2020 22(16)8499-8512
     doi.org/10.1039/D0CP00502A
  6. Wittmann,L.; Gordiy,I.; Friede,M.; Helmich-Paris,B.; Grimme,S.; Hansen,A.; Bursch,M.
     Extension of the D3 and D4 London Dispersion Corrections to the full Actinides Series
     Phys. Chem. Chem. Phys., 2024 26(32)21379-21394
     doi.org/https://doi.org/10.1039/D4CP01514B 

List of suggested additional citations. These are papers that are important in the 'surrounding' of 
of this run, or papers that preceded the highly important papers. If you like your results we are grateful for a citation.

  1. Neese,F.
     The ORCA program system
     WIRES Comput. Molec. Sci., 2012 2(1)73-78
     doi.org/10.1002/wcms.81
  2. Neese,F.
     Software update: the ORCA program system, version 4.0
     WIRES Comput. Molec. Sci., 2018 8(1)1-6
     doi.org/10.1002/wcms.1327
  3. Neese,F.; Wennmohs,F.; Becker,U.; Riplinger,C.
     The ORCA quantum chemistry program package
     J. Chem. Phys., 2020 152 Art. No. L224108
     doi.org/10.1063/5.0004608

List of optional additional citations

  1. Neese,F.
     Approximate second-order SCF convergence for spin unrestricted wavefunctions
     Chem. Phys. Lett., 2000 325(1-3)93-98
     doi.org/10.1016/s0009-2614(00)00662-x

Timings for individual modules:

Sum of individual times          ...        1.091 sec (=   0.018 min)
Startup calculation              ...        0.251 sec (=   0.004 min)  23.0 %
SCF iterations                   ...        0.800 sec (=   0.013 min)  73.4 %
Property calculations            ...        0.039 sec (=   0.001 min)   3.6 %
                             ****ORCA TERMINATED NORMALLY****
TOTAL RUN TIME: 0 days 0 hours 0 minutes 1 seconds 165 msec
