      -----------------------------------------------------------      
     |                   =====================                   |     
     |                           x T B                           |     
     |                   =====================                   |     
     |                         S. Grimme                         |     
     |          Mulliken Center for Theoretical Chemistry        |     
     |                    University of Bonn                     |     
      -----------------------------------------------------------      

   * xtb version 6.7.1 (41059b4) compiled by 'michael@archlinux' on 2025-03-24

   xtb is free software: you can redistribute it and/or modify it under
   the terms of the GNU Lesser General Public License as published by
   the Free Software Foundation, either version 3 of the License, or
   (at your option) any later version.
   
   xtb is distributed in the hope that it will be useful,
   but WITHOUT ANY WARRANTY; without even the implied warranty of
   MERCHANTABILITY or FITNESS FOR A PARTICULAR PURPOSE.  See the
   GNU Lesser General Public License for more details.
   
   Cite this work as:
   * C. Bannwarth, E. Caldeweyher, S. Ehlert, A. Hansen, P. Pracht,
     J. Seibert, S. Spicher, S. Grimme, WIREs Comput. Mol. Sci., 2020, 11,
     e01493. DOI: 10.1002/wcms.1493
   
   for GFN2-xTB:
   * C. Bannwarth, S. Ehlert and S. Grimme., J. Chem. Theory Comput., 2019,
     15, 1652-1671. DOI: 10.1021/acs.jctc.8b01176
   for GFN1-xTB:
   * S. Grimme, C. Bannwarth, P. Shushkov, J. Chem. Theory Comput., 2017,
     13, 1989-2009. DOI: 10.1021/acs.jctc.7b00118
   for GFN0-xTB:
   * P. Pracht, E. Caldeweyher, S. Ehlert, S. Grimme, ChemRxiv, 2019, preprint.
     DOI: 10.26434/chemrxiv.8326202.v1
   for GFN-FF:
   * S. Spicher and S. Grimme, Angew. Chem. Int. Ed., 2020, 59, 15665-15673.
     DOI: 10.1002/anie.202004239
   
   for ALPB and GBSA implicit solvation:
   * S. Ehlert, M. Stahn, S. Spicher, S. Grimme, J. Chem. Theory Comput.,
     2021, 17, 4250-4261. DOI: 10.1021/acs.jctc.1c00471
   
   for ddCOSMO and CPCM-X implicit solvation:
   * M. Stahn, S. Ehlert, S. Grimme, J. Phys. Chem. A,
     2023, XX, XXXX-XXXX. DOI: 10.1021/acs.jpca.3c04382
   
   for DFT-D4:
   * E. Caldeweyher, C. Bannwarth and S. Grimme, J. Chem. Phys., 2017,
     147, 034112. DOI: 10.1063/1.4993215
   * E. Caldeweyher, S. Ehlert, A. Hansen, H. Neugebauer, S. Spicher,
     C. Bannwarth and S. Grimme, J. Chem. Phys., 2019, 150, 154122.
     DOI: 10.1063/1.5090222
   * E. Caldeweyher, J.-M. Mewes, S. Ehlert and S. Grimme, Phys. Chem. Chem. Phys.
     2020, 22, 8499-8512. DOI: 10.1039/D0CP00502A
   
   for sTDA-xTB:
   * S. Grimme and C. Bannwarth, J. Chem. Phys., 2016, 145, 054103.
     DOI: 10.1063/1.4959605
   
   in the mass-spec context:
   * V. Asgeirsson, C. Bauer and S. Grimme, Chem. Sci., 2017, 8, 4879.
     DOI: 10.1039/c7sc00601b
   * J. Koopman and S. Grimme, ACS Omega 2019, 4, 12, 15120-15133.
     DOI: 10.1021/acsomega.9b02011
   
   for metadynamics refer to:
   * S. Grimme, J. Chem. Theory Comput., 2019, 155, 2847-2862
     DOI: 10.1021/acs.jctc.9b00143
   
   for SPH calculations refer to:
   * S. Spicher and S. Grimme, J. Chem. Theory Comput., 2021, 17, 1701-1714
     DOI: 10.1021/acs.jctc.0c01306
   
   for ONIOM refer to:
   * C. Plett, A. Katbashev, S. Ehlert, S. Grimme, M. Bursch,
     Phys. Chem. Chem. Phys., 2023, 25, 17860-17868. DOI: 10.1039/D3CP02178E
   
   for DIPRO refer to:
   * J. Kohn, N. Gildemeister, S. Grimme, D. Fazzi, A. Hansen,
     J. Chem. Phys., 2023, just accepted.
   
   for PTB refer to:
   * S. Grimme, M. Mueller, A. Hansen, J. Chem. Phys., 2023, 158, 124111.
     DOI: 10.1063/5.0137838
   
   with help from (in alphabetical order)
   P. Atkinson, C. Bannwarth, F. Bohle, G. Brandenburg, E. Caldeweyher
   M. Checinski, S. Dohm, S. Ehlert, S. Ehrlich, I. Gerasimov, C. Hölzer
   A. Katbashev, J. Kohn, J. Koopman, C. Lavigne, S. Lehtola, F. März, M. Müller,
   F. Musil, H. Neugebauer, J. Pisarek, C. Plett, P. Pracht, F. Pultar,
   J. Seibert, P. Shushkov, S. Spicher, M. Stahn, M. Steiner, T. Strunk,
   J. Stückrath, T. Rose, and J. Unsleber
   
 * started run on 2025/04/09 at 03:26:32.917     
   ID    Z sym.   atoms
    1    6 C      1-12
    2    1 H      13-22

           -------------------------------------------------
          |                Calculation Setup                |
           -------------------------------------------------

          program call               : /usr/bin/xtb xtb_rrho.coord --gfn2 --ohess vtight --chrg 0 --enso --norestart -I rrho-xcontrol-inp --parallel 1
          coordinate file            : xtb_rrho.coord
          omp threads                :                     1


           -------------------------------------------------
          |                 G F N 2 - x T B                 |
           -------------------------------------------------

        Reference                      10.1021/acs.jctc.8b01176
      * Hamiltonian:
        H0-scaling (s, p, d)           1.850000    2.230000    2.230000
        zeta-weighting                 0.500000
      * Dispersion:
        s8                             2.700000
        a1                             0.520000
        a2                             5.000000
        s9                             5.000000
      * Repulsion:
        kExp                           1.500000    1.000000
        rExp                           1.000000
      * Coulomb:
        alpha                          2.000000
        third order                    shell-resolved
        anisotropic                    true
        a3                             3.000000
        a5                             4.000000
        cn-shift                       1.200000
        cn-exp                         4.000000
        max-rad                        5.000000


          ...................................................
          :                      SETUP                      :
          :.................................................:
          :  # basis functions                  58          :
          :  # atomic orbitals                  58          :
          :  # shells                           34          :
          :  # electrons                        58          :
          :  max. iterations                   250          :
          :  Hamiltonian                  GFN2-xTB          :
          :  restarted?                      false          :
          :  GBSA solvation                  false          :
          :  PC potential                    false          :
          :  electronic temp.          300.0000000     K    :
          :  accuracy                    1.0000000          :
          :  -> integral cutoff          0.2500000E+02      :
          :  -> integral neglect         0.1000000E-07      :
          :  -> SCF convergence          0.1000000E-05 Eh   :
          :  -> wf. convergence          0.1000000E-03 e    :
          :  Broyden damping             0.4000000          :
          :  net charge                          0          :
          :  unpaired electrons                  0          :
          ...................................................

 iter      E             dE          RMSdq      gap      omega  full diag
   1    -31.3332494 -0.313332E+02  0.437E+00    3.14       0.0  T
   2    -31.3523922 -0.191428E-01  0.260E+00    3.11       1.0  T
   3    -31.3453881  0.700410E-02  0.846E-01    3.12       1.0  T
   4    -31.3530862 -0.769810E-02  0.330E-01    3.09       1.0  T
   5    -31.3546949 -0.160869E-02  0.839E-02    3.10       1.0  T
   6    -31.3548378 -0.142951E-03  0.356E-02    3.10       1.0  T
   7    -31.3548460 -0.813419E-05  0.169E-02    3.10       1.3  T
   8    -31.3548474 -0.141105E-05  0.539E-03    3.10       4.0  T
   9    -31.3548478 -0.431380E-06  0.796E-04    3.10      26.8  T
  10    -31.3548478 -0.165755E-08  0.427E-04    3.10      49.9  T

   *** convergence criteria satisfied after 10 iterations ***

         #    Occupation            Energy/Eh            Energy/eV
      -------------------------------------------------------------
         1        2.0000           -0.6491925             -17.6654
       ...           ...                  ...                  ...
        23        2.0000           -0.4336370             -11.7999
        24        2.0000           -0.4332200             -11.7885
        25        2.0000           -0.4127566             -11.2317
        26        2.0000           -0.4125087             -11.2249
        27        2.0000           -0.4098332             -11.1521
        28        2.0000           -0.3925273             -10.6812
        29        2.0000           -0.3644764              -9.9179 (HOMO)
        30                         -0.2507112              -6.8222 (LUMO)
        31                         -0.2232535              -6.0750
        32                         -0.1840577              -5.0085
        33                         -0.1432654              -3.8985
        34                         -0.0540037              -1.4695
       ...                                ...                  ...
        58                          0.7011128              19.0783
      -------------------------------------------------------------
                  HL-Gap            0.1137653 Eh            3.0957 eV
             Fermi-level           -0.3075938 Eh           -8.3701 eV

 SCC (total)                   0 d,  0 h,  0 min,  0.012 sec
 SCC setup                      ...        0 min,  0.000 sec (  0.734%)
 Dispersion                     ...        0 min,  0.000 sec (  1.054%)
 classical contributions        ...        0 min,  0.000 sec (  0.247%)
 integral evaluation            ...        0 min,  0.002 sec ( 15.506%)
 iterations                     ...        0 min,  0.005 sec ( 41.473%)
 molecular gradient             ...        0 min,  0.005 sec ( 40.309%)
 printout                       ...        0 min,  0.000 sec (  0.614%)

         :::::::::::::::::::::::::::::::::::::::::::::::::::::
         ::                     SUMMARY                     ::
         :::::::::::::::::::::::::::::::::::::::::::::::::::::
         :: total energy             -30.797738704394 Eh    ::
         :: gradient norm              0.019164558665 Eh/a0 ::
         :: HOMO-LUMO gap              3.095710313880 eV    ::
         ::.................................................::
         :: SCC energy               -31.354732562970 Eh    ::
         :: -> isotropic ES            0.002048878602 Eh    ::
         :: -> anisotropic ES          0.004342531386 Eh    ::
         :: -> anisotropic XC          0.018862328513 Eh    ::
         :: -> dispersion             -0.021981369140 Eh    ::
         :: repulsion energy           0.556993858576 Eh    ::
         :: add. restraining           0.000000000000 Eh    ::
         :: total charge              -0.000000000000 e     ::
         :::::::::::::::::::::::::::::::::::::::::::::::::::::

      ----------------------------------------------------------- 
     |                   =====================                   |
     |                        A N C O P T                        |
     |                   =====================                   |
     |               Approximate Normal Coordinate               |
     |                Rational Function Optimizer                |
      ----------------------------------------------------------- 

          ...................................................
          :                      SETUP                      :
          :.................................................:
          :   optimization level         verytight          :
          :   max. optcycles                   440          :
          :   ANC micro-cycles                  20          :
          :   degrees of freedom                60          :
          :.................................................:
          :   RF solver                   davidson          :
          :   write xtbopt.log                true          :
          :   linear?                        false          :
          :   energy convergence         0.1000000E-06 Eh   :
          :   grad. convergence          0.2000000E-03 Eh/α :
          :   maximum RF displ.          1.0000000          :
          :   Hlow (freq-cutoff)         0.1000000E-01      :
          :   Hmax (freq-cutoff)         5.0000000          :
          :   S6 in model hess.         20.0000000          :
          ...................................................

generating ANC from exact Hessian ...
Using Lindh-Hessian (1995)
 Shifting diagonal of input Hessian by    5.0134194178939268E-003
 Lowest  eigenvalues of input Hessian
    0.000000    0.000000    0.000000    0.000000    0.000000    0.000000
    0.010000    0.010155    0.014172    0.014445    0.024195    0.024310
    0.035300    0.037341    0.038591    0.042685    0.048927    0.050729
 Highest eigenvalues
    1.713051    1.798086    1.859147    1.920413    2.013172    2.063739


........................................................................
.............................. CYCLE    1 ..............................
........................................................................

 iter      E             dE          RMSdq      gap      omega  full diag
   1    -31.3548478 -0.313548E+02  0.124E-04    3.10       0.0  T
   2    -31.3548478 -0.474429E-10  0.807E-05    3.10     264.0  T
   3    -31.3548478 -0.223466E-10  0.511E-05    3.10     417.1  T
     SCC iter.                  ...        0 min,  0.002 sec
     gradient                   ...        0 min,  0.005 sec
 * total energy  :   -30.7977387 Eh     change       -0.1748095E-08 Eh
   gradient norm :     0.0191647 Eh/α   predicted     0.0000000E+00 (-100.00%)
   displ. norm   :     0.1186914 α      lambda       -0.1676349E-02
   maximum displ.:     0.0700437 α      in ANC's #15, #25, #31, ...

........................................................................
.............................. CYCLE    2 ..............................
........................................................................

 iter      E             dE          RMSdq      gap      omega  full diag
   1    -31.3769979 -0.313770E+02  0.107E-01    3.14       0.0  T
   2    -31.3769999 -0.198668E-05  0.641E-02    3.14       1.0  T
   3    -31.3769889  0.109632E-04  0.282E-02    3.14       1.0  T
   4    -31.3770014 -0.124606E-04  0.386E-03    3.14       5.5  T
   5    -31.3770016 -0.278514E-06  0.122E-03    3.14      17.5  T
   6    -31.3770016 -0.974147E-09  0.474E-04    3.14      44.9  T
   7    -31.3770016 -0.178075E-08  0.142E-04    3.14     150.5  T
     SCC iter.                  ...        0 min,  0.003 sec
     gradient                   ...        0 min,  0.005 sec
 * total energy  :   -30.7987287 Eh     change       -0.9899455E-03 Eh
   gradient norm :     0.0046850 Eh/α   predicted    -0.8560067E-03 ( -13.53%)
   displ. norm   :     0.0258991 α      lambda       -0.6839237E-04
   maximum displ.:     0.0121144 α      in ANC's #9, #15, #31, ...

........................................................................
.............................. CYCLE    3 ..............................
........................................................................

 iter      E             dE          RMSdq      gap      omega  full diag
   1    -31.3813572 -0.313814E+02  0.221E-02    3.15       0.0  T
   2    -31.3813573 -0.132677E-06  0.136E-02    3.15       1.6  T
   3    -31.3813568  0.587190E-06  0.696E-03    3.15       3.1  T
   4    -31.3813575 -0.701700E-06  0.995E-04    3.15      21.4  T
   5    -31.3813575 -0.197343E-07  0.315E-04    3.15      67.7  T
     SCC iter.                  ...        0 min,  0.002 sec
     gradient                   ...        0 min,  0.005 sec
 * total energy  :   -30.7987643 Eh     change       -0.3560975E-04 Eh
   gradient norm :     0.0013140 Eh/α   predicted    -0.3441128E-04 (  -3.37%)
   displ. norm   :     0.0039469 α      lambda       -0.1574024E-05
   maximum displ.:     0.0022589 α      in ANC's #22, #9, #12, ...

........................................................................
.............................. CYCLE    4 ..............................
........................................................................

 iter      E             dE          RMSdq      gap      omega  full diag
   1    -31.3812329 -0.313812E+02  0.513E-03    3.15       0.0  T
   2    -31.3812329 -0.159732E-07  0.304E-03    3.15       7.0  T
   3    -31.3812329  0.749372E-08  0.875E-04    3.15      24.4  T
   4    -31.3812329 -0.102225E-07  0.168E-04    3.15     126.8  T
     SCC iter.                  ...        0 min,  0.002 sec
     gradient                   ...        0 min,  0.005 sec
 * total energy  :   -30.7987657 Eh     change       -0.1478004E-05 Eh
   gradient norm :     0.0002646 Eh/α   predicted    -0.9023098E-06 ( -38.95%)
   displ. norm   :     0.0014492 α      lambda       -0.1063991E-06
   maximum displ.:     0.0007040 α      in ANC's #22, #12, #15, ...

........................................................................
.............................. CYCLE    5 ..............................
........................................................................

 iter      E             dE          RMSdq      gap      omega  full diag
   1    -31.3810626 -0.313811E+02  0.140E-03    3.15       0.0  T
   2    -31.3810626 -0.881638E-09  0.793E-04    3.15      26.9  T
   3    -31.3810626  0.127376E-08  0.310E-04    3.15      68.8  T
     SCC iter.                  ...        0 min,  0.002 sec
     gradient                   ...        0 min,  0.005 sec
 * total energy  :   -30.7987658 Eh     change       -0.8502511E-07 Eh
   gradient norm :     0.0000597 Eh/α   predicted    -0.6272254E-07 ( -26.23%)
   displ. norm   :     0.0005652 α      lambda       -0.1005958E-07
   maximum displ.:     0.0003533 α      in ANC's #9, #12, #22, ...

   *** GEOMETRY OPTIMIZATION CONVERGED AFTER 5 ITERATIONS ***

------------------------------------------------------------------------
 total energy gain   :        -0.0010271 Eh       -0.6445 kcal/mol
 total RMSD          :         0.0304401 a0        0.0161 Å
 total power (kW/mol):        -0.5393406 (step)  -57.6979 (real)
------------------------------------------------------------------------

 ANCopt (total)                0 d,  0 h,  0 min,  0.047 sec
 optimizer setup                ...        0 min,  0.000 sec (  0.080%)
 model hessian                  ...        0 min,  0.002 sec (  4.452%)
 ANC generation                 ...        0 min,  0.000 sec (  0.720%)
 coordinate transformation      ...        0 min,  0.000 sec (  0.033%)
 single point calculation       ...        0 min,  0.043 sec ( 92.662%)
 optimization log               ...        0 min,  0.000 sec (  0.520%)
 hessian update                 ...        0 min,  0.000 sec (  0.046%)
 rational function              ...        0 min,  0.000 sec (  0.308%)

================
 final structure:
================
$coord
        4.55048482701165        2.17112470532712        0.00002233471039      C
        2.39676648357572        3.61308147176824        0.00002125884975      C
        0.00000714015729        2.44207564560608        0.00000685611673      C
       -2.39674696740050        3.61309218963247       -0.00000405640525      C
       -4.55047175951817        2.17114505635765       -0.00000987159937      C
       -4.49664555224779       -0.49240908970909        0.00002385762331      C
       -2.20502340686870       -1.68322629584584        0.00003860181969      C
        0.00000121335403       -0.20734962251039        0.00000276918206      C
        2.20501923125442       -1.68323615278817       -0.00003791278361      C
        4.49664670517097       -0.49242919907318       -0.00002004880656      C
        1.46511942710036       -4.42682595167463       -0.00016973340427      C
       -1.46513589663595       -4.42681941355028        0.00016224283053      C
        6.37127227911020        3.09766016522148        0.00004545777164      H
        2.52034226737299        5.65145413422291        0.00003641295239      H
       -2.52031363200458        5.65146540552662       -0.00001326268218      H
       -6.37125506782499        3.09768865905816       -0.00003104272007      H
       -6.25107489499460       -1.53676547528782        0.00004491684225      H
        6.25107137572042       -1.53679343327404       -0.00004475117864      H
        2.21876203923914       -5.38758140303802       -1.66307499949298      H
        2.21919059008280       -5.38795413808210        1.66231979010859      H
       -2.21921139339488       -5.38793923631609       -1.66233013663936      H
       -2.21878277527242       -5.38757648414662        1.66306465639555      H
$end

 Bond Distances (Angstroems)
 ---------------------------
C1-C2=1.3716         C1-C10=1.4098        C1-H13=1.0811        C2-C1=1.3716         C2-C3=1.4116         C2-H14=1.0806        
C3-C2=1.4116         C3-C4=1.4116         C3-C8=1.4020         C4-C3=1.4116         C4-C5=1.3716         C4-H15=1.0806        
C5-C4=1.3716         C5-C6=1.4098         C5-H16=1.0811        C6-C5=1.4098         C6-C7=1.3666         C6-H17=1.0804        
C7-C6=1.3666         C7-C8=1.4041         C7-C12=1.5037        C8-C3=1.4020         C8-C7=1.4041         C8-C9=1.4041         
C9-C8=1.4041         C9-C10=1.3666        C9-C11=1.5037        C10-C1=1.4098        C10-C9=1.3666        C10-H18=1.0804       
C11-C9=1.5037        C11-C12=1.5506       C11-H19=1.0917       C11-H20=1.0917       C12-C7=1.5037        C12-C11=1.5506       
C12-H21=1.0917       C12-H22=1.0917       H13-C1=1.0811        H14-C2=1.0806        H15-C4=1.0806        H16-C5=1.0811        
H17-C6=1.0804        H18-C10=1.0804       H19-C11=1.0917       H20-C11=1.0917       H21-C12=1.0917       H22-C12=1.0917       
 C  H  Rav=1.0851 sigma=0.0054  Rmin=1.0804  Rmax=1.0917    10
 C  C  Rav=1.4205 sigma=0.0552  Rmin=1.3666  Rmax=1.5506    14

 selected bond angles (degree)
 --------------------
C10-C1-C2=122.65               H13-C1-C2=119.23               H13-C1-C10=118.13              C3-C2-C1=120.16                
H14-C2-C1=120.33               H14-C2-C3=119.51               C4-C3-C2=127.92                C8-C3-C2=116.04                
C8-C3-C4=116.04                C5-C4-C3=120.16                H15-C4-C3=119.51               H15-C4-C5=120.33               
C6-C5-C4=122.65                H16-C5-C4=119.23               H16-C5-C6=118.13               C7-C6-C5=118.62                
H17-C6-C5=119.61               H17-C6-C7=121.78               C8-C7-C6=118.75                C12-C7-C6=132.55               
C12-C7-C8=108.70               C7-C8-C3=123.80                C9-C8-C3=123.80                C9-C8-C7=112.41                
C10-C9-C8=118.75               C11-C9-C8=108.70               C11-C9-C10=132.55              C9-C10-C1=118.62               
H18-C10-C1=119.61              H18-C10-C9=121.78              

 selected dihedral angles (degree)
 ---------------------------------
C3-C2-C1-C10=  0.00           C3-C2-C1-H13=180.00           H14-C2-C1-C10=180.00          H14-C2-C1-H13=  0.00          
C4-C3-C2-C1=180.00            C4-C3-C2-H14=  0.00           C8-C3-C2-C1=  0.00            C8-C3-C2-H14=180.00           
C5-C4-C3-C2=180.00            C5-C4-C3-C8=  0.00            H15-C4-C3-C2=  0.00           H15-C4-C3-C8=180.00           
C6-C5-C4-C3=  0.00            C6-C5-C4-H15=180.00           H16-C5-C4-C3=180.00           H16-C5-C4-H15=  0.00          
C7-C6-C5-C4=  0.00            C7-C6-C5-H16=180.00           H17-C6-C5-C4=180.00           H17-C6-C5-H16=  0.00          
C8-C7-C6-C5=  0.00            C8-C7-C6-H17=180.00           C12-C7-C6-C5=180.00           C12-C7-C6-H17=  0.00          
C7-C8-C3-C2=180.00            C7-C8-C3-C4=  0.00            C9-C8-C3-C2=  0.00            C9-C8-C3-C4=180.00            
C3-C8-C7-C6=  0.00            C3-C8-C7-C12=180.00           C9-C8-C7-C6=180.00            C9-C8-C7-C12=  0.00           
C10-C9-C8-C3=  0.00           C10-C9-C8-C7=180.00           C11-C9-C8-C3=180.00           C11-C9-C8-C7=  0.00           
C9-C10-C1-C2=  0.00           C9-C10-C1-H13=180.00          H18-C10-C1-C2=180.00          H18-C10-C1-H13=  0.00         
C1-C10-C9-C8=  0.00           C1-C10-C9-C11=180.00          H18-C10-C9-C8=180.00          H18-C10-C9-C11=  0.00         
           -------------------------------------------------
          |                Final Singlepoint                |
           -------------------------------------------------

          ...................................................
          :                      SETUP                      :
          :.................................................:
          :  # basis functions                  58          :
          :  # atomic orbitals                  58          :
          :  # shells                           34          :
          :  # electrons                        58          :
          :  max. iterations                   250          :
          :  Hamiltonian                  GFN2-xTB          :
          :  restarted?                      false          :
          :  GBSA solvation                  false          :
          :  PC potential                    false          :
          :  electronic temp.          300.0000000     K    :
          :  accuracy                    1.0000000          :
          :  -> integral cutoff          0.2500000E+02      :
          :  -> integral neglect         0.1000000E-07      :
          :  -> SCF convergence          0.1000000E-05 Eh   :
          :  -> wf. convergence          0.1000000E-03 e    :
          :  Broyden damping             0.4000000          :
          :  net charge                          0          :
          :  unpaired electrons                  0          :
          ...................................................

 iter      E             dE          RMSdq      gap      omega  full diag
   1    -31.3810626 -0.313811E+02  0.671E-05    3.15       0.0  T
   2    -31.3810626 -0.139089E-10  0.531E-05    3.15     401.4  T
   3    -31.3810626 -0.582432E-10  0.151E-05    3.15    1416.3  T

   *** convergence criteria satisfied after 3 iterations ***

         #    Occupation            Energy/Eh            Energy/eV
      -------------------------------------------------------------
         1        2.0000           -0.6512950             -17.7226
       ...           ...                  ...                  ...
        23        2.0000           -0.4349389             -11.8353
        24        2.0000           -0.4326365             -11.7726
        25        2.0000           -0.4133285             -11.2472
        26        2.0000           -0.4118421             -11.2068
        27        2.0000           -0.4092727             -11.1369
        28        2.0000           -0.3936775             -10.7125
        29        2.0000           -0.3649017              -9.9295 (HOMO)
        30                         -0.2491788              -6.7805 (LUMO)
        31                         -0.2211510              -6.0178
        32                         -0.1823401              -4.9617
        33                         -0.1392963              -3.7904
        34                         -0.0492250              -1.3395
       ...                                ...                  ...
        58                          0.7248147              19.7232
      -------------------------------------------------------------
                  HL-Gap            0.1157230 Eh            3.1490 eV
             Fermi-level           -0.3070403 Eh           -8.3550 eV

 SCC (total)                   0 d,  0 h,  0 min,  0.008 sec
 SCC setup                      ...        0 min,  0.000 sec (  0.800%)
 Dispersion                     ...        0 min,  0.000 sec (  0.605%)
 classical contributions        ...        0 min,  0.000 sec (  0.249%)
 integral evaluation            ...        0 min,  0.002 sec ( 20.586%)
 iterations                     ...        0 min,  0.002 sec ( 20.579%)
 molecular gradient             ...        0 min,  0.005 sec ( 56.594%)
 printout                       ...        0 min,  0.000 sec (  0.498%)

         :::::::::::::::::::::::::::::::::::::::::::::::::::::
         ::                     SUMMARY                     ::
         :::::::::::::::::::::::::::::::::::::::::::::::::::::
         :: total energy             -30.798765825999 Eh    ::
         :: gradient norm              0.000059644270 Eh/a0 ::
         :: HOMO-LUMO gap              3.148982397552 eV    ::
         ::.................................................::
         :: SCC energy               -31.380946674675 Eh    ::
         :: -> isotropic ES            0.002160296539 Eh    ::
         :: -> anisotropic ES          0.004085283983 Eh    ::
         :: -> anisotropic XC          0.018145608077 Eh    ::
         :: -> dispersion             -0.022098859775 Eh    ::
         :: repulsion energy           0.582180848676 Eh    ::
         :: add. restraining           0.000000000000 Eh    ::
         :: total charge               0.000000000000 e     ::
         :::::::::::::::::::::::::::::::::::::::::::::::::::::

           ------------------------------------------------- 
          |                Numerical Hessian                |
           ------------------------------------------------- 
step length          :   0.00500
SCC accuracy         :   0.30000
Hessian scale factor :   1.00000
frozen atoms in %    :   0.00000    0
RMS gradient         :   0.00006
estimated CPU  time      0.02 min
estimated wall time      0.02 min

writing file <hessian>, containing the non-mass-weighted Hessian matrix in atomic units (Eₕ/Bohr²).

 projected vibrational frequencies (cm⁻¹)
eigval :       -0.00    -0.00     0.00     0.00     0.00     0.00
eigval :       99.83   152.34   212.96   220.00   410.63   412.96
eigval :      430.72   444.96   481.50   526.45   528.71   580.57
eigval :      625.94   679.19   709.79   770.20   793.36   809.74
eigval :      811.52   825.72   881.11   891.20   920.25   926.97
eigval :      990.30  1011.45  1037.56  1049.27  1089.55  1109.58
eigval :     1120.40  1183.02  1185.12  1193.94  1219.07  1236.57
eigval :     1240.09  1251.39  1279.19  1359.64  1369.73  1397.86
eigval :     1448.95  1452.27  1473.44  1475.03  1502.95  1595.03
eigval :     1614.70  1621.05  2954.27  2970.88  2980.97  2988.77
eigval :     3065.97  3067.00  3075.00  3076.75  3083.00  3085.62
           -------------------------------------------------
          |                Property Printout                |
           -------------------------------------------------

    * Orbital Energies and Occupations

         #    Occupation            Energy/Eh            Energy/eV
      -------------------------------------------------------------
         1        2.0000           -0.6512951             -17.7226
       ...           ...                  ...                  ...
        17        2.0000           -0.4780302             -13.0079
        18        2.0000           -0.4660444             -12.6817
        19        2.0000           -0.4656145             -12.6700
        20        2.0000           -0.4654390             -12.6652
        21        2.0000           -0.4585811             -12.4786
        22        2.0000           -0.4444813             -12.0950
        23        2.0000           -0.4349388             -11.8353
        24        2.0000           -0.4326365             -11.7726
        25        2.0000           -0.4133285             -11.2472
        26        2.0000           -0.4118421             -11.2068
        27        2.0000           -0.4092727             -11.1369
        28        2.0000           -0.3936775             -10.7125
        29        2.0000           -0.3649017              -9.9295 (HOMO)
        30                         -0.2491787              -6.7805 (LUMO)
        31                         -0.2211510              -6.0178
        32                         -0.1823401              -4.9617
        33                         -0.1392963              -3.7904
        34                         -0.0492250              -1.3395
        35                          0.0682416               1.8569
        36                          0.0708440               1.9278
        37                          0.1219969               3.3197
        38                          0.1250669               3.4032
        39                          0.1384201               3.7666
        40                          0.1515509               4.1239
       ...                                ...                  ...
        58                          0.7248147              19.7232
      -------------------------------------------------------------
                  HL-Gap            0.1157230 Eh            3.1490 eV
             Fermi-level           -0.3070402 Eh           -8.3550 eV

     #   Z          covCN         q      C6AA      α(0)
     1   6          2.920    -0.031    28.776     8.797
     2   6          2.918    -0.042    29.032     8.836
     3   6          2.980     0.012    27.741     8.640
     4   6          2.918    -0.042    29.032     8.836
     5   6          2.920    -0.031    28.776     8.797
     6   6          2.916    -0.044    29.095     8.845
     7   6          3.012     0.009    27.798     8.649
     8   6          3.074    -0.006    28.084     8.689
     9   6          3.012     0.009    27.798     8.649
    10   6          2.916    -0.044    29.095     8.845
    11   6          3.836    -0.061    21.649     6.620
    12   6          3.836    -0.061    21.649     6.620
    13   1          0.926     0.028     2.617     2.530
    14   1          0.926     0.028     2.619     2.531
    15   1          0.926     0.028     2.619     2.531
    16   1          0.926     0.028     2.617     2.530
    17   1          0.926     0.024     2.666     2.553
    18   1          0.926     0.024     2.666     2.553
    19   1          0.924     0.043     2.411     2.428
    20   1          0.924     0.043     2.412     2.428
    21   1          0.924     0.043     2.412     2.428
    22   1          0.924     0.043     2.411     2.428

 Mol. C6AA /au·bohr⁶  :       6177.636102
 Mol. C8AA /au·bohr⁸  :     153977.997078
 Mol. α(0) /au        :        125.761124


Wiberg/Mayer (AO) data.
largest (>0.10) Wiberg bond orders for each atom

 ---------------------------------------------------------------------------
     #   Z sym  total        # sym  WBO       # sym  WBO       # sym  WBO
 ---------------------------------------------------------------------------
     1   6      3.992 --     2      1.558    10      1.320    13      0.972
     2   6      3.991 --     1      1.558     3      1.273    14      0.970
                             9      0.113
     3   6      3.991 --     2      1.273     4      1.273     8      1.267
     4   6      3.991 --     5      1.558     3      1.273    15      0.970
                             7      0.113
     5   6      3.992 --     4      1.558     6      1.320    16      0.972
     6   6      3.991 --     7      1.525     5      1.320    17      0.970
     7   6      3.987 --     6      1.525     8      1.256    12      1.014
                             4      0.113
     8   6      3.990 --     3      1.267     9      1.256     7      1.256
     9   6      3.987 --    10      1.525     8      1.256    11      1.014
                             2      0.113
    10   6      3.991 --     9      1.525     1      1.320    18      0.970
    11   6      3.997 --     9      1.014    12      1.000    20      0.966
                            19      0.966
    12   6      3.997 --     7      1.014    11      1.000    21      0.966
                            22      0.966
    13   1      0.999 --     1      0.972
    14   1      0.998 --     2      0.970
    15   1      0.998 --     4      0.970
    16   1      0.999 --     5      0.972
    17   1      0.999 --     6      0.970
    18   1      0.999 --    10      0.970
    19   1      0.997 --    11      0.966
    20   1      0.997 --    11      0.966
    21   1      0.997 --    12      0.966
    22   1      0.997 --    12      0.966
 ---------------------------------------------------------------------------

Topologies differ in total number of bonds
Writing topology from bond orders to xtbtopo.mol

molecular dipole:
                 x           y           z       tot (Debye)
 q only:       -0.000      -0.362       0.000
   full:       -0.000      -0.407      -0.000       1.035
molecular quadrupole (traceless):
                xx          xy          yy          xz          yz          zz
 q only:       -0.447       0.000       2.656      -0.000      -0.000      -2.210
  q+dip:        2.303       0.000       5.125      -0.000      -0.000      -7.428
   full:        0.271       0.000       3.409      -0.000      -0.000      -3.680

           -------------------------------------------------
          |                Geometry Summary                 |
           -------------------------------------------------

      molecular mass/u    :      154.2082383
   center of mass at/Å    :        0.0000009       0.0000075       0.0000016
  moments of inertia/u·Å² :        0.3529090E+03   0.4183277E+03   0.7649942E+03
rotational constants/cm⁻¹ :        0.4776765E-01   0.4029768E-01   0.2203629E-01

 * 21 selected distances

     #   Z          #   Z                                           value/Å
     1   6          2   6                                         1.3715538
     2   6          3   6                                         1.4115956
     3   6          4   6                                         1.4115956 (max)
     4   6          5   6                                         1.3715538
     5   6          6   6                                         1.4097801
     6   6          7   6                                         1.3666281
     3   6          8   6                                         1.4020156
     7   6          8   6                                         1.4041004
     8   6          9   6                                         1.4041004
     1   6         10   6                                         1.4097801
     9   6         10   6                                         1.3666281
     1   6         13   1                                         1.0810944
     2   6         14   1                                         1.0806409
     4   6         15   1                                         1.0806409
     5   6         16   1                                         1.0810944
     6   6         17   1                                         1.0804424
    10   6         18   1                                         1.0804424 (min)
    11   6         19   1                                         1.0917328
    11   6         20   1                                         1.0917303
    12   6         21   1                                         1.0917303
    12   6         22   1                                         1.0917329

 * 2 distinct bonds (by element types)

   Z      Z             #   av. dist./Å        max./Å        min./Å
   1 H    6 C          10     1.0851282     1.0917329     1.0804424
   6 C    6 C          11     1.3935756     1.4115956     1.3666281

           -------------------------------------------------
          |               Frequency Printout                |
           -------------------------------------------------
 projected vibrational frequencies (cm⁻¹)
eigval :       -0.00    -0.00     0.00     0.00     0.00     0.00
eigval :       99.83   152.34   212.96   220.00   410.63   412.96
eigval :      430.72   444.96   481.50   526.45   528.71   580.57
eigval :      625.94   679.19   709.79   770.20   793.36   809.74
eigval :      811.52   825.72   881.11   891.20   920.25   926.97
eigval :      990.30  1011.45  1037.56  1049.27  1089.55  1109.58
eigval :     1120.40  1183.02  1185.12  1193.94  1219.07  1236.57
eigval :     1240.09  1251.39  1279.19  1359.64  1369.73  1397.86
eigval :     1448.95  1452.27  1473.44  1475.03  1502.95  1595.03
eigval :     1614.70  1621.05  2954.27  2970.88  2980.97  2988.77
eigval :     3065.97  3067.00  3075.00  3076.75  3083.00  3085.62
 reduced masses (amu)
    1:      5.31    2:      6.70    3:      5.99    4:      6.52    5:      4.93    6:      4.34
    7:      1.83    8:      3.91    9:      3.14   10:      3.01   11:      3.59   12:      4.50
   13:      3.46   14:      3.96   15:      7.52   16:      6.80   17:      3.04   18:      4.01
   19:      5.98   20:      5.62   21:      5.10   22:      1.17   23:      5.23   24:      1.39
   25:      4.83   26:      1.39   27:      1.31   28:      1.35   29:      1.25   30:      1.26
   31:      1.88   32:      3.58   33:      3.69   34:      3.55   35:      1.68   36:      1.87
   37:      1.12   38:      1.12   39:      1.09   40:      1.13   41:      1.39   42:      1.29
   43:      2.30   44:      2.08   45:      1.81   46:      3.03   47:      4.17   48:      2.34
   49:      1.19   50:      7.72   51:      1.09   52:      3.70   53:      5.59   54:      9.48
   55:      8.78   56:      8.28   57:      1.10   58:      1.10   59:      1.05   60:      1.05
   61:      1.08   62:      1.07   63:      1.08   64:      1.08   65:      1.09   66:      1.09
Molecule has the following symmetry elements: (C2) 2*(sigma) 
It seems to be the C2v point group
 IR intensities (km·mol⁻¹)
    1:      0.03    2:      0.02    3:      0.02    4:      0.03    5:      0.01    6:      0.11
    7:      0.00    8:      0.18    9:      3.26   10:      0.00   11:      0.00   12:      0.20
   13:      0.16   14:      0.01   15:      0.00   16:      0.05   17:      0.10   18:      0.00
   19:      0.69   20:      1.42   21:      0.72   22:      0.00   23:      0.06   24:      6.70
   25:      0.83   26:     36.11   27:      0.00   28:      0.17   29:      0.00   30:      0.14
   31:      0.00   32:      2.71   33:      2.07   34:      0.25   35:      1.18   36:      0.22
   37:      1.65   38:      0.00   39:      0.70   40:      0.01   41:      0.09   42:      6.04
   43:      0.13   44:      6.24   45:      1.11   46:     12.78   47:      0.59   48:      0.02
   49:      1.31   50:      2.41   51:      6.10   52:      1.05   53:      0.40   54:     18.21
   55:      4.03   56:      9.05   57:      0.00   58:     59.07   59:     18.99   60:     41.62
   61:      5.72   62:      6.46   63:     10.37   64:     75.10   65:    136.94   66:     29.35
 Raman intensities (Ä⁴*amu⁻¹)
    1:      0.00    2:      0.00    3:      0.00    4:      0.00    5:      0.00    6:      0.00
    7:      0.00    8:      0.00    9:      0.00   10:      0.00   11:      0.00   12:      0.00
   13:      0.00   14:      0.00   15:      0.00   16:      0.00   17:      0.00   18:      0.00
   19:      0.00   20:      0.00   21:      0.00   22:      0.00   23:      0.00   24:      0.00
   25:      0.00   26:      0.00   27:      0.00   28:      0.00   29:      0.00   30:      0.00
   31:      0.00   32:      0.00   33:      0.00   34:      0.00   35:      0.00   36:      0.00
   37:      0.00   38:      0.00   39:      0.00   40:      0.00   41:      0.00   42:      0.00
   43:      0.00   44:      0.00   45:      0.00   46:      0.00   47:      0.00   48:      0.00
   49:      0.00   50:      0.00   51:      0.00   52:      0.00   53:      0.00   54:      0.00
   55:      0.00   56:      0.00   57:      0.00   58:      0.00   59:      0.00   60:      0.00
   61:      0.00   62:      0.00   63:      0.00   64:      0.00   65:      0.00   66:      0.00
 output can be read by thermo (or use thermo option).
 writing <g98.out> molden fake output.
 recommended (thermochemical) frequency scaling factor: 1.0
           -------------------------------------------------
          |             Thermodynamic Functions             |
           -------------------------------------------------

c2v symmetry found (for desy threshold:  0.10E+00) used in thermo

          ...................................................
          :                      SETUP                      :
          :.................................................:
          :  # frequencies                          60      :
          :  # imaginary freq.                       0      :
          :  linear?                             false      :
          :  only rotor calc.                    false      :
          :  symmetry                              c2v      :
          :  rotational number                       2      :
          :  scaling factor                  1.0000000      :
          :  rotor cutoff                    0.0000000 cm⁻¹ :
          :  imag. cutoff                 -100.0000000 cm⁻¹ :
          :.................................................:

    mode    ω/cm⁻¹     T·S(HO)/kcal·mol⁻¹    T·S(FR)/kcal·mol⁻¹   T·S(vib)
   ------------------------------------------------------------------------
       1     99.83    -1.03090 (100.00%)    -0.85162 (  0.00%)    -1.03090
       2    152.34    -0.78796 (100.00%)    -0.72645 (  0.00%)    -0.78796
       3    212.96    -0.60171 (100.00%)    -0.62722 (  0.00%)    -0.60171
       4    220.00    -0.58410 (100.00%)    -0.61759 (  0.00%)    -0.58410
   ------------------------------------------------------------------------

   temp. (K)  partition function   enthalpy   heat capacity  entropy
                                   cal/mol     cal/K/mol   cal/K/mol   J/K/mol
 298.15  VIB   41.2                 3627.228     30.443     19.553
         ROT  0.406E+06              888.727      2.981     28.643
         INT  0.167E+08             4515.956     33.424     48.196
         TR   0.586E+26             1481.212      4.968     41.009
         TOT                        5997.1682    38.3920    89.2051   373.2342

       T/K    H(0)-H(T)+PV         H(T)/Eh          T*S/Eh         G(T)/Eh
   ------------------------------------------------------------------------
    298.15    0.955710E-02    0.187259E+00    0.423842E-01    0.144874E+00
   ------------------------------------------------------------------------

         :::::::::::::::::::::::::::::::::::::::::::::::::::::
         ::                  THERMODYNAMIC                  ::
         :::::::::::::::::::::::::::::::::::::::::::::::::::::
         :: total free energy         -30.653891356523 Eh   ::
         ::.................................................::
         :: total energy              -30.798765825999 Eh   ::
         :: zero point energy           0.177701601292 Eh   ::
         :: G(RRHO) w/o ZPVE           -0.032827131816 Eh   ::
         :: G(RRHO) contrib.            0.144874469476 Eh   ::
         :::::::::::::::::::::::::::::::::::::::::::::::::::::

optimized geometry written to: xtbopt.coord


           -------------------------------------------------
          | TOTAL ENERGY              -30.798765825999 Eh   |
          | TOTAL ENTHALPY            -30.611507128868 Eh   |
          | TOTAL FREE ENERGY         -30.653891356523 Eh   |
          | GRADIENT NORM               0.000059658097 Eh/α |
          | HOMO-LUMO GAP               3.148982089794 eV   |
           -------------------------------------------------

------------------------------------------------------------------------
 * finished run on 2025/04/09 at 03:26:34.181     
------------------------------------------------------------------------
 total:
 * wall-time:     0 d,  0 h,  0 min,  1.264 sec
 *  cpu-time:     0 d,  0 h,  0 min,  1.255 sec
 * ratio c/w:     0.993 speedup
 SCF:
 * wall-time:     0 d,  0 h,  0 min,  0.012 sec
 *  cpu-time:     0 d,  0 h,  0 min,  0.011 sec
 * ratio c/w:     0.989 speedup
 ANC optimizer:
 * wall-time:     0 d,  0 h,  0 min,  0.055 sec
 *  cpu-time:     0 d,  0 h,  0 min,  0.055 sec
 * ratio c/w:     0.990 speedup
 analytical hessian:
 * wall-time:     0 d,  0 h,  0 min,  1.191 sec
 *  cpu-time:     0 d,  0 h,  0 min,  1.183 sec
 * ratio c/w:     0.993 speedup

