
                                 *****************
                                 * O   R   C   A *
                                 *****************

                                            #,                                       
                                            ###                                      
                                            ####                                     
                                            #####                                    
                                            ######                                   
                                           ########,                                 
                                     ,,################,,,,,                         
                               ,,#################################,,                 
                          ,,##########################################,,             
                       ,#########################################, ''#####,          
                    ,#############################################,,   '####,        
                  ,##################################################,,,,####,       
                ,###########''''           ''''###############################       
              ,#####''   ,,,,##########,,,,          '''####'''          '####       
            ,##' ,,,,###########################,,,                        '##       
           ' ,,###''''                  '''############,,,                           
         ,,##''                                '''############,,,,        ,,,,,,###''
      ,#''                                            '''#######################'''  
     '                                                          ''''####''''         
             ,#######,   #######,   ,#######,      ##                                
            ,#'     '#,  ##    ##  ,#'     '#,    #''#        ,####,   ,####,        
            ##       ##  ##   ,#'  ##            #'  '#       #'       #'  '#        
            ##       ##  #######   ##           ,######,      #####,   #    #        
            '#,     ,#'  ##    ##  '#,     ,#' ,#      #,     #,   #   #,  ,#        
             '#######'   ##     ##  '#######'  #'      '#     '####' # '####'        



                #########################################################
                #                        -***-                          #
                #          Department of theory and spectroscopy        #
                #                                                       #
                #                      Frank Neese                      #
                #                                                       #
                #     Directorship, Architecture, Infrastructure        #
                #                    SHARK, DRIVERS                     #
                #        Core code/Algorithms in most modules           #
                #                                                       #
                #        Max Planck Institute fuer Kohlenforschung      #
                #                Kaiser Wilhelm Platz 1                 #
                #                 D-45470 Muelheim/Ruhr                 #
                #                      Germany                          #
                #                                                       #
                #                  All rights reserved                  #
                #                        -***-                          #
                #########################################################


                         Program Version 6.0.1  -  RELEASE   -


 With contributions from (in alphabetic order):
[Max-Planck-Institut fuer Kohlenforschung]                               
  Daniel Aravena         : Magnetic Suceptibility                        
  Michael Atanasov       : Ab Initio Ligand Field Theory (pilot matlab implementation)
  Alexander A. Auer      : GIAO ZORA, VPT2 properties, NMR spectrum      
  Ute Becker             : All parallelization in ORCA, NUMFREQ, NUMCALC 
  Giovanni Bistoni       : ED, misc. LED, open-shell LED, HFLD           
  Martin Brehm           : Molecular dynamics                            
  Dmytro Bykov           : pre 5.0 version of the SCF Hessian            
  Marcos Casanova-Páez   : Triplet and SCS-CIS(D). UHF-(DLPNO)-IP/EA/STEOM-CCSD. UHF-CVS-IP/STEOM-CCSD   
  Vijay G. Chilkuri      : MRCI spin determinant printing, contributions to CSF-ICE 
  Pauline Colinet        : FMM embedding                                 
  Dipayan Datta          : RHF DLPNO-CCSD density                        
  Achintya Kumar Dutta   : EOM-CC, STEOM-CC                              
  Nicolas Foglia         : Exact transition moments, OPA infrastructure, MCD improvements    
  Dmitry Ganyushin       : Spin-Orbit,Spin-Spin,Magnetic field MRCI      
  Miquel Garcia-Rates    : C-PCM and meta-GGA Hessian, CCSD/C-PCM, Gaussian charge scheme 
  Tiago L. C. Gouveia    : GS-ROHF, GS-ROCIS                             
  Yang Guo               : DLPNO-NEVPT2, F12-NEVPT2, CIM, IAO-localization        
  Andreas Hansen         : Spin unrestricted coupled pair/coupled cluster methods 
  Ingolf Harden          : AUTO-CI MPn and infrastructure                
  Benjamin Helmich-Paris : MC-RPA, TRAH-(SCF,CASSCF), AVAS, COSX integrals, SCF dyn. polar. 
  Lee Huntington         : MR-EOM, pCC                                   
  Robert Izsak           : Overlap fitted RIJCOSX, COSX-SCS-MP3, EOM     
  Riya Kayal             : Wick's Theorem for AUTO-CI, AUTO-CI UHF-CCSDT 
  Emily Kempfer          : AUTO-CI, RHF CISDT and CCSDT                  
  Christian Kollmar      : KDIIS, OOCD, Brueckner-CCSD(T), CCSD density, CASPT2, CASPT2-K, improved NEVPT2 
  Axel Koslowski         : Symmetry handling                             
  Simone Kossmann        : meta-GGA functionals, TD-DFT gradient, OOMP2, (MP2 Hessian; deprecated post 5.0) 
  Lucas Lang             : DCDCAS                                        
  Marvin Lechner         : AUTO-CI (C++ implementation), FIC-MRCC        
  Spencer Leger          : CASSCF response                               
  Dagmar Lenk            : GEPOL surface, SMD, ORCA-2-JSON               
  Dimitrios Liakos       : Extrapolation schemes; Compound Job, initial MDCI parallelization 
  Dimitrios Manganas     : Further ROCIS development; embedding schemes. LFT, Crystal Embedding 
  Dimitrios Pantazis     : SARC Basis sets                               
  Anastasios Papadopoulos: AUTO-CI, single reference methods and gradients 
  Taras Petrenko         : pre 6.0 DFT Hessian and TD-DFT gradient, (ASA, deprecated), ECA, 1-Electron XAS/XES, NRVS 
  Peter Pinski           : DLPNO-MP2, DLPNO-MP2 Gradient                 
  Christoph Reimann      : Effective Core Potentials                     
  Marius Retegan         : Local ZFS, SOC                                
  Christoph Riplinger    : Optimizer, TS searches, QM/MM, DLPNO-CCSD(T), (RO)-DLPNO pert. Triples 
  Michael Roemelt        : Original ROCIS implementation                 
  Masaaki Saitow         : Open-shell DLPNO-CCSD energy and density      
  Barbara Sandhoefer     : DKH picture change effects                    
  Kantharuban Sivalingam : CASSCF convergence/infrastructure, NEVPT2 and variants, FIC-MRCI 
  Bernardo de Souza      : ESD, SOC TD-DFT                               
  Georgi L. Stoychev     : AutoAux, RI-MP2 NMR, DLPNO-MP2 response, X2C  
  Van Anh Tran           : RI-MP2 g-tensors                              
  Willem Van den Heuvel  : Paramagnetic NMR                              
  Zikuan Wang            : NOTCH, Electric field optimization            
  Frank Wennmohs         : Technical directorship and infrastructure     
  Hang Xu                : AUTO-CI-Response properties                   
                                                                         
[FACCTs GmbH]                                                            
  Markus Bursch, Miquel Garcia-Rates, Christoph Riplinger, Bernardo de Souza, Georgi L. Stoychev 
                                                                 
  APM, Basis sets (HGBS, AHGBS, def-TZVP (Ac-Lr), def2-XVPD (La-Lu)), CI-OPT, improved COSX, DLPNO-Multilevel,           
  DOCKER, DRACO, updates on ESD, GOAT, IRC, LR-CPCM, MBIS, meta-GGA TD-DFT gradient, ML-optimized integration grids, 
  MM, NACMEs, nearIR, NEB, NEB-TS, NL-DFT gradient (VV10), 2- and 3-layer-ONIOM, interface openCOSMO-RS, QMMM,   
  Crystal-QMMM, SF, symmetry and pop. for TD-DFT, r2SCAN hybrids, SOLVATOR                                   
                                                                         
[Other institutions]                                                     
  V. Asgeirsson          : NEB                                           
  Christoph Bannwarth    : sTDA-DFT, sTD-DFT, PBEh-3c, B97-3c, D3        
  Sebastian Ehlert       : rSCAN, r2SCAN, r2SCAN-3c, D4, dhf basis sets  
  Marvin Friede          : D4 for Fr, Ra, Ac-Lr                          
  Lars Goerigk           : TD-DFT with DH, B97 family of functionals     
  Stefan Grimme          : VdW corrections, initial TS optimization, DFT functionals, gCP, sTDA/sTD-DF 
  Waldemar Hujo          : DFT-NL                                        
  H. Jonsson             : NEB                                           
  Holger Kruse           : gCP                                           
  Marcel Mueller         : wB97X-3c, vDZP basis set                      
  Hagen Neugebauer       : wr2SCAN                                       
  Tobias Risthaus        : range-separated hybrid DFT                    
  Lukas Wittmann         : regularized MP2, r2SCAN double-hybrids, wr2SCAN        
                                                                         
We gratefully acknowledge several colleagues who have allowed us to      
interface, adapt or use parts of their codes:                            
  Ed Valeev, F. Pavosevic, A. Kumar             : LibInt (2-el integral package), F12 methods 
  Garnet Chan, S. Sharma, J. Yang, R. Olivares  : DMRG                   
  Ulf Ekstrom                                   : XCFun DFT Library      
  Mihaly Kallay                                 : mrcc  (arbitrary order and MRCC methods)
  Frank Weinhold                                : gennbo (NPA and NBO analysis)           
  Simon Mueller                                 : openCOSMO-RS                            
  Christopher J. Cramer and Donald G. Truhlar   : smd solvation model                     
  S Lehtola, MJT Oliveira, MAL Marques          : LibXC Library                           
  Liviu Ungur et al                             : ANISO software                          


 Your calculation uses the libint2 library for the computation of 2-el integrals
 For citations please refer to: http://libint.valeyev.net

 Your ORCA version has been built with support for libXC version: 6.2.2
 For citations please refer to: https://libxc.gitlab.io

 This ORCA versions uses:
   CBLAS   interface :  Fast vector & matrix operations
   LAPACKE interface :  Fast linear algebra routines
   SCALAPACK package :  Parallel linear algebra routines
   Shared memory     :  Shared parallel matrices
   BLAS/LAPACK       :  OpenBLAS 0.3.27  USE64BITINT DYNAMIC_ARCH NO_AFFINITY Zen SINGLE_THREADED
        Core in use  :  Zen
   Copyright (c) 2011-2014, The OpenBLAS Project


Your calculation utilizes the geometrical counterpoise correction gCP
Please cite in your paper:
H.Kruse, S. Grimme J.Chem.Phys., 136, (2012), 154101 
   

Your calculation utilizes the atom-pairwise dispersion correction
based on EEQ partial charges (D4)


================================================================================

----- Orbital basis set information -----
Your calculation utilizes the basis: def2-mTZVPP
   Stefan Grimme, Andreas Hansen, Sebastian Ehlert, and Jan-Michael Mewes 
   J. Chem. Phys. 154, 064103 (2021). DOI: 10.1063/5.0040021

----- AuxJ basis set information -----
Your calculation utilizes the auxiliary basis: def2/J
   F. Weigend, Phys. Chem. Chem. Phys. 8, 1057 (2006).

================================================================================
                                        WARNINGS
                       Please study these warnings very carefully!
================================================================================

WARNING: Old DensityContainer found on disk!
         Will remove this file - 
         If you want to keep old densities, please start your calculation with a different basename. 



WARNING: SCAN, rSCAN, or r2SCAN functional requested.
  ===> : libXC variant has now been activated.



================================================================================
                                       INPUT FILE
================================================================================
NAME = sp.inp
|  1> ! r2scan-3c def2/J RI DEFGRID2 scfconv6 printgap
|  2> %output
|  3>     printlevel normal
|  4> end
|  5> * xyz 0 1
|  6> C -2.4393927426 1.159e-05 0.0066050476
|  7> C -0.9404746981 -7.63837e-05 -0.0090846172
|  8> C -0.2312574798 -1.194602136 -0.0052242958
|  9> C 1.1522413423 -1.196299594 0.0015300449
| 10> C 1.8485269955 2.79339e-05 0.0049428168
| 11> C 1.1521225631 1.1963797376 0.0016500146
| 12> C -0.23130129 1.19454081 -0.0052343408
| 13> H -2.833199986 -0.8865537413 -0.4852789546
| 14> H -2.8004838011 0.0024764306 1.0358801516
| 15> H -2.8330961706 0.884234921 -0.4894977754
| 16> H -0.7692030722 -2.1323600051 -0.0087636589
| 17> H 1.6885327525 -2.1343381397 0.0030184112
| 18> H 2.9286401246 0.0002246822 0.0084958231
| 19> H 1.6885284964 2.134339419 0.0026042283
| 20> H -0.7694816105 2.1321914381 -0.0090746279
| 21> *
| 22> 
| 23>                          ****END OF INPUT****
================================================================================

                       ****************************
                       * Single Point Calculation *
                       ****************************

---------------------------------
CARTESIAN COORDINATES (ANGSTROEM)
---------------------------------
  C     -2.439393    0.000012    0.006605
  C     -0.940475   -0.000076   -0.009085
  C     -0.231257   -1.194602   -0.005224
  C      1.152241   -1.196300    0.001530
  C      1.848527    0.000028    0.004943
  C      1.152123    1.196380    0.001650
  C     -0.231301    1.194541   -0.005234
  H     -2.833200   -0.886554   -0.485279
  H     -2.800484    0.002476    1.035880
  H     -2.833096    0.884235   -0.489498
  H     -0.769203   -2.132360   -0.008764
  H      1.688533   -2.134338    0.003018
  H      2.928640    0.000225    0.008496
  H      1.688528    2.134339    0.002604
  H     -0.769482    2.132191   -0.009075

----------------------------
CARTESIAN COORDINATES (A.U.)
----------------------------
  NO LB      ZA    FRAG     MASS         X           Y           Z
   0 C     6.0000    0    12.011   -4.609784    0.000022    0.012482
   1 C     6.0000    0    12.011   -1.777240   -0.000144   -0.017167
   2 C     6.0000    0    12.011   -0.437013   -2.257471   -0.009872
   3 C     6.0000    0    12.011    2.177421   -2.260679    0.002891
   4 C     6.0000    0    12.011    3.493210    0.000053    0.009341
   5 C     6.0000    0    12.011    2.177196    2.260830    0.003118
   6 C     6.0000    0    12.011   -0.437096    2.257355   -0.009891
   7 H     1.0000    0     1.008   -5.353972   -1.675344   -0.917044
   8 H     1.0000    0     1.008   -5.292147    0.004680    1.957530
   9 H     1.0000    0     1.008   -5.353776    1.670962   -0.925017
  10 H     1.0000    0     1.008   -1.453583   -4.029576   -0.016561
  11 H     1.0000    0     1.008    3.190864   -4.033315    0.005704
  12 H     1.0000    0     1.008    5.534328    0.000425    0.016055
  13 H     1.0000    0     1.008    3.190856    4.033317    0.004921
  14 H     1.0000    0     1.008   -1.454110    4.029258   -0.017149

--------------------------------
INTERNAL COORDINATES (ANGSTROEM)
--------------------------------
 C      0   0   0     0.000000000000     0.00000000     0.00000000
 C      1   0   0     1.499000159256     0.00000000     0.00000000
 C      2   1   0     1.389206873623   120.69800159     0.00000000
 C      3   2   1     1.383516350910   120.76923620   181.02273758
 C      4   3   2     1.384205516488   120.13023123     0.00000000
 C      5   4   3     1.384285958258   119.59522070     0.00000000
 C      6   5   4     1.383442204550   120.12809027     0.00000000
 H      1   2   3     1.087672792359   110.93220043   330.23508060
 H      1   2   3     1.090779568786   109.93159551    89.59529171
 H      1   2   3     1.087644840604   110.93027963   208.95583741
 H      3   2   1     1.081104901724   119.45975687     1.09735234
 H      4   3   2     1.080521635650   119.82760306   180.08815689
 H      5   4   3     1.080118990768   120.21092169   180.10558970
 H      6   5   4     1.080509416773   120.03115042   180.10263690
 H      7   6   5     1.081129735765   119.77878590   180.07922359

---------------------------
INTERNAL COORDINATES (A.U.)
---------------------------
 C      0   0   0     0.000000000000     0.00000000     0.00000000
 C      1   0   0     2.832699775698     0.00000000     0.00000000
 C      2   1   0     2.625220534509   120.69800159     0.00000000
 C      3   2   1     2.614467005021   120.76923620   181.02273758
 C      4   3   2     2.615769339225   120.13023123     0.00000000
 C      5   4   3     2.615921352139   119.59522070     0.00000000
 C      6   5   4     2.614326888708   120.12809027     0.00000000
 H      1   2   3     2.055403700876   110.93220043   330.23508060
 H      1   2   3     2.061274657483   109.93159551    89.59529171
 H      1   2   3     2.055350879714   110.93027963   208.95583741
 H      3   2   1     2.042992186299   119.45975687     1.09735234
 H      4   3   2     2.041889973155   119.82760306   180.08815689
 H      5   4   3     2.041129084599   120.21092169   180.10558970
 H      6   5   4     2.041866882824   120.03115042   180.10263690
 H      7   6   5     2.043039115834   119.77878590   180.07922359

---------------------
BASIS SET INFORMATION
---------------------
There are 2 groups of distinct atoms

 Group   1 Type C   : 11s6p1d contracted to 5s3p1d pattern {62111/411/1}
 Group   2 Type H   : 4s1p contracted to 2s1p pattern {31/1}

Atom   0C    basis set group =>   1
Atom   1C    basis set group =>   1
Atom   2C    basis set group =>   1
Atom   3C    basis set group =>   1
Atom   4C    basis set group =>   1
Atom   5C    basis set group =>   1
Atom   6C    basis set group =>   1
Atom   7H    basis set group =>   2
Atom   8H    basis set group =>   2
Atom   9H    basis set group =>   2
Atom  10H    basis set group =>   2
Atom  11H    basis set group =>   2
Atom  12H    basis set group =>   2
Atom  13H    basis set group =>   2
Atom  14H    basis set group =>   2
---------------------------------
AUXILIARY/J BASIS SET INFORMATION
---------------------------------
There are 2 groups of distinct atoms

 Group   1 Type C   : 12s5p4d2f1g contracted to 6s4p3d1f1g pattern {711111/2111/211/2/1}
 Group   2 Type H   : 5s2p1d contracted to 3s1p1d pattern {311/2/1}

Atom   0C    basis set group =>   1
Atom   1C    basis set group =>   1
Atom   2C    basis set group =>   1
Atom   3C    basis set group =>   1
Atom   4C    basis set group =>   1
Atom   5C    basis set group =>   1
Atom   6C    basis set group =>   1
Atom   7H    basis set group =>   2
Atom   8H    basis set group =>   2
Atom   9H    basis set group =>   2
Atom  10H    basis set group =>   2
Atom  11H    basis set group =>   2
Atom  12H    basis set group =>   2
Atom  13H    basis set group =>   2
Atom  14H    basis set group =>   2

Checking for AutoStart:
The File: sp.gbw exists
Trying to determine its content:
     ... Fine, the file contains calculation information
     ... Fine, the calculation information was read
     ... Fine, the file contains a basis set
     ... Fine, the basis set was read
     ... Fine, the file contains a geometry
     ... Fine, the geometry was read
     ... Fine, the file contains a set of orbitals
     ... Fine, the orbitals can be read
     => possible old guess file was deleted
     => GBW file was renamed to GES file
     => GES file is set as startup file
     => Guess is set to MORead
     ... now leaving AutoStart

------------------------------------------------------------------------------
                             ORCA STARTUP CALCULATIONS
                           -- RI-GTO INTEGRALS CHOSEN --
------------------------------------------------------------------------------
------------------------------------------------------------------------------
                   ___                                                        
                  /   \      - P O W E R E D   B Y -                         
                 /     \                                                     
                 |  |  |   _    _      __       _____    __    __             
                 |  |  |  | |  | |    /  \     |  _  \  |  |  /  |          
                  \  \/   | |  | |   /    \    | | | |  |  | /  /          
                 / \  \   | |__| |  /  /\  \   | |_| |  |  |/  /          
                |  |  |   |  __  | /  /__\  \  |    /   |      \           
                |  |  |   | |  | | |   __   |  |    \   |  |\   \          
                \     /   | |  | | |  |  |  |  | |\  \  |  | \   \       
                 \___/    |_|  |_| |__|  |__|  |_| \__\ |__|  \__/        
                                                                              
                      - O R C A' S   B I G   F R I E N D -                    
                                      &                                       
                       - I N T E G R A L  F E E D E R -                       
                                                                              
 v1 FN, 2020, v2 2021, v3 2022-2024                                           
------------------------------------------------------------------------------


----------------------
SHARK INTEGRAL PACKAGE
----------------------

Number of atoms                             ...     15
Number of basis functions                   ...    173
Number of shells                            ...     87
Maximum angular momentum                    ...      2
Integral batch strategy                     ... SHARK/LIBINT Hybrid
RI-J (if used) integral strategy            ... SPLIT-RIJ (Revised 2003 algorithm where possible)
Printlevel                                  ...      1
Contraction scheme used                     ... SEGMENTED contraction
Prescreening option                         ... SCHWARTZ
   Thresh                                   ... 1.000e-10
   Tcut                                     ... 1.000e-11
   Tpresel                                  ... 1.000e-11 
Coulomb Range Separation                    ... NOT USED
Exchange Range Separation                   ... NOT USED
Multipole approximations                    ... NOT USED
Finite Nucleus Model                        ... NOT USED
CABS basis                                  ... NOT available
Auxiliary Coulomb fitting basis             ... AVAILABLE
   # of basis functions in Aux-J            ...    431
   # of shells in Aux-J                     ...    145
   Maximum angular momentum in Aux-J        ...      4
Auxiliary J/K fitting basis                 ... NOT available
Auxiliary Correlation fitting basis         ... NOT available
Auxiliary 'external' fitting basis          ... NOT available

Checking pre-screening integrals            ... done (  0.0 sec) Dimension = 87
Check shell pair data                       ... done (  0.0 sec)
Shell pair information
Shell pair cut-off parameter TPreSel        ...   1.0e-11
Total number of shell pairs                 ...      3828
Shell pairs after pre-screening             ...      3544
Total number of primitive shell pairs       ...     14039
Primitive shell pairs kept                  ...      9513
          la=0 lb=0:   1197 shell pairs
          la=1 lb=0:   1373 shell pairs
          la=1 lb=1:    410 shell pairs
          la=2 lb=0:    341 shell pairs
          la=2 lb=1:    195 shell pairs
          la=2 lb=2:     28 shell pairs

Calculating one electron integrals          ... done (  0.0 sec)
Calculating RI/J V-Matrix + Cholesky decomp.... done (  0.0 sec)
Calculating Nuclear repulsion               ... done (  0.0 sec) ENN=    270.958564642045 Eh

Diagonalization of the overlap matrix:
Smallest eigenvalue                        ... 3.418e-05
Time for diagonalization                   ...    0.002 sec
Threshold for overlap eigenvalues          ... 1.000e-07
Number of eigenvalues below threshold      ... 0
Time for construction of square roots      ...    0.001 sec
Total time needed                          ...    0.003 sec

-------------------
DFT GRID GENERATION
-------------------

General Integration Accuracy     IntAcc      ... 4.388
Radial Grid Type                 RadialGrid  ... OptM3 with GC (2021)
Angular Grid (max. ang.)         AngularGrid ... 4 (Lebedev-302)
Angular grid pruning method      GridPruning ... 4 (adaptive)
Weight generation scheme         WeightScheme... mBecke (2022)
Basis function cutoff            BFCut       ... 1.0000e-10
Integration weight cutoff        WCut        ... 1.0000e-14
Partially contracted basis set               ... off
Rotationally invariant grid construction     ... off
Angular grids for H and He will be reduced by one unit

Total number of grid points                  ...    67844
Total number of batches                      ...     1067
Average number of points per batch           ...       63
Average number of grid points per atom       ...     4523
Initializing property integral containers    ... done (  0.0 sec)

SHARK setup successfully completed in   0.4 seconds

Maximum memory used throughout the entire STARTUP-calculation: 29.8 MB
-------------------------------------------------------------------------------
                                 ORCA GUESS
                   Start orbitals & Density for SCF / CASSCF
-------------------------------------------------------------------------------

------------
SCF SETTINGS
------------
Hamiltonian:
 Density Functional     Method          .... DFT(GTOs)
  Functional kind                       .... Exchange
  Functional name                       .... Re-regularized SCAN exchange by Furness et al
  Functional family                     .... MGGA
  Functional refs                              
    [ 0] J. W. Furness, A. D. Kaplan, J. Ning, J. P. Perdew, and J. Sun.,  J. Phys. Chem. Lett. 11, 8208-8215 (2020), doi: 10.1021/acs.jpclett.0c02405
    [ 1] J. W. Furness, A. D. Kaplan, J. Ning, J. P. Perdew, and J. Sun.,  J. Phys. Chem. Lett. 11, 9248-9248 (2020), doi: 10.1021/acs.jpclett.0c03077
  Functional external parameters        .... 6
    Parameter  0 _c1        =  6.670000e-01 : c1 parameter        
    Parameter  1 _c2        =  8.000000e-01 : c2 parameter        
    Parameter  2 _d         =  1.240000e+00 : d parameter         
    Parameter  3 _k1        =  6.500000e-02 : k1 parameter        
    Parameter  4 _eta       =  1.000000e-03 : eta parameter       
    Parameter  5 _dp2       =  3.610000e-01 : dp2 parameter       
  Functional kind                       .... Correlation
  Functional name                       .... Re-regularized SCAN correlation by Furness et al
  Functional family                     .... MGGA
  Functional refs                              
    [ 0] J. W. Furness, A. D. Kaplan, J. Ning, J. P. Perdew, and J. Sun.,  J. Phys. Chem. Lett. 11, 8208-8215 (2020), doi: 10.1021/acs.jpclett.0c02405
    [ 1] J. W. Furness, A. D. Kaplan, J. Ning, J. P. Perdew, and J. Sun.,  J. Phys. Chem. Lett. 11, 9248-9248 (2020), doi: 10.1021/acs.jpclett.0c03077
  Functional external parameters        .... 1
    Parameter  0 _eta       =  1.000000e-03 : Regularization parameter
 Gradients option       PostSCFGGA      .... off
 RI-approximation to the Coulomb term is turned on
   Number of AuxJ basis functions       .... 431


General Settings:
 Integral files         IntName         .... sp
 Hartree-Fock type      HFTyp           .... RHF
 Total Charge           Charge          ....    0
 Multiplicity           Mult            ....    1
 Number of Electrons    NEL             ....   50
 Basis Dimension        Dim             ....  173
 Nuclear Repulsion      ENuc            ....    270.9585646420 Eh

Convergence Acceleration:
 AO-DIIS                CNVDIIS         .... on
   Start iteration      DIISMaxIt       ....    12
   Startup error        DIISStart       ....  0.200000
   # of expansion vecs  DIISMaxEq       ....     5
   Bias factor          DIISBfac        ....   1.050
   Max. coefficient     DIISMaxC        ....  10.000
 MO-DIIS                CNVKDIIS        .... off
 Trust-Rad. Augm. Hess. CNVTRAH         .... auto
   Auto Start mean grad. ratio tolernc. ....  1.125000
   Auto Start start iteration           ....     1
   Auto Start num. interpolation iter.  ....    10
   Max. Number of Micro iterations      ....    24
   Max. Number of Macro iterations      .... Maxiter - #DIIS iter
   Number of Davidson start vectors     ....     2
   Converg. threshold    (grad. norm)   ....   3.330e-04
   Grad. Scal. Fac. for Micro threshold ....   0.100
   Minimum threshold for Micro iter.    ....   1.000e-02
   NR start threshold (gradient norm)   ....   1.000e-04
   Initial trust radius                 ....   0.400
   Minimum AH scaling param. (alpha)    ....   1.000
   Maximum AH scaling param. (alpha)    .... 1000.000
   Quad. conv. algorithm                .... NR
   White noise on init. David. guess    .... on
   Maximum white noise                  ....   0.010
   Pseudo random numbers                .... off
   Inactive MOs                         .... canonical
   Orbital update algorithm             .... Taylor
   Preconditioner                       .... Diag
   Full preconditioner red. dimension   ....   250
   COSX micro iterations for RIJONX calc.... off
 SOSCF                  CNVSOSCF        .... on
   Start iteration      SOSCFMaxIt      ....   150
   Startup grad/error   SOSCFStart      ....  0.003300
   Hessian update       SOSCFHessUp     .... L-BFGS
 Level Shifting         CNVShift        .... on
   Level shift para.    LevelShift      ....    0.2500
   Turn off err/grad.   ShiftErr        ....    0.0010
 Zerner damping         CNVZerner       .... off
 Static damping         CNVDamp         .... on
   Fraction old density DampFac         ....    0.7000
   Max. Damping (<1)    DampMax         ....    0.9800
   Min. Damping (>=0)   DampMin         ....    0.0000
   Turn off err/grad.   DampErr         ....    0.1000

SCF Procedure:
 Maximum # iterations   MaxIter         ....   125
 SCF integral mode      SCFMode         .... Direct
   Integral package                     .... SHARK and LIBINT hybrid scheme
 Reset frequency        DirectResetFreq ....    20
 Integral Threshold     Thresh          ....  1.000e-10 Eh
 Primitive CutOff       TCut            ....  1.000e-11 Eh

Convergence Tolerance:
 Convergence Check Mode ConvCheckMode   .... Total+1el-Energy
 Convergence forced     ConvForced      .... 0
 Energy Change          TolE            ....  1.000e-06 Eh
 1-El. energy change                    ....  1.000e-03 Eh
 Orbital Gradient       TolG            ....  3.330e-04
 Orbital Rotation angle TolX            ....  3.330e-04
 DIIS Error             TolErr          ....  1.000e-06

---------------------
INITIAL GUESS: MOREAD
---------------------
Guess MOs are being read from file: sp.ges
Input Geometry matches current geometry (good)
Atom 0: N(Shells)= 9 and 6 - projection required
Input basis set needs projection
NBasis(read)= 114
NBasis(calc)= 173
Basis set overlap was calculated
Using GuessMode=FMatrix for the initial guess
C*T matrix was formed
Effective Fockian was calculated
Effective Fockian was diagonalized
Initial density was built
                      ------------------
                      INITIAL GUESS DONE (   0.0 sec)
                      ------------------
             **** ENERGY FILE WAS UPDATED (sp.en.tmp) ****
Finished Guess after   0.0 sec
Maximum memory used throughout the entire GUESS-calculation: 12.5 MB

-------------------------------------------------------------------------------------------
                                      ORCA LEAN-SCF
                              memory conserving SCF solver
-------------------------------------------------------------------------------------------

----------------------------------------D-I-I-S--------------------------------------------
Iteration    Energy (Eh)           Delta-E    RMSDP     MaxDP     DIISErr   Damp  Time(sec)
-------------------------------------------------------------------------------------------
               ***  Starting incremental Fock matrix formation  ***
    1    -271.3566701781747952     0.00e+00  1.25e-02  3.08e-01  2.82e-01  0.700   0.8
    2    -271.3935298548448145    -3.69e-02  9.11e-03  2.13e-01  1.99e-01  0.700   0.7
                               ***Turning on AO-DIIS***
    3    -271.4195450115489621    -2.60e-02  6.46e-03  1.49e-01  1.39e-01  0.700   0.7
    4    -271.4377975222813575    -1.83e-02  4.53e-03  1.04e-01  9.72e-02  0.700   0.7
    5    -271.4505979403928677    -1.28e-02  1.06e-02  2.43e-01  6.81e-02  0.000   0.7
                              *** Initializing SOSCF ***
---------------------------------------S-O-S-C-F--------------------------------------
Iteration    Energy (Eh)           Delta-E    RMSDP     MaxDP     MaxGrad    Time(sec)
--------------------------------------------------------------------------------------
    6    -271.4805445928968766    -2.99e-02  3.68e-05  1.25e-03  1.64e-04     0.7
               *** Restarting incremental Fock matrix formation ***
    7    -271.4805450239158517    -4.31e-07  1.82e-05  4.66e-04  6.84e-05     0.8
                  *** Gradient check signals convergence ***

               *****************************************************
               *                     SUCCESS                       *
               *           SCF CONVERGED AFTER   7 CYCLES          *
               *****************************************************

             **** ENERGY FILE WAS UPDATED (sp.en.tmp) ****

----------------
TOTAL SCF ENERGY
----------------

Total Energy       :       -271.48054502391585 Eh           -7387.36120 eV

Components:
Nuclear Repulsion  :        270.95856464204462 Eh            7373.15739 eV
Electronic Energy  :       -542.43910966596036 Eh          -14760.51858 eV
One Electron Energy:       -901.08676484799037 Eh          -24519.81743 eV
Two Electron Energy:        358.64765518202995 Eh            9759.29885 eV

Virial components:
Potential Energy   :       -541.86121514944182 Eh          -14744.79328 eV
Kinetic Energy     :        270.38067012552597 Eh            7357.43208 eV
Virial Ratio       :          2.00406787548045

DFT components:
N(Alpha)           :       24.999995239745 electrons
N(Beta)            :       24.999995239745 electrons
N(Total)           :       49.999990479491 electrons
E(X)               :      -39.312056686952 Eh       
E(C)               :       -1.584291048691 Eh       
E(XC)              :      -40.896347735643 Eh       

---------------
SCF CONVERGENCE
---------------

  Last Energy change         ...    4.3102e-07  Tolerance :   1.0000e-06
  Last MAX-Density change    ...    4.6596e-04  Tolerance :   1.0000e-05
  Last RMS-Density change    ...    1.8225e-05  Tolerance :   1.0000e-06
  Last DIIS Error            ...    1.6435e-04  Tolerance :   1.0000e-06
  Last Orbital Gradient      ...    6.8429e-05  Tolerance :   3.3300e-04
  Last Orbital Rotation      ...    3.4454e-04  Tolerance :   3.3300e-04


----------------
ORBITAL ENERGIES
----------------

  NO   OCC          E(Eh)            E(eV) 
   0   2.0000     -10.041495      -273.2430 
   1   2.0000     -10.031828      -272.9799 
   2   2.0000     -10.031789      -272.9788 
   3   2.0000     -10.029465      -272.9156 
   4   2.0000     -10.029038      -272.9040 
   5   2.0000     -10.029024      -272.9036 
   6   2.0000     -10.027274      -272.8560 
   7   2.0000      -0.826379       -22.4869 
   8   2.0000      -0.741037       -20.1646 
   9   2.0000      -0.713170       -19.4064 
  10   2.0000      -0.653304       -17.7773 
  11   2.0000      -0.573447       -15.6043 
  12   2.0000      -0.551798       -15.0152 
  13   2.0000      -0.480525       -13.0757 
  14   2.0000      -0.429521       -11.6879 
  15   2.0000      -0.420820       -11.4511 
  16   2.0000      -0.393109       -10.6970 
  17   2.0000      -0.387384       -10.5413 
  18   2.0000      -0.375818       -10.2265 
  19   2.0000      -0.354331        -9.6418 
  20   2.0000      -0.331475        -9.0199 
  21   2.0000      -0.308385        -8.3916 
  22   2.0000      -0.305629        -8.3166 
  23   2.0000      -0.234648        -6.3851 
  24   2.0000      -0.224336        -6.1045 
  25   0.0000      -0.029637        -0.8065 
  26   0.0000      -0.025744        -0.7005 
  27   0.0000       0.080319         2.1856 
  28   0.0000       0.112157         3.0520 
  29   0.0000       0.117267         3.1910 
  30   0.0000       0.121317         3.3012 
  31   0.0000       0.135368         3.6835 
  32   0.0000       0.142400         3.8749 
  33   0.0000       0.150622         4.0986 
  34   0.0000       0.158467         4.3121 
  35   0.0000       0.177618         4.8332 
*Only the first 10 virtual orbitals were printed.

                    ********************************
                    * MULLIKEN POPULATION ANALYSIS *
                    ********************************

-----------------------
MULLIKEN ATOMIC CHARGES
-----------------------
   0 C :   -0.517264
   1 C :    0.198062
   2 C :   -0.210688
   3 C :   -0.151573
   4 C :   -0.154871
   5 C :   -0.151581
   6 C :   -0.210542
   7 H :    0.150706
   8 H :    0.168350
   9 H :    0.150733
  10 H :    0.146244
  11 H :    0.145031
  12 H :    0.146114
  13 H :    0.145031
  14 H :    0.146248
Sum of atomic charges:    0.0000000

--------------------------------
MULLIKEN REDUCED ORBITAL CHARGES
--------------------------------
  0 C s       :     3.357225  s :     3.357225
      pz      :     1.101009  p :     3.132861
      px      :     0.924140
      py      :     1.107711
      dz2     :     0.005280  d :     0.027178
      dxz     :     0.005686
      dyz     :     0.003616
      dx2y2   :     0.007278
      dxy     :     0.005316

  1 C s       :     3.102407  s :     3.102407
      pz      :     0.955949  p :     2.651614
      px      :     0.817150
      py      :     0.878515
      dz2     :     0.003557  d :     0.047917
      dxz     :     0.006502
      dyz     :     0.006808
      dx2y2   :     0.015260
      dxy     :     0.015790

  2 C s       :     3.190448  s :     3.190448
      pz      :     1.006253  p :     2.982951
      px      :     0.976682
      py      :     1.000017
      dz2     :     0.003268  d :     0.037288
      dxz     :     0.005549
      dyz     :     0.003247
      dx2y2   :     0.011904
      dxy     :     0.013321

  3 C s       :     3.187476  s :     3.187476
      pz      :     0.983854  p :     2.926164
      px      :     0.943097
      py      :     0.999213
      dz2     :     0.003274  d :     0.037933
      dxz     :     0.006001
      dyz     :     0.003459
      dx2y2   :     0.012178
      dxy     :     0.013021

  4 C s       :     3.182375  s :     3.182375
      pz      :     1.000036  p :     2.934923
      px      :     1.029395
      py      :     0.905492
      dz2     :     0.003274  d :     0.037572
      dxz     :     0.002325
      dyz     :     0.006706
      dx2y2   :     0.013521
      dxy     :     0.011747

  5 C s       :     3.187505  s :     3.187505
      pz      :     0.983854  p :     2.926143
      px      :     0.943098
      py      :     0.999192
      dz2     :     0.003274  d :     0.037933
      dxz     :     0.006002
      dyz     :     0.003458
      dx2y2   :     0.012175
      dxy     :     0.013023

  6 C s       :     3.190558  s :     3.190558
      pz      :     1.006229  p :     2.982696
      px      :     0.976473
      py      :     0.999994
      dz2     :     0.003268  d :     0.037288
      dxz     :     0.005549
      dyz     :     0.003247
      dx2y2   :     0.011902
      dxy     :     0.013323

  7 H s       :     0.831037  s :     0.831037
      pz      :     0.005267  p :     0.018258
      px      :     0.004542
      py      :     0.008449

  8 H s       :     0.813334  s :     0.813334
      pz      :     0.010082  p :     0.018316
      px      :     0.004472
      py      :     0.003761

  9 H s       :     0.831006  s :     0.831006
      pz      :     0.005294  p :     0.018260
      px      :     0.004543
      py      :     0.008424

 10 H s       :     0.834258  s :     0.834258
      pz      :     0.004260  p :     0.019498
      px      :     0.005345
      py      :     0.009893

 11 H s       :     0.835507  s :     0.835507
      pz      :     0.004165  p :     0.019462
      px      :     0.005374
      py      :     0.009922

 12 H s       :     0.834356  s :     0.834356
      pz      :     0.004270  p :     0.019530
      px      :     0.012122
      py      :     0.003138

 13 H s       :     0.835507  s :     0.835507
      pz      :     0.004165  p :     0.019462
      px      :     0.005375
      py      :     0.009922

 14 H s       :     0.834256  s :     0.834256
      pz      :     0.004259  p :     0.019496
      px      :     0.005347
      py      :     0.009891


------------------------
MULLIKEN OVERLAP CHARGES
------------------------
B(  0-C ,  1-C ) :   0.3392 B(  0-C ,  2-C ) :  -0.0827 B(  0-C ,  6-C ) :  -0.0827 
B(  0-C ,  7-H ) :   0.8576 B(  0-C ,  8-H ) :   0.8321 B(  0-C ,  9-H ) :   0.8575 
B(  1-C ,  2-C ) :   1.0217 B(  1-C ,  3-C ) :  -0.1734 B(  1-C ,  5-C ) :  -0.1732 
B(  1-C ,  6-C ) :   1.0212 B(  1-C ,  7-H ) :  -0.1289 B(  1-C ,  8-H ) :  -0.0748 
B(  1-C ,  9-H ) :  -0.1286 B(  1-C , 10-H ) :  -0.0885 B(  1-C , 14-H ) :  -0.0886 
B(  2-C ,  3-C ) :   1.0174 B(  2-C ,  4-C ) :  -0.2075 B(  2-C ,  5-C ) :  -0.0985 
B(  2-C ,  6-C ) :  -0.0551 B(  2-C , 10-H ) :   0.7988 B(  2-C , 11-H ) :  -0.0589 
B(  3-C ,  4-C ) :   1.0595 B(  3-C ,  5-C ) :  -0.1625 B(  3-C ,  6-C ) :  -0.0986 
B(  3-C , 11-H ) :   0.7971 B(  3-C , 12-H ) :  -0.0632 B(  4-C ,  5-C ) :   1.0593 
B(  4-C ,  6-C ) :  -0.2074 B(  4-C , 11-H ) :  -0.0602 B(  4-C , 12-H ) :   0.8011 
B(  4-C , 13-H ) :  -0.0602 B(  5-C ,  6-C ) :   1.0176 B(  5-C , 12-H ) :  -0.0633 
B(  5-C , 13-H ) :   0.7972 B(  6-C , 13-H ) :  -0.0589 B(  6-C , 14-H ) :   0.7989 



                     *******************************
                     * LOEWDIN POPULATION ANALYSIS *
                     *******************************

----------------------
LOEWDIN ATOMIC CHARGES
----------------------
   0 C :   -0.390732
   1 C :   -0.098790
   2 C :   -0.166948
   3 C :   -0.161542
   4 C :   -0.175688
   5 C :   -0.161538
   6 C :   -0.166915
   7 H :    0.160710
   8 H :    0.166306
   9 H :    0.160742
  10 H :    0.167684
  11 H :    0.166399
  12 H :    0.166217
  13 H :    0.166398
  14 H :    0.167697

-------------------------------
LOEWDIN REDUCED ORBITAL CHARGES
-------------------------------
  0 C s       :     2.955670  s :     2.955670
      pz      :     1.155564  p :     3.371773
      px      :     1.060761
      py      :     1.155448
      dz2     :     0.012796  d :     0.063289
      dxz     :     0.012137
      dyz     :     0.009467
      dx2y2   :     0.016864
      dxy     :     0.012026

  1 C s       :     2.869347  s :     2.869347
      pz      :     0.947717  p :     3.130659
      px      :     1.065720
      py      :     1.117221
      dz2     :     0.006464  d :     0.098784
      dxz     :     0.010455
      dyz     :     0.012344
      dx2y2   :     0.034774
      dxy     :     0.034747

  2 C s       :     2.898687  s :     2.898687
      pz      :     0.997016  p :     3.186512
      px      :     1.096590
      py      :     1.092906
      dz2     :     0.005669  d :     0.081749
      dxz     :     0.009965
      dyz     :     0.005418
      dx2y2   :     0.028540
      dxy     :     0.032158

  3 C s       :     2.904030  s :     2.904030
      pz      :     0.971979  p :     3.174907
      px      :     1.100232
      py      :     1.102697
      dz2     :     0.005573  d :     0.082605
      dxz     :     0.010884
      dyz     :     0.005692
      dx2y2   :     0.028968
      dxy     :     0.031488

  4 C s       :     2.903719  s :     2.903719
      pz      :     0.988724  p :     3.190047
      px      :     1.101528
      py      :     1.099795
      dz2     :     0.005586  d :     0.081923
      dxz     :     0.003363
      dyz     :     0.012313
      dx2y2   :     0.032844
      dxy     :     0.027817

  5 C s       :     2.904030  s :     2.904030
      pz      :     0.971973  p :     3.174902
      px      :     1.100252
      py      :     1.102677
      dz2     :     0.005573  d :     0.082606
      dxz     :     0.010886
      dyz     :     0.005690
      dx2y2   :     0.028963
      dxy     :     0.031494

  6 C s       :     2.898682  s :     2.898682
      pz      :     0.996999  p :     3.186485
      px      :     1.096591
      py      :     1.092895
      dz2     :     0.005669  d :     0.081749
      dxz     :     0.009965
      dyz     :     0.005417
      dx2y2   :     0.028533
      dxy     :     0.032165

  7 H s       :     0.795991  s :     0.795991
      pz      :     0.012241  p :     0.043298
      px      :     0.010072
      py      :     0.020985

  8 H s       :     0.790067  s :     0.790067
      pz      :     0.025383  p :     0.043627
      px      :     0.010077
      py      :     0.008167

  9 H s       :     0.795953  s :     0.795953
      pz      :     0.012313  p :     0.043305
      px      :     0.010075
      py      :     0.020917

 10 H s       :     0.787807  s :     0.787807
      pz      :     0.009244  p :     0.044508
      px      :     0.012166
      py      :     0.023099

 11 H s       :     0.789211  s :     0.789211
      pz      :     0.008903  p :     0.044389
      px      :     0.012327
      py      :     0.023159

 12 H s       :     0.789131  s :     0.789131
      pz      :     0.009223  p :     0.044651
      px      :     0.028363
      py      :     0.007066

 13 H s       :     0.789212  s :     0.789212
      pz      :     0.008903  p :     0.044391
      px      :     0.012329
      py      :     0.023158

 14 H s       :     0.787799  s :     0.787799
      pz      :     0.009242  p :     0.044505
      px      :     0.012169
      py      :     0.023093


---------------------------------
LOEWDIN BOND ORDERS (THRESH 0.050000)
---------------------------------
B(  0-C ,  1-C ) :   1.1131 B(  0-C ,  2-C ) :   0.0886 B(  0-C ,  6-C ) :   0.0886 
B(  0-C ,  7-H ) :   0.9183 B(  0-C ,  8-H ) :   0.9102 B(  0-C ,  9-H ) :   0.9183 
B(  1-C ,  2-C ) :   1.4485 B(  1-C ,  3-C ) :   0.0896 B(  1-C ,  4-C ) :   0.1280 
B(  1-C ,  5-C ) :   0.0896 B(  1-C ,  6-C ) :   1.4482 B(  1-C , 10-H ) :   0.0524 
B(  1-C , 14-H ) :   0.0524 B(  2-C ,  3-C ) :   1.5151 B(  2-C ,  4-C ) :   0.0882 
B(  2-C ,  5-C ) :   0.1306 B(  2-C ,  6-C ) :   0.0856 B(  2-C , 10-H ) :   0.8690 
B(  2-C , 11-H ) :   0.0552 B(  3-C ,  4-C ) :   1.5076 B(  3-C ,  5-C ) :   0.0877 
B(  3-C ,  6-C ) :   0.1306 B(  3-C , 10-H ) :   0.0538 B(  3-C , 11-H ) :   0.8742 
B(  3-C , 12-H ) :   0.0541 B(  4-C ,  5-C ) :   1.5074 B(  4-C ,  6-C ) :   0.0882 
B(  4-C , 11-H ) :   0.0541 B(  4-C , 12-H ) :   0.8758 B(  4-C , 13-H ) :   0.0541 
B(  5-C ,  6-C ) :   1.5154 B(  5-C , 12-H ) :   0.0541 B(  5-C , 13-H ) :   0.8742 
B(  5-C , 14-H ) :   0.0538 B(  6-C , 13-H ) :   0.0552 B(  6-C , 14-H ) :   0.8690 


------------------------------------------
LOEWDIN REDUCED ORBITAL POPULATIONS PER MO
-------------------------------------------
THRESHOLD FOR PRINTING IS 0.1%%
                      0         1         2         3         4         5   
                 -10.04149 -10.03183 -10.03179 -10.02947 -10.02904 -10.02902
                   2.00000   2.00000   2.00000   2.00000   2.00000   2.00000
                  --------  --------  --------  --------  --------  --------
 1 C  s              99.5       0.0       0.0       0.0       0.0       0.1
 1 C  py              0.0       0.0       0.0       0.0       0.2       0.0
 2 C  s               0.1       0.3       0.4       0.3      45.9      52.6
 2 C  py              0.1       0.0       0.0       0.0       0.0       0.0
 3 C  s               0.0      45.8      52.1       0.9       0.4       0.5
 4 C  s               0.0       2.0       0.0      97.2       0.0       0.5
 4 C  py              0.0       0.0       0.2       0.0       0.0       0.0
 5 C  s               0.0      51.2      46.7       0.9       0.4       0.4
 6 C  s               0.1       0.4       0.4       0.3      52.9      45.6

                      6         7         8         9        10        11   
                 -10.02727  -0.82638  -0.74104  -0.71317  -0.65330  -0.57345
                   2.00000   2.00000   2.00000   2.00000   2.00000   2.00000
                  --------  --------  --------  --------  --------  --------
 0 C  s              99.7       3.1      16.4       0.0      23.3       0.0
 0 C  px              0.0       1.7       1.5       0.0       1.2       0.0
 0 C  py              0.0       0.0       0.0       0.3       0.0       1.7
 1 C  s               0.0      15.3      14.8       0.0       0.7       0.0
 1 C  px              0.1       1.5       3.6       0.0      13.7       0.0
 1 C  py              0.0       0.0       0.0      10.1       0.0      16.0
 1 C  dz2             0.0       0.2       0.1       0.0       0.0       0.0
 1 C  dx2y2           0.0       0.0       0.0       0.0       0.3       0.0
 1 C  dxy             0.0       0.0       0.0       0.3       0.0       0.2
 2 C  s               0.0      12.5       1.0      14.4       4.9       6.4
 2 C  px              0.0       0.4       6.0       1.9       0.0       6.4
 2 C  py              0.0       2.4       1.2       0.7       0.2       0.2
 2 C  dz2             0.0       0.1       0.0       0.1       0.0       0.0
 2 C  dx2y2           0.0       0.0       0.1       0.1       0.0       0.0
 3 C  s               0.0      10.9       5.8      14.2       0.4       7.1
 3 C  px              0.0       0.8       2.0       2.0       5.8       5.1
 3 C  py              0.0       1.8       1.6       0.7       1.2       0.2
 3 C  dz2             0.0       0.1       0.0       0.1       0.0       0.0
 3 C  dx2y2           0.0       0.0       0.0       0.1       0.1       0.0
 4 C  s               0.0      10.5      14.2       0.0      10.2       0.0
 4 C  px              0.0       2.6       0.4       0.0       0.6       0.0
 4 C  py              0.0       0.0       0.0       9.6       0.0      14.1
 4 C  dz2             0.0       0.1       0.1       0.0       0.0       0.0
 4 C  dxy             0.0       0.0       0.0       0.3       0.0       0.2
 5 C  s               0.0      10.9       5.8      14.2       0.4       7.1
 5 C  px              0.0       0.8       2.0       2.0       5.8       5.1
 5 C  py              0.0       1.8       1.6       0.7       1.2       0.2
 5 C  dz2             0.0       0.1       0.0       0.1       0.0       0.0
 5 C  dx2y2           0.0       0.0       0.0       0.1       0.1       0.0
 6 C  s               0.0      12.5       1.0      14.4       4.9       6.4
 6 C  px              0.0       0.4       6.0       1.9       0.0       6.4
 6 C  py              0.0       2.4       1.2       0.7       0.2       0.2
 6 C  dz2             0.0       0.1       0.0       0.1       0.0       0.0
 6 C  dx2y2           0.0       0.0       0.1       0.1       0.0       0.0
 7 H  s               0.0       0.4       2.5       0.0       5.8       0.2
 7 H  pz              0.0       0.0       0.0       0.0       0.1       0.0
 7 H  py              0.0       0.0       0.2       0.0       0.3       0.0
 8 H  s               0.0       0.3       2.5       0.0       5.9       0.0
 8 H  pz              0.0       0.0       0.2       0.0       0.4       0.0
 9 H  s               0.0       0.4       2.5       0.0       5.8       0.2
 9 H  pz              0.0       0.0       0.0       0.0       0.1       0.0
 9 H  py              0.0       0.0       0.1       0.0       0.3       0.0
10 H  s               0.0       1.2       0.2       2.6       0.8       3.7
10 H  py              0.0       0.1       0.0       0.2       0.1       0.3
11 H  s               0.0       1.0       0.8       2.5       0.1       3.8
11 H  py              0.0       0.0       0.1       0.2       0.0       0.3
12 H  s               0.0       0.9       2.0       0.0       2.9       0.0
12 H  px              0.0       0.1       0.2       0.0       0.3       0.0
13 H  s               0.0       1.0       0.8       2.5       0.1       3.8
13 H  py              0.0       0.0       0.1       0.2       0.0       0.3
14 H  s               0.0       1.2       0.2       2.6       0.8       3.7
14 H  py              0.0       0.1       0.0       0.2       0.1       0.3

                     12        13        14        15        16        17   
                  -0.55180  -0.48052  -0.42952  -0.42082  -0.39311  -0.38738
                   2.00000   2.00000   2.00000   2.00000   2.00000   2.00000
                  --------  --------  --------  --------  --------  --------
 0 C  s               3.2       1.0       0.0       0.1       0.0       0.0
 0 C  pz              0.0       0.0       0.0       0.1      46.1       0.0
 0 C  px              4.6       5.2       0.0       6.9       0.0       0.0
 0 C  py              0.0       0.0      13.3       0.0       0.0       0.9
 0 C  dz2             0.0       0.0       0.0       0.0       0.3       0.0
 0 C  dx2y2           0.1       0.1       0.0       0.2       0.1       0.0
 1 C  s               7.8       0.8       0.0       4.3       0.0       0.0
 1 C  pz              0.0       0.0       0.0       0.0      14.7       0.0
 1 C  px              0.8       2.8       0.0       1.2       0.0       0.0
 1 C  py              0.0       0.0      12.1       0.0       0.0       3.0
 1 C  dx2y2           0.0       0.2       0.0       0.2       0.0       0.0
 1 C  dxy             0.0       0.0       0.0       0.0       0.0       0.6
 2 C  s               1.1       0.9       0.2       2.4       0.0       0.6
 2 C  pz              0.0       0.0       0.0       0.0       3.9       0.0
 2 C  px              4.7       5.1       9.5       0.9       0.0       3.3
 2 C  py              8.9       5.9       2.8       5.5       0.0      11.6
 2 C  dx2y2           0.2       0.0       0.0       0.0       0.0       0.2
 2 C  dxy             0.0       0.0       0.0       0.4       0.0       0.0
 3 C  s               3.4       0.3       0.0       2.4       0.0       0.4
 3 C  pz              0.0       0.0       0.0       0.0       1.2       0.0
 3 C  px              2.8       3.3      12.3       2.6       0.0       3.6
 3 C  py              7.5       5.9       1.8       7.4       0.0      12.9
 3 C  dx2y2           0.1       0.0       0.1       0.1       0.0       0.2
 3 C  dxy             0.0       0.0       0.0       0.4       0.0       0.0
 4 C  s               5.8       1.5       0.0       2.8       0.0       0.0
 4 C  pz              0.0       0.0       0.0       0.0       0.8       0.0
 4 C  px              1.7      17.9       0.0       1.0       0.1       0.0
 4 C  py              0.0       0.0      13.0       0.0       0.0       3.2
 4 C  dx2y2           0.0       0.0       0.0       0.3       0.0       0.0
 4 C  dxy             0.0       0.0       0.0       0.0       0.0       0.5
 5 C  s               3.4       0.3       0.0       2.4       0.0       0.4
 5 C  pz              0.0       0.0       0.0       0.0       1.2       0.0
 5 C  px              2.8       3.3      12.3       2.6       0.0       3.6
 5 C  py              7.5       5.9       1.8       7.4       0.0      12.9
 5 C  dx2y2           0.1       0.0       0.1       0.1       0.0       0.2
 5 C  dxy             0.0       0.0       0.0       0.4       0.0       0.0
 6 C  s               1.1       0.9       0.3       2.4       0.0       0.6
 6 C  pz              0.0       0.0       0.0       0.0       3.9       0.0
 6 C  px              4.7       5.1       9.5       0.9       0.0       3.3
 6 C  py              8.9       5.9       2.8       5.5       0.0      11.6
 6 C  dx2y2           0.2       0.0       0.0       0.0       0.0       0.2
 6 C  dxy             0.0       0.0       0.0       0.4       0.0       0.0
 7 H  s               1.8       0.8       3.1       0.8       4.2       0.3
 7 H  py              0.1       0.1       0.0       0.0       0.2       0.0
 8 H  s               1.7       1.1       0.0       0.2      17.7       0.0
 8 H  pz              0.1       0.1       0.0       0.0       0.3       0.0
 8 H  px              0.0       0.0       0.0       0.0       0.2       0.0
 9 H  s               1.8       0.8       3.1       0.8       4.2       0.3
 9 H  py              0.1       0.1       0.0       0.0       0.2       0.0
10 H  s               1.5       4.9       0.0       7.0       0.0       5.7
10 H  px              0.1       0.0       0.1       0.1       0.0       0.0
10 H  py              0.0       0.2       0.0       0.1       0.0       0.1
11 H  s               2.8       2.5       0.2       9.3       0.0       6.8
11 H  px              0.1       0.0       0.1       0.1       0.0       0.0
11 H  py              0.1       0.1       0.1       0.2       0.0       0.1
12 H  s               3.3       8.4       0.0       3.0       0.1       0.0
12 H  px              0.2       0.4       0.0       0.1       0.0       0.0
12 H  py              0.0       0.0       0.1       0.0       0.0       0.0
13 H  s               2.8       2.5       0.2       9.3       0.0       6.8
13 H  px              0.1       0.0       0.1       0.1       0.0       0.0
13 H  py              0.1       0.1       0.1       0.2       0.0       0.1
14 H  s               1.5       4.9       0.0       7.0       0.0       5.7
14 H  px              0.1       0.0       0.1       0.1       0.0       0.0
14 H  py              0.0       0.2       0.0       0.1       0.0       0.1

                     18        19        20        21        22        23   
                  -0.37582  -0.35433  -0.33148  -0.30838  -0.30563  -0.23465
                   2.00000   2.00000   2.00000   2.00000   2.00000   2.00000
                  --------  --------  --------  --------  --------  --------
 0 C  s               0.2       0.0       0.0       0.8       0.0       0.0
 0 C  pz              0.0       0.0       9.0       0.1       0.0       0.0
 0 C  px             18.0       0.0       0.0      13.8       0.0       0.0
 0 C  py              0.0      39.0       0.0       0.0       2.5       0.0
 0 C  dxz             0.0       0.0       0.1       0.0       0.0       0.0
 0 C  dyz             0.0       0.4       0.0       0.0       0.0       0.0
 0 C  dx2y2           0.2       0.0       0.0       0.1       0.0       0.0
 0 C  dxy             0.0       0.3       0.0       0.0       0.2       0.0
 1 C  pz              0.0       0.0       5.0       0.0       0.0       0.0
 1 C  px             18.9       0.0       0.0      10.5       0.0       0.0
 1 C  py              0.0       0.8       0.0       0.0      13.7       0.0
 1 C  dxz             0.0       0.0       0.3       0.0       0.0       0.0
 1 C  dyz             0.0       0.0       0.0       0.0       0.0       0.6
 1 C  dx2y2           0.0       0.0       0.0       1.0       0.0       0.0
 1 C  dxy             0.0       0.2       0.0       0.0       0.5       0.0
 2 C  s               0.3       0.4       0.0       0.1       0.1       0.0
 2 C  pz              0.0       0.0      11.6       0.0       0.0      24.4
 2 C  px              0.7       5.0       0.0      10.2       0.6       0.0
 2 C  py              4.5       0.2       0.0       0.2      10.2       0.0
 2 C  dxz             0.0       0.0       0.1       0.0       0.0       0.2
 2 C  dx2y2           0.1       0.1       0.0       0.4       0.0       0.0
 2 C  dxy             0.1       0.0       0.0       0.0       0.8       0.0
 3 C  s               0.3       0.1       0.0       0.0       0.1       0.0
 3 C  pz              0.0       0.0      17.2       0.0       0.0      24.1
 3 C  px              0.4       3.2       0.0      10.5       0.2       0.0
 3 C  py              3.4       1.2       0.0       0.2       9.2       0.0
 3 C  dxz             0.0       0.0       0.0       0.0       0.0       0.2
 3 C  dyz             0.0       0.0       0.1       0.0       0.0       0.0
 3 C  dx2y2           0.3       0.0       0.0       0.4       0.0       0.0
 3 C  dxy             0.1       0.1       0.0       0.0       0.8       0.0
 4 C  s               0.4       0.0       0.0       0.1       0.0       0.0
 4 C  pz              0.0       0.0      18.9       0.0       0.0       0.0
 4 C  px             21.8       0.0       0.0       8.9       0.0       0.0
 4 C  py              0.0       4.3       0.0       0.0      10.5       0.0
 4 C  dxz             0.0       0.0       0.1       0.0       0.0       0.0
 4 C  dyz             0.0       0.0       0.0       0.0       0.0       0.6
 4 C  dx2y2           0.3       0.0       0.0       0.9       0.0       0.0
 4 C  dxy             0.0       0.0       0.0       0.0       0.3       0.0
 5 C  s               0.3       0.1       0.0       0.0       0.1       0.0
 5 C  pz              0.0       0.0      17.2       0.0       0.0      24.1
 5 C  px              0.4       3.2       0.0      10.5       0.2       0.0
 5 C  py              3.4       1.2       0.0       0.2       9.2       0.0
 5 C  dxz             0.0       0.0       0.0       0.0       0.0       0.2
 5 C  dyz             0.0       0.0       0.1       0.0       0.0       0.0
 5 C  dx2y2           0.3       0.0       0.0       0.4       0.0       0.0
 5 C  dxy             0.1       0.1       0.0       0.0       0.8       0.0
 6 C  s               0.3       0.4       0.0       0.1       0.1       0.0
 6 C  pz              0.0       0.0      11.6       0.0       0.0      24.4
 6 C  px              0.8       5.0       0.0      10.2       0.6       0.0
 6 C  py              4.4       0.2       0.0       0.2      10.2       0.0
 6 C  dxz             0.0       0.0       0.1       0.0       0.0       0.2
 6 C  dx2y2           0.1       0.1       0.0       0.4       0.0       0.0
 6 C  dxy             0.1       0.0       0.0       0.0       0.8       0.0
 7 H  s               1.3      14.4       1.3       0.6       1.4       0.0
 7 H  pz              0.0       0.2       0.0       0.0       0.0       0.0
 7 H  px              0.1       0.1       0.0       0.1       0.0       0.0
 8 H  s               1.2       0.0       4.9       0.7       0.0       0.0
 8 H  px              0.1       0.0       0.0       0.1       0.0       0.0
 8 H  py              0.0       0.3       0.0       0.0       0.0       0.0
 9 H  s               1.4      14.4       1.3       0.5       1.4       0.0
 9 H  pz              0.0       0.2       0.0       0.0       0.0       0.0
 9 H  px              0.1       0.1       0.0       0.1       0.0       0.0
10 H  s               1.7       2.1       0.0       2.0       6.0       0.0
10 H  pz              0.0       0.0       0.1       0.0       0.0       0.3
11 H  s               0.5       0.1       0.0       2.3       6.6       0.0
11 H  pz              0.0       0.0       0.1       0.0       0.0       0.3
12 H  s              10.7       0.0       0.0       8.2       0.0       0.0
12 H  pz              0.0       0.0       0.1       0.0       0.0       0.0
12 H  px              0.2       0.0       0.0       0.0       0.0       0.0
12 H  py              0.0       0.1       0.0       0.0       0.1       0.0
13 H  s               0.5       0.1       0.0       2.3       6.5       0.0
13 H  pz              0.0       0.0       0.1       0.0       0.0       0.3
14 H  s               1.6       2.1       0.0       2.0       6.0       0.0
14 H  pz              0.0       0.0       0.1       0.0       0.0       0.3

                     24        25        26        27        28        29   
                  -0.22434  -0.02964  -0.02574   0.08032   0.11216   0.11727
                   2.00000   0.00000   0.00000   0.00000   0.00000   0.00000
                  --------  --------  --------  --------  --------  --------
 0 C  s               0.0       0.0       0.0       8.8      28.8       0.1
 0 C  pz              2.5       0.0       0.1       0.2       0.2       5.2
 0 C  px              0.0       0.0       0.0       5.7       6.3       0.0
 0 C  py              0.0       0.3       0.0       0.0       0.0       0.0
 0 C  dz2             0.1       0.0       0.1       0.1       0.0       0.3
 0 C  dxz             0.4       0.0       0.9       0.0       0.0       0.8
 0 C  dx2y2           0.0       0.0       0.0       0.6       0.0       0.1
 1 C  s               0.0       0.0       0.0       2.7       3.4       0.5
 1 C  pz             27.6       0.0      30.3       0.0       0.0      11.0
 1 C  px              0.0       0.0       0.0       1.9       1.7       0.0
 1 C  dz2             0.0       0.0       0.0       0.0       0.6       0.1
 1 C  dxz             0.2       0.0       0.1       0.0       0.0       0.5
 1 C  dyz             0.0       1.4       0.0       0.0       0.0       0.0
 1 C  dx2y2           0.0       0.0       0.0       0.8       0.5       0.0
 2 C  s               0.0       0.0       0.0       5.4       1.0       0.3
 2 C  pz              9.9      22.6       7.0       0.0       0.0      11.4
 2 C  px              0.0       0.0       0.0       3.3       2.8       0.2
 2 C  py              0.0       0.0       0.0       6.3       0.1       0.0
 2 C  dxz             0.2       0.5       0.6       0.0       0.0       0.1
 2 C  dyz             0.2       0.0       0.6       0.0       0.0       0.3
 2 C  dx2y2           0.0       0.0       0.0       0.1       0.4       0.0
 2 C  dxy             0.0       0.0       0.0       0.6       0.3       0.0
 3 C  s               0.0       0.0       0.0       3.1       1.6       0.5
 3 C  pz              6.1      23.2       7.4       0.1       0.0      13.8
 3 C  px              0.0       0.0       0.0       0.6       1.7       0.0
 3 C  py              0.0       0.0       0.0       1.6       3.5       0.3
 3 C  dz2             0.0       0.0       0.0       0.0       0.2       0.0
 3 C  dxz             0.3       0.5       0.6       0.0       0.0       0.1
 3 C  dyz             0.2       0.0       0.5       0.0       0.0       0.3
 3 C  dx2y2           0.0       0.0       0.0       0.3       0.1       0.0
 3 C  dxy             0.0       0.0       0.0       0.7       0.3       0.0
 4 C  s               0.0       0.0       0.0       3.0       0.8       0.3
 4 C  pz             29.7       0.0      29.6       0.1       0.0      14.1
 4 C  px              0.0       0.0       0.0       1.7       4.2       0.1
 4 C  dxz             0.0       0.0       0.2       0.0       0.0       0.4
 4 C  dyz             0.0       1.4       0.0       0.0       0.0       0.0
 4 C  dx2y2           0.0       0.0       0.0       0.9       0.6       0.0
 5 C  s               0.0       0.0       0.0       3.1       1.6       0.5
 5 C  pz              6.1      23.0       7.5       0.1       0.0      13.8
 5 C  px              0.0       0.0       0.0       0.6       1.7       0.0
 5 C  py              0.0       0.0       0.0       1.6       3.5       0.3
 5 C  dz2             0.0       0.0       0.0       0.0       0.2       0.0
 5 C  dxz             0.3       0.5       0.6       0.0       0.0       0.1
 5 C  dyz             0.2       0.0       0.5       0.0       0.0       0.3
 5 C  dx2y2           0.0       0.0       0.0       0.3       0.1       0.0
 5 C  dxy             0.0       0.0       0.0       0.7       0.3       0.0
 6 C  s               0.0       0.0       0.0       5.4       1.0       0.3
 6 C  pz              9.9      22.8       6.9       0.0       0.0      11.4
 6 C  px              0.0       0.0       0.0       3.3       2.8       0.2
 6 C  py              0.0       0.0       0.0       6.3       0.1       0.0
 6 C  dxz             0.2       0.5       0.6       0.0       0.0       0.1
 6 C  dyz             0.2       0.0       0.6       0.0       0.0       0.3
 6 C  dx2y2           0.0       0.0       0.0       0.1       0.4       0.0
 6 C  dxy             0.0       0.0       0.0       0.6       0.3       0.0
 7 H  s               0.8       0.1       0.6       2.0       2.3       1.3
 7 H  pz              0.0       0.0       0.0       0.1       0.5       0.0
 7 H  px              0.0       0.0       0.0       0.1       0.2       0.0
 7 H  py              0.0       0.0       0.0       0.9       1.1       0.3
 8 H  s               3.3       0.0       2.2       0.6       4.6       3.3
 8 H  pz              0.0       0.0       0.0       0.4       2.1       0.5
 8 H  px              0.0       0.0       0.1       0.1       0.2       0.3
 9 H  s               0.8       0.2       0.6       2.0       2.3       1.3
 9 H  pz              0.0       0.0       0.0       0.1       0.5       0.0
 9 H  px              0.0       0.0       0.0       0.1       0.2       0.0
 9 H  py              0.0       0.0       0.0       0.8       1.1       0.3
10 H  s               0.0       0.0       0.0       4.7       1.3       0.0
10 H  pz              0.1       0.7       0.2       0.0       0.0       0.8
10 H  px              0.0       0.0       0.0       0.6       0.0       0.0
10 H  py              0.0       0.0       0.0       1.1       0.1       0.0
11 H  s               0.0       0.0       0.0       2.2       3.1       0.1
11 H  pz              0.1       0.7       0.2       0.0       0.0       0.8
11 H  px              0.0       0.0       0.0       0.1       0.3       0.0
11 H  py              0.0       0.0       0.0       0.6       0.8       0.1
12 H  s               0.0       0.0       0.0       3.1       1.4       0.0
12 H  pz              0.3       0.0       0.9       0.0       0.0       0.9
12 H  px              0.0       0.0       0.0       0.8       0.7       0.0
13 H  s               0.0       0.0       0.0       2.2       3.1       0.1
13 H  pz              0.1       0.7       0.2       0.0       0.0       0.8
13 H  px              0.0       0.0       0.0       0.1       0.3       0.0
13 H  py              0.0       0.0       0.0       0.6       0.8       0.1
14 H  s               0.0       0.0       0.0       4.7       1.3       0.0
14 H  pz              0.1       0.7       0.2       0.0       0.0       0.8
14 H  px              0.0       0.0       0.0       0.6       0.0       0.0
14 H  py              0.0       0.0       0.0       1.1       0.1       0.0

                     30        31        32        33        34        35   
                   0.12132   0.13537   0.14240   0.15062   0.15847   0.17762
                   0.00000   0.00000   0.00000   0.00000   0.00000   0.00000
                  --------  --------  --------  --------  --------  --------
 0 C  s               0.0       1.9       0.0       0.0       3.6       0.0
 0 C  pz              0.0       0.2       5.0       0.0       0.4       0.0
 0 C  px              0.0       2.4       1.4       0.0      38.1       0.0
 0 C  py             14.4       0.0       0.0       9.3       0.0      21.2
 0 C  dz2             0.0       0.0       0.2       0.0       0.9       0.0
 0 C  dyz             0.0       0.0       0.0       0.3       0.0       2.3
 0 C  dx2y2           0.0       0.1       0.7       0.0       1.6       0.0
 0 C  dxy             0.3       0.0       0.0       0.3       0.0       2.1
 1 C  s               0.0       1.6       7.5       0.0      10.3       0.0
 1 C  pz              0.0       0.2       1.8       0.0       0.0       0.0
 1 C  px              0.0       2.6       1.8       0.0       2.7       0.0
 1 C  py              2.5       0.0       0.0       0.7       0.0       2.0
 1 C  dz2             0.0       0.0       1.2       0.0       0.0       0.0
 1 C  dx2y2           0.0       0.8       0.0       0.0       0.1       0.0
 1 C  dxy             1.0       0.0       0.0       0.2       0.0       2.1
 2 C  s               4.1       1.8       5.3       4.1       2.1       2.0
 2 C  pz              0.0       0.1       0.8       0.2       0.0       2.2
 2 C  px              1.9       1.8       3.9       2.4       0.2       0.3
 2 C  py             10.7       8.1       0.7       3.3       0.4       2.1
 2 C  dz2             0.0       0.4       0.2       0.3       0.4       0.1
 2 C  dx2y2           0.1       0.5       0.3       0.2       0.0       0.0
 2 C  dxy             0.5       0.0       0.3       0.0       0.1       0.0
 3 C  s               3.5       4.2       8.1       6.5       1.5       0.6
 3 C  pz              0.0       0.1       0.4       0.0       0.0       0.0
 3 C  px              1.7       2.6       1.0       8.5       1.7       0.5
 3 C  py              7.8       0.6       3.3       4.4       4.4       5.6
 3 C  dz2             0.0       0.3       0.0       0.5       0.5       0.0
 3 C  dx2y2           0.0       0.0       0.1       0.4       0.5       0.1
 3 C  dxy             0.6       0.2       0.4       0.0       0.0       0.0
 4 C  s               0.0      15.1       6.7       0.0       2.5       0.0
 4 C  pz              0.0       0.1       0.4       0.0       0.0       0.0
 4 C  px              0.0      18.2       6.6       0.0       1.8       0.0
 4 C  py              1.9       0.0       0.0       9.9       0.0       0.2
 4 C  dz2             0.0       0.0       1.4       0.0       0.0       0.0
 4 C  dx2y2           0.0       0.1       0.0       0.0       0.8       0.0
 4 C  dxy             0.1       0.0       0.0       1.0       0.0       0.1
 5 C  s               3.5       4.2       8.2       6.4       1.5       0.7
 5 C  pz              0.0       0.1       0.4       0.0       0.0       0.0
 5 C  px              1.7       2.7       1.0       8.5       1.7       0.5
 5 C  py              7.8       0.6       3.3       4.3       4.4       5.5
 5 C  dz2             0.0       0.3       0.0       0.5       0.5       0.0
 5 C  dx2y2           0.0       0.0       0.1       0.4       0.5       0.1
 5 C  dxy             0.6       0.2       0.4       0.0       0.0       0.0
 6 C  s               4.1       1.8       5.2       4.1       2.1       2.1
 6 C  pz              0.0       0.1       0.8       0.2       0.0       2.2
 6 C  px              1.9       1.8       3.9       2.4       0.2       0.3
 6 C  py             10.7       8.1       0.7       3.3       0.4       2.1
 6 C  dz2             0.0       0.4       0.2       0.3       0.4       0.1
 6 C  dx2y2           0.1       0.5       0.3       0.2       0.0       0.0
 6 C  dxy             0.5       0.0       0.3       0.0       0.1       0.0
 7 H  s               1.0       0.1       1.3       1.3       0.4      15.0
 7 H  pz              0.0       0.0       0.1       0.0       0.0       1.5
 7 H  px              0.2       0.1       0.1       0.0       1.0       1.3
 7 H  py              0.3       0.0       0.5       0.0       0.0       1.4
 8 H  s               0.0       0.2       1.3       0.0       0.8       0.0
 8 H  pz              0.0       0.1       0.0       0.0       0.0       0.0
 8 H  px              0.0       0.1       0.0       0.0       0.7       0.0
 8 H  py              0.0       0.0       0.0       0.1       0.0       1.2
 9 H  s               1.0       0.1       1.2       1.3       0.4      14.9
 9 H  pz              0.0       0.0       0.1       0.0       0.0       1.5
 9 H  px              0.2       0.1       0.1       0.0       1.0       1.3
 9 H  py              0.3       0.0       0.5       0.0       0.0       1.4
10 H  s               2.1       2.3       1.0       1.8       0.2       0.2
10 H  px              0.6       0.0       0.6       0.9       0.1       0.0
10 H  py              1.0       1.0       0.1       0.4       0.0       0.3
11 H  s               2.2       0.1       0.6       1.9       2.4       0.5
11 H  px              0.5       0.3       0.0       0.9       0.0       0.0
11 H  py              0.9       0.0       0.6       0.5       0.9       0.4
12 H  s               0.0       3.8       2.9       0.0       1.6       0.0
12 H  px              0.0       3.0       0.9       0.0       0.1       0.0
12 H  py              0.0       0.0       0.0       1.2       0.0       0.0
13 H  s               2.2       0.1       0.6       1.9       2.4       0.5
13 H  px              0.5       0.3       0.0       0.9       0.0       0.0
13 H  py              0.9       0.0       0.6       0.5       0.9       0.4
14 H  s               2.1       2.3       1.0       1.8       0.2       0.2
14 H  px              0.6       0.0       0.6       0.8       0.1       0.0
14 H  py              1.0       1.0       0.1       0.4       0.0       0.3

                     36        37        38        39        40        41   
                   0.18356   0.19750   0.20262   0.20939   0.23050   0.24357
                   0.00000   0.00000   0.00000   0.00000   0.00000   0.00000
                  --------  --------  --------  --------  --------  --------
 0 C  s               2.3       0.8       0.0       0.0       0.0       0.1
 0 C  pz             14.9      17.7       0.0      28.4       0.0      19.1
 0 C  px              5.2       2.0       0.0       0.1       0.0       1.6
 0 C  py              0.0       0.0      33.8       0.0       0.8       0.0
 0 C  dz2             2.8       0.2       0.0       0.5       0.0       0.0
 0 C  dxz             0.1       0.1       0.0       0.1       0.0       0.0
 0 C  dyz             0.0       0.0       2.4       0.0       0.0       0.0
 0 C  dx2y2           0.0       1.2       0.0       0.3       0.0       0.0
 1 C  s               2.0       4.6       0.0       2.0       0.0       0.3
 1 C  pz              1.8       2.0       0.0       6.0       0.0       1.4
 1 C  px              2.5       0.4       0.0       0.1       0.0       0.1
 1 C  py              0.0       0.0       0.9       0.0       4.0       0.0
 1 C  dz2             0.0       0.4       0.0       0.3       0.0       0.1
 1 C  dxz             0.2       0.1       0.0       0.0       0.0       0.0
 1 C  dx2y2           0.0       0.3       0.0       0.1       0.0       0.2
 1 C  dxy             0.0       0.0       0.0       0.0       0.2       0.0
 2 C  s               1.7       1.5       1.4       0.3       8.6       0.2
 2 C  pz              2.0       4.6       4.7       8.4       0.1       1.8
 2 C  px              0.3       0.9       0.9       0.6       1.2       0.2
 2 C  py              2.2       1.3       3.8       0.1       1.8       0.0
 2 C  dz2             0.0       0.2       0.1       0.0       1.1       0.0
 2 C  dyz             0.1       0.0       0.0       0.1       0.0       0.0
 2 C  dx2y2           0.0       0.3       0.1       0.2       0.0       0.1
 2 C  dxy             0.1       0.0       0.0       0.0       1.1       0.0
 3 C  s               4.8       1.3       0.5       0.7       7.5       0.1
[...]

                    162       163       164       165       166       167   
                   3.58406   3.60144   3.63694   4.08851  21.32728  21.83781
                   0.00000   0.00000   0.00000   0.00000   0.00000   0.00000
                  --------  --------  --------  --------  --------  --------
 0 C  s               0.3       0.0       0.0       0.1       1.1      30.1
 0 C  pz              2.8       0.0       0.0       0.0       0.0       0.0
 0 C  px              2.0       0.0       0.0       0.4       0.0       0.0
 0 C  py              0.0       2.4       1.2       0.0       0.0       0.0
 0 C  dz2             1.0       0.0       0.0       0.0       0.0       0.0
 0 C  dxz             2.1       0.0       0.0       0.0       0.0       0.0
 0 C  dyz             0.0       2.7       1.0       0.0       0.0       0.0
 0 C  dx2y2           7.5       0.0       0.0       1.0       0.0       0.0
 0 C  dxy             0.0       0.3       0.4       0.0       0.0       0.0
 1 C  s               0.3       0.0       0.0       0.4      21.4      26.3
 1 C  px              1.7       0.0       0.0       0.5       0.0       0.0
 1 C  py              0.0       4.9       0.6       0.0       0.0       0.0
 1 C  dx2y2           6.7       0.0       0.0       5.1       0.0       0.0
 1 C  dxy             0.0      10.8       0.1       0.0       0.0       0.0
 2 C  s               0.1       0.0       0.7       0.2      17.0       1.8
 2 C  px              0.2       4.1       0.6       0.4       0.0       0.0
 2 C  py              1.4       1.2       1.8       0.9       0.0       0.0
 2 C  dz2             0.0       0.0       0.8       0.1       0.0       0.0
 2 C  dx2y2           1.8       7.0       0.6       2.2       0.0       0.0
 2 C  dxy             2.6       2.6       6.6       6.3       0.0       0.0
 3 C  s               1.0       0.0       0.8       0.2      14.7       9.3
 3 C  px              0.0       3.3       0.6       0.4       0.0       0.0
 3 C  py              0.6       1.0       1.5       1.2       0.0       0.0
 3 C  dz2             0.7       0.0       0.8       0.3       0.0       0.0
 3 C  dx2y2           0.3       7.0       0.8       2.9       0.0       0.0
 3 C  dxy             0.6       2.3       6.1       7.4       0.0       0.0
 4 C  s               1.5       0.0       0.0       0.4      14.0      20.9
 4 C  px              2.0       0.0       0.0       1.8       0.0       0.0
 4 C  py              0.0       4.2       0.4       0.0       0.0       0.0
 4 C  dz2             1.5       0.0       0.0       0.3       0.0       0.0
 4 C  dx2y2           5.1       0.0       0.0      11.3       0.0       0.0
 4 C  dxy             0.0       9.1       0.0       0.0       0.0       0.0
 5 C  s               0.9       0.0       0.8       0.2      14.7       9.3
 5 C  px              0.0       3.3       0.6       0.4       0.0       0.0
 5 C  py              0.6       1.0       1.5       1.2       0.0       0.0
 5 C  dz2             0.7       0.0       0.8       0.3       0.0       0.0
 5 C  dx2y2           0.2       7.0       0.8       2.9       0.0       0.0
 5 C  dxy             0.6       2.3       6.1       7.4       0.0       0.0
 6 C  s               0.1       0.1       0.7       0.2      17.0       1.8
 6 C  px              0.2       4.1       0.6       0.4       0.0       0.0
 6 C  py              1.4       1.2       1.8       0.9       0.0       0.0
 6 C  dz2             0.0       0.0       0.8       0.1       0.0       0.0
 6 C  dx2y2           1.8       7.0       0.6       2.2       0.0       0.0
 6 C  dxy             2.6       2.7       6.6       6.3       0.0       0.0
 7 H  s               1.4       1.1       0.5       0.1       0.0       0.0
 7 H  pz              0.6       0.5       0.4       0.0       0.0       0.0
 7 H  px              0.4       1.1       0.2       0.0       0.0       0.0
 7 H  py              2.9       1.3       0.6       0.0       0.0       0.0
 8 H  s               1.4       0.0       0.0       0.0       0.0       0.0
 8 H  pz              2.1       0.0       0.0       0.0       0.0       0.0
 8 H  px              0.6       0.0       0.0       0.0       0.0       0.0
 9 H  s               1.4       1.1       0.5       0.1       0.0       0.0
 9 H  pz              0.6       0.5       0.4       0.0       0.0       0.0
 9 H  px              0.4       1.1       0.2       0.0       0.0       0.0
 9 H  py              2.8       1.3       0.6       0.0       0.0       0.0
10 H  s               1.4       0.0       3.2       2.0       0.0       0.0
10 H  px              1.9       0.1       1.5       0.9       0.0       0.0
10 H  py              2.7       0.0       7.8       2.8       0.0       0.0
11 H  s               0.8       0.0       3.1       2.5       0.0       0.0
11 H  px              1.2       0.1       1.5       1.2       0.0       0.0
11 H  py              1.6       0.0       7.5       3.3       0.0       0.0
12 H  s               3.1       0.0       0.0       2.8       0.0       0.0
12 H  px             10.1       0.0       0.0       5.1       0.0       0.0
12 H  py              0.0       0.1       0.2       0.0       0.0       0.0
13 H  s               0.7       0.0       3.1       2.5       0.0       0.0
13 H  px              1.2       0.1       1.5       1.2       0.0       0.0
13 H  py              1.5       0.0       7.6       3.3       0.0       0.0
14 H  s               1.5       0.0       3.2       2.0       0.0       0.0
14 H  px              2.0       0.1       1.5       0.9       0.0       0.0
14 H  py              2.7       0.0       7.8       2.8       0.0       0.0

                    168       169       170       171       172   
                  21.95337  22.02842  22.17545  22.18145  22.33813
                   0.00000   0.00000   0.00000   0.00000   0.00000
                  --------  --------  --------  --------  --------
 0 C  s               0.0      65.1       3.3       0.0       0.0
 1 C  s               0.0       7.5      30.5       0.0      14.1
 1 C  px              0.0       0.1       0.0       0.0       0.0
 1 C  py              0.1       0.0       0.0       0.1       0.0
 2 C  s              25.6       5.0       9.2      24.1      16.9
 3 C  s              24.1       1.2       7.0      25.7      17.6
 4 C  s               0.0      14.6      33.5       0.0      16.6
 5 C  s              24.1       1.2       7.2      25.5      17.6
 6 C  s              25.6       5.0       9.0      24.3      16.9


                      *****************************
                      * MAYER POPULATION ANALYSIS *
                      *****************************

  NA   - Mulliken gross atomic population
  ZA   - Total nuclear charge
  QA   - Mulliken gross atomic charge
  VA   - Mayer's total valence
  BVA  - Mayer's bonded valence
  FA   - Mayer's free valence

  ATOM       NA         ZA         QA         VA         BVA        FA
  0 C      6.5173     6.0000    -0.5173     3.7921     3.7921    -0.0000
  1 C      5.8019     6.0000     0.1981     3.4716     3.4716     0.0000
  2 C      6.2107     6.0000    -0.2107     3.9137     3.9137     0.0000
  3 C      6.1516     6.0000    -0.1516     3.8689     3.8689     0.0000
  4 C      6.1549     6.0000    -0.1549     3.8461     3.8461     0.0000
  5 C      6.1516     6.0000    -0.1516     3.8688     3.8688     0.0000
  6 C      6.2105     6.0000    -0.2105     3.9135     3.9135    -0.0000
  7 H      0.8493     1.0000     0.1507     0.9640     0.9640    -0.0000
  8 H      0.8316     1.0000     0.1684     0.9547     0.9547    -0.0000
  9 H      0.8493     1.0000     0.1507     0.9639     0.9639    -0.0000
 10 H      0.8538     1.0000     0.1462     0.9694     0.9694     0.0000
 11 H      0.8550     1.0000     0.1450     0.9685     0.9685    -0.0000
 12 H      0.8539     1.0000     0.1461     0.9683     0.9683    -0.0000
 13 H      0.8550     1.0000     0.1450     0.9685     0.9685     0.0000
 14 H      0.8538     1.0000     0.1462     0.9694     0.9694    -0.0000

  Mayer bond orders larger than 0.100000
B(  0-C ,  1-C ) :   0.7962 B(  0-C ,  7-H ) :   0.9904 B(  0-C ,  8-H ) :   0.9668 
B(  0-C ,  9-H ) :   0.9903 B(  1-C ,  2-C ) :   1.4093 B(  1-C ,  6-C ) :   1.4090 
B(  2-C ,  3-C ) :   1.4544 B(  2-C , 10-H ) :   0.9447 B(  3-C ,  4-C ) :   1.4308 
B(  3-C , 11-H ) :   0.9482 B(  4-C ,  5-C ) :   1.4305 B(  4-C , 12-H ) :   0.9481 
B(  5-C ,  6-C ) :   1.4546 B(  5-C , 13-H ) :   0.9483 B(  6-C , 14-H ) :   0.9447 


-------
TIMINGS
-------

Total SCF time: 0 days 0 hours 0 min 5 sec 

Total time                  ....       5.410 sec
Sum of individual times     ....       5.402 sec  ( 99.9%)

SCF preparation             ....       0.029 sec  (  0.5%)
Fock matrix formation       ....       5.256 sec  ( 97.2%)
  Startup                   ....       0.001 sec  (  0.0% of F)
  Split-RI-J                ....       1.003 sec  ( 19.1% of F)
  XC integration            ....       4.241 sec  ( 80.7% of F)
    Basis function eval.    ....       0.777 sec  ( 18.3% of XC)
    Density eval.           ....       1.351 sec  ( 31.9% of XC)
    XC-Functional eval.     ....       0.534 sec  ( 12.6% of XC)
    XC-Potential eval.      ....       1.507 sec  ( 35.5% of XC)
Diagonalization             ....       0.000 sec  (  0.0%)
Density matrix formation    ....       0.013 sec  (  0.2%)
Total Energy calculation    ....       0.001 sec  (  0.0%)
Population analysis         ....       0.055 sec  (  1.0%)
Orbital Transformation      ....       0.012 sec  (  0.2%)
Orbital Orthonormalization  ....       0.000 sec  (  0.0%)
DIIS solution               ....       0.032 sec  (  0.6%)
  MO trafo                  ....       0.000 sec  (  0.0 % of DIIS)
  Orb grad                  ....       0.000 sec  (  0.0 % of DIIS)
  Energy W gradient         ....       0.000 sec  (  0.0 % of DIIS)
  DIIS error                ....       0.003 sec  (  8.8 % of DIIS)
  DIIS work                 ....       0.020 sec  ( 62.2 % of DIIS)
  Form Q                    ....       0.000 sec  (  0.0 % of DIIS)
  Form QpQm                 ....       0.000 sec  (  0.0 % of DIIS)
  Exp/Cayley                ....       0.000 sec  (  0.0 % of DIIS)
  Orb update                ....       0.000 sec  (  0.0 % of DIIS)
  Wake-sleep                ....       0.000 sec  (  0.9 % of DIIS)
SOSCF solution              ....       0.005 sec  (  0.1%)
  MO trafo                  ....       0.004 sec  ( 76.8 % of SOSCF)
  Orb grad                  ....       0.000 sec  (  0.6 % of SOSCF)
  Rot update                ....       0.000 sec  (  0.3 % of SOSCF)
  Step                      ....       0.001 sec  ( 21.9 % of SOSCF)
Finished LeanSCF after   5.4 sec

Maximum memory used throughout the entire LEANSCF-calculation: 19.0 MB


-------------------------------------------------------------------------------
                          DFT DISPERSION CORRECTION                            
                                                                               
                                DFTD4 V3.4.0                                   
-------------------------------------------------------------------------------
The R2SCAN3C composite method is recognized
Using three-body term ABC
Active option DFTDOPT                   ...         5   

-------------------------   ----------------
Dispersion correction           -0.004441729
-------------------------   ----------------

------------------   -----------------
gCP correction             0.004149077
------------------   -----------------

-------------------------   --------------------
FINAL SINGLE POINT ENERGY      -271.480837676292
-------------------------   --------------------


------------------------------------------------------------------------------
                              ORCA PROPERTY CALCULATIONS
------------------------------------------------------------------------------

GBWName                                 ... sp.gbw
Number of atoms                         ...     15
Number of basis functions               ...    173
Max core memory                         ...   1024 MB

Electric properties:
Dipole moment                           ... YES
Quadrupole moment                       ...  NO
Static polarizability (Dipole/Dipole)   ...  NO
Static polarizability (Dipole/Quad.)    ...  NO
Static polarizability (Quad./Quad.)     ...  NO
Static polarizability (Velocity)        ...  NO

Atomic electric properties:
Dipole moment                           ...  NO
Quadrupole moment                       ...  NO
Static polarizability                   ...  NO

Choice of electric origin               ... Center of mass
Position of electric origin             ...    -0.000008     0.000000     0.000000

General magnetic properties:
Magnetizability                         ...  NO

EPR properties:
g-Tensor (aka g-matrix)                 ...  NO
Zero-Field splitting spin-orbit         ...  NO
Zero-field splitting spin-spin          ...  NO
Hyperfine couplings                     ...  NO (   0 nuclei)
Quadrupole couplings                    ...  NO (   0 nuclei)
Contact density                         ...  NO (   0 nuclei)

NMR properties:
Chemical shifts                         ...  NO (   0 nuclei)
Spin-rotation constants                 ...  NO (   0 nuclei)
Spin-spin couplings                     ...  NO (   0 nuclei,    0 pairs)

Choice of magnetic origin               ... GIAO
Position of magnetic origin             ...     0.000000     0.000000     0.000000

Properties with geometric perturbations:
SCF Hessian                             ...  NO
IR spectrum                             ...  NO
VCD spectrum                            ...  NO
X-ray spectroscopy properties:
SCF XES/XAS/RIXS spectra                ...  NO


-------------
DIPOLE MOMENT
-------------

Method             : SCF
Type of density    : Electron Density
Multiplicity       :   1
Irrep              :   0
Energy             :  -271.4805450239158517 Eh
Relativity type    : 
Basis              : AO
                                X                 Y                 Z
Electronic contribution:      3.305266119      -0.000042846      -0.033622255
Nuclear contribution   :     -3.471000506       0.000201711       0.053835470
                        -----------------------------------------
Total Dipole Moment    :     -0.165734388       0.000158865       0.020213215
                        -----------------------------------------
Magnitude (a.u.)       :      0.166962530
Magnitude (Debye)      :      0.424385026



--------------------
Rotational spectrum 
--------------------
 
Rotational constants in cm-1:             0.186988             0.085333             0.059237 
Rotational constants in MHz :          5605.751843          2558.222983          1775.890263 

Dipole components along the rotational axes: 
x,y,z [a.u.] :    -0.165734    -0.000159     0.020213 
x,y,z [Debye]:    -0.421263    -0.000404     0.051378 

 

Dipole moment calculation done in   0.0 sec 

Maximum memory used throughout the entire PROP-calculation: 10.9 MB

--------------------------------
SUGGESTED CITATIONS FOR THIS RUN
--------------------------------

Below you find a list of papers that are relevant to this ORCA run
We neither can nor want to force you to cite these papers, but we appreciate if you do
You receive ORCA, which is the product of decades of hard work by many enthusiastic individuals, for free
The only thing we kindly ask in return is that you cite our papers,
We deeply appreciate it, if you show your appreciation for ORCA by not just citing the generic ORCA reference.

Please note that relegating all ORCA citations to the supporting information does *not* help us.
SI sections are not indexed - citations you put there will not count into any citation statistics
But we need these citations in order to attract the funding resources that allow us to do what we are doing

Therefore, if you are a happy ORCA user, please consider citing a few of the papers listed below in the main body of your paper

In addition to the list printed below, the program has created the file sp.bibtex that contains the list in bibtex format
You can import this file easily into all common literature databanks and citation aid programs


List of essential papers. We consider these as the minimum necessary citations

  1. Neese,F.
     Software update: the ORCA program system, version 5.0
     WIRES Comput. Molec. Sci., 2022 12(1)e1606
     doi.org/10.1002/wcms.1606
  2. Grimme,S.; Hansen,A.; Ehlert,S.; Mewes,J.
     r2SCAN-3c: A 'Swiss army knife' composite electronic-structure method
     J. Chem. Phys., 2021 154 064103
     doi.org/10.1063/5.0040021

List of papers to cite with high priority. The work reported in these papers was absolutely
necessary for this run to complete.
Our perspective: the developers of density functionals and basis sets usually get cited in chemistry papers
Good! But without the algorithms to do something with them, the functionals or basis sets would not do anything.
Hence, in our opinion, the algorithm design and method developments papers are equally worthy of getting cited

  1. Neese,F.
     An improvement of the resolution of the identity approximation for the formation of the Coulomb matrix
     J. Comp. Chem., 2003 24(14)1740-1747
     doi.org/10.1002/jcc.10318
  2. Neese,F.
     The SHARK Integral Generation and Digestion System
     J. Comp. Chem., 2022  1-16
     doi.org/10.1002/jcc.26942
  3. Lehtola,S.; Steigemann,C.; Oliveira,M.; Marques,M.
     Recent developments in Libxc - A comprehensive library of functionals for density functional theory
     Software X, 2018 7 
     doi.org/10.1016/j.softx.2017.11.002
  4. Caldeweyher,E.; Bannwarth,C.; Grimme,S.
     Extension of the D3 dispersion coefficient model
     J. Chem. Phys., 2017 147 034112
     doi.org/10.1063/1.4993215
  5. Caldeweyher,E.; Ehlert,S.; Hansen,A.; Neugebauer,H.; Spicher,S.; Bannwarth,C.; Grimme,S.
     A generally applicable atomic-charge dependent London dispersion correction
     J. Chem. Phys., 2019 150 154122
     doi.org/10.1063/1.5090222
  6. Caldeweyher,E.; Mewes,J.; Ehlert,S.; Grimme,S.
     Extension and evaluation of the D4 London-dispersion model for periodic systems
     Phys. Chem. Chem. Phys., 2020 22(16)8499-8512
     doi.org/10.1039/D0CP00502A
  7. Wittmann,L.; Gordiy,I.; Friede,M.; Helmich-Paris,B.; Grimme,S.; Hansen,A.; Bursch,M.
     Extension of the D3 and D4 London Dispersion Corrections to the full Actinides Series
     Phys. Chem. Chem. Phys., 2024 26(32)21379-21394
     doi.org/https://doi.org/10.1039/D4CP01514B 

List of suggested additional citations. These are papers that are important in the 'surrounding' of 
of this run, or papers that preceded the highly important papers. If you like your results we are grateful for a citation.

  1. Neese,F.
     The ORCA program system
     WIRES Comput. Molec. Sci., 2012 2(1)73-78
     doi.org/10.1002/wcms.81
  2. Neese,F.
     Software update: the ORCA program system, version 4.0
     WIRES Comput. Molec. Sci., 2018 8(1)1-6
     doi.org/10.1002/wcms.1327
  3. Neese,F.; Wennmohs,F.; Becker,U.; Riplinger,C.
     The ORCA quantum chemistry program package
     J. Chem. Phys., 2020 152 Art. No. L224108
     doi.org/10.1063/5.0004608

List of optional additional citations

  1. Neese,F.
     Approximate second-order SCF convergence for spin unrestricted wavefunctions
     Chem. Phys. Lett., 2000 325(1-3)93-98
     doi.org/10.1016/s0009-2614(00)00662-x

Timings for individual modules:

Sum of individual times          ...        5.914 sec (=   0.099 min)
Startup calculation              ...        0.405 sec (=   0.007 min)   6.9 %
SCF iterations                   ...        5.473 sec (=   0.091 min)  92.5 %
Property calculations            ...        0.036 sec (=   0.001 min)   0.6 %
                             ****ORCA TERMINATED NORMALLY****
TOTAL RUN TIME: 0 days 0 hours 0 minutes 5 seconds 975 msec
