 Entering Gaussian System
 *********************************************
 Gaussian 98:
 frequency output generated by the xtb code
 *********************************************
                         Standard orientation:
 --------------------------------------------------------------------
  Center     Atomic     Atomic              Coordinates (Angstroms)
  Number     Number      Type              X           Y           Z
 --------------------------------------------------------------------
    1          6             0        0.468488    0.725992   -0.000030
    2          6             0        0.394513   -0.768701    0.000030
    3          6             0       -0.862940    0.042707   -0.000020
    4          1             0        0.789056    1.222732   -0.903130
    5          1             0        0.789031    1.222805    0.903038
    6          1             0        0.664457   -1.294740   -0.903030
    7          1             0        0.664434   -1.294667    0.903138
    8          1             0       -1.453426    0.071889   -0.903113
    9          1             0       -1.453450    0.071963    0.903055
 --------------------------------------------------------------------
     1 basis functions        1 primitive gaussians
     1 alpha electrons        1 beta electrons

 Harmonic frequencies (cm**-1), IR intensities (km*mol⁻¹),
 Raman scattering activities (A**4/amu), Raman depolarization ratios,
 reduced masses (AMU), force constants (mDyne/A) and normal coordinates:
                      1                      2                      3
                        a                      a                      a 
 Frequencies --   770.0984               770.1373               851.5731
 Red. masses --     1.0205                 1.0205                 1.0474
 Frc consts  --     0.0000                 0.0000                 0.0000
 IR Inten    --     0.0000                 0.0000                 0.5946
 Raman Activ --     0.0000                 0.0000                 0.0000
 Depolar     --     0.0000                 0.0000                 0.0000
 Atom AN      X      Y      Z        X      Y      Z        X      Y      Z
   1   6     0.00  -0.00  -0.04     0.00  -0.00  -0.09    -0.00   0.00   0.12
   2   6     0.00  -0.00  -0.06    -0.00   0.00   0.08    -0.00   0.00   0.12
   3   6    -0.00   0.00   0.09    -0.00   0.00   0.01    -0.00   0.00   0.12
   4   1    -0.28   0.33   0.07     0.30   0.14   0.17    -0.19  -0.29  -0.20
   5   1     0.28  -0.33   0.07    -0.30  -0.14   0.17     0.19   0.29  -0.20
   6   1    -0.24  -0.33   0.11    -0.35   0.10  -0.15    -0.16   0.31  -0.20
   7   1     0.24   0.33   0.11     0.35  -0.10  -0.15     0.16  -0.31  -0.20
   8   1     0.31   0.04  -0.18     0.01  -0.45  -0.02     0.34  -0.02  -0.20
   9   1    -0.31  -0.04  -0.18    -0.01   0.45  -0.02    -0.34   0.02  -0.20
                      4                      5                      6
                        a                      a                      a 
 Frequencies --   979.3581               979.3800              1074.8502
 Red. masses --     2.9446                 2.9433                 1.4307
 Frc consts  --     0.0000                 0.0000                 0.0000
 IR Inten    --     5.2781                 5.2394                 0.0000
 Raman Activ --     0.0000                 0.0000                 0.0000
 Depolar     --     0.0000                 0.0000                 0.0000
 Atom AN      X      Y      Z        X      Y      Z        X      Y      Z
   1   6    -0.42  -0.29   0.00    -0.21   0.42  -0.00     0.28  -0.18   0.00
   2   6     0.42  -0.28   0.00    -0.20  -0.43   0.00    -0.29  -0.15   0.00
   3   6    -0.01   0.45  -0.00     0.53  -0.00   0.00     0.02   0.33  -0.00
   4   1    -0.17  -0.04   0.01    -0.17   0.18  -0.00    -0.28   0.18  -0.00
   5   1    -0.17  -0.04  -0.01    -0.17   0.18   0.00    -0.28   0.18  -0.00
   6   1     0.19  -0.03  -0.00    -0.17  -0.17  -0.00     0.30   0.15  -0.00
   7   1     0.19  -0.03   0.00    -0.17  -0.17   0.00     0.30   0.15   0.00
   8   1     0.01   0.27  -0.00     0.14   0.01   0.01    -0.02  -0.34   0.00
   9   1     0.01   0.27   0.00     0.14   0.01  -0.01    -0.02  -0.34   0.00
                      7                      8                      9
                        a                      a                      a 
 Frequencies --  1078.4615              1078.5216              1118.5397
 Red. masses --     1.3761                 1.3758                 1.0079
 Frc consts  --     0.0000                 0.0000                 0.0000
 IR Inten    --     1.0449                 1.0631                 0.0000
 Raman Activ --     0.0000                 0.0000                 0.0000
 Depolar     --     0.0000                 0.0000                 0.0000
 Atom AN      X      Y      Z        X      Y      Z        X      Y      Z
   1   6     0.30  -0.25   0.00     0.20   0.00   0.00    -0.00   0.00  -0.00
   2   6     0.27   0.22  -0.00    -0.27  -0.03  -0.00    -0.00  -0.00   0.00
   3   6    -0.12  -0.04   0.00    -0.01  -0.42   0.00     0.00  -0.00  -0.00
   4   1    -0.38   0.23  -0.00    -0.14   0.14   0.01    -0.34   0.22  -0.00
   5   1    -0.38   0.23   0.00    -0.14   0.14  -0.01     0.34  -0.22   0.00
   6   1    -0.36  -0.15  -0.01     0.24   0.17  -0.01     0.36   0.19  -0.00
   7   1    -0.36  -0.15   0.01     0.24   0.17   0.01    -0.36  -0.19  -0.00
   8   1    -0.04   0.06   0.01     0.03   0.48  -0.00    -0.02  -0.41   0.00
   9   1    -0.04   0.06  -0.01     0.03   0.48   0.00     0.02   0.41  -0.00
                     10                     11                     12
                        a                      a                      a 
 Frequencies --  1167.3017              1167.3103              1303.0306
 Red. masses --     1.4768                 1.4768                 2.0063
 Frc consts  --     0.0000                 0.0000                 0.0000
 IR Inten    --     0.0000                 0.0000                 0.0000
 Raman Activ --     0.0000                 0.0000                 0.0000
 Depolar     --     0.0000                 0.0000                 0.0000
 Atom AN      X      Y      Z        X      Y      Z        X      Y      Z
   1   6     0.00  -0.00  -0.46    -0.00   0.00   0.15    -0.23  -0.36   0.00
   2   6    -0.00   0.00   0.36    -0.00   0.00   0.32    -0.19   0.38  -0.00
   3   6    -0.00   0.00   0.09     0.00  -0.00  -0.47     0.42  -0.02   0.00
   4   1     0.08   0.32   0.09    -0.31   0.07  -0.03    -0.14  -0.22  -0.08
   5   1    -0.08  -0.32   0.09     0.31  -0.07  -0.03    -0.14  -0.22   0.08
   6   1     0.07   0.32  -0.07    -0.31   0.09  -0.06    -0.12   0.24  -0.08
   7   1    -0.07  -0.32  -0.07     0.31  -0.09  -0.06    -0.12   0.24   0.08
   8   1     0.08   0.31  -0.02    -0.32   0.08   0.09     0.26  -0.01  -0.08
   9   1    -0.08  -0.31  -0.02     0.32  -0.08   0.09     0.26  -0.01   0.08
                     13                     14                     15
                        a                      a                      a 
 Frequencies --  1445.1966              1445.1980              1503.0225
 Red. masses --     1.1024                 1.1025                 1.6154
 Frc consts  --     0.0000                 0.0000                 0.0000
 IR Inten    --     0.1712                 0.1838                 0.0000
 Raman Activ --     0.0000                 0.0000                 0.0000
 Depolar     --     0.0000                 0.0000                 0.0000
 Atom AN      X      Y      Z        X      Y      Z        X      Y      Z
   1   6    -0.07  -0.11   0.00     0.12   0.18  -0.00     0.20   0.31  -0.00
   2   6    -0.06   0.11  -0.00    -0.10   0.20  -0.00     0.17  -0.33   0.00
   3   6    -0.25   0.01  -0.00    -0.01   0.00   0.00    -0.37   0.02  -0.00
   4   1     0.11   0.21   0.16    -0.22  -0.32  -0.27    -0.13  -0.20  -0.21
   5   1     0.11   0.21  -0.16    -0.22  -0.32   0.27    -0.13  -0.20   0.21
   6   1     0.08  -0.20   0.15     0.19  -0.35   0.27    -0.11   0.21  -0.21
   7   1     0.08  -0.20  -0.15     0.19  -0.35  -0.27    -0.11   0.21   0.21
   8   1     0.45  -0.02  -0.31     0.01   0.02  -0.01     0.24  -0.01  -0.21
   9   1     0.45  -0.02   0.31     0.01   0.02   0.01     0.24  -0.01   0.21
                     16                     17                     18
                        a                      a                      a 
 Frequencies --  3089.4914              3090.4590              3090.4668
 Red. masses --     1.0526                 1.1066                 1.1066
 Frc consts  --     0.0000                 0.0000                 0.0000
 IR Inten    --     0.0017                 0.0000                 0.0000
 Raman Activ --     0.0000                 0.0000                 0.0000
 Depolar     --     0.0000                 0.0000                 0.0000
 Atom AN      X      Y      Z        X      Y      Z        X      Y      Z
   1   6     0.07   0.10   0.00     0.00   0.00   0.14     0.00   0.00  -0.22
   2   6     0.06  -0.11  -0.00    -0.00   0.00   0.12    -0.00   0.00   0.23
   3   6    -0.13   0.01   0.00     0.00  -0.00  -0.25    -0.00   0.00  -0.01
   4   1    -0.11  -0.17   0.34     0.09   0.14  -0.24    -0.14  -0.22   0.38
   5   1    -0.11  -0.17  -0.34    -0.09  -0.14  -0.24     0.14   0.22   0.38
   6   1    -0.09   0.18   0.34     0.07  -0.13  -0.21     0.12  -0.24  -0.40
   7   1    -0.09   0.18  -0.34    -0.07   0.13  -0.21    -0.12   0.24  -0.40
   8   1     0.20  -0.01   0.35     0.31  -0.02   0.45     0.01  -0.00   0.02
   9   1     0.20  -0.01  -0.35    -0.31   0.02   0.45    -0.01   0.00   0.02
                     19                     20                     21
                        a                      a                      a 
 Frequencies --  3090.9233              3090.9405              3117.9703
 Red. masses --     1.0466                 1.0466                 1.1125
 Frc consts  --     0.0000                 0.0000                 0.0000
 IR Inten    --    44.2027                44.3726               106.2191
 Raman Activ --     0.0000                 0.0000                 0.0000
 Depolar     --     0.0000                 0.0000                 0.0000
 Atom AN      X      Y      Z        X      Y      Z        X      Y      Z
   1   6    -0.04  -0.06   0.00    -0.08  -0.13   0.00     0.00  -0.00  -0.18
   2   6    -0.05   0.08  -0.00     0.06  -0.12   0.00     0.00  -0.00  -0.18
   3   6    -0.16   0.01  -0.00    -0.01  -0.00  -0.00     0.00  -0.00  -0.18
   4   1     0.07   0.11  -0.21     0.14   0.22  -0.44    -0.12  -0.18   0.32
   5   1     0.07   0.11   0.21     0.14   0.22   0.44     0.12   0.18   0.32
   6   1     0.08  -0.15  -0.28    -0.11   0.21   0.40    -0.10   0.19   0.32
   7   1     0.08  -0.15   0.28    -0.11   0.21  -0.40     0.10  -0.19   0.32
   8   1     0.29  -0.01   0.48     0.02  -0.00   0.04     0.22  -0.01   0.32
   9   1     0.29  -0.01  -0.48     0.02  -0.00  -0.04    -0.22   0.01   0.32
