      -----------------------------------------------------------      
     |                   =====================                   |     
     |                           x T B                           |     
     |                   =====================                   |     
     |                         S. Grimme                         |     
     |          Mulliken Center for Theoretical Chemistry        |     
     |                    University of Bonn                     |     
      -----------------------------------------------------------      

   * xtb version 6.7.1 (41059b4) compiled by 'michael@archlinux' on 2025-03-24

   xtb is free software: you can redistribute it and/or modify it under
   the terms of the GNU Lesser General Public License as published by
   the Free Software Foundation, either version 3 of the License, or
   (at your option) any later version.
   
   xtb is distributed in the hope that it will be useful,
   but WITHOUT ANY WARRANTY; without even the implied warranty of
   MERCHANTABILITY or FITNESS FOR A PARTICULAR PURPOSE.  See the
   GNU Lesser General Public License for more details.
   
   Cite this work as:
   * C. Bannwarth, E. Caldeweyher, S. Ehlert, A. Hansen, P. Pracht,
     J. Seibert, S. Spicher, S. Grimme, WIREs Comput. Mol. Sci., 2020, 11,
     e01493. DOI: 10.1002/wcms.1493
   
   for GFN2-xTB:
   * C. Bannwarth, S. Ehlert and S. Grimme., J. Chem. Theory Comput., 2019,
     15, 1652-1671. DOI: 10.1021/acs.jctc.8b01176
   for GFN1-xTB:
   * S. Grimme, C. Bannwarth, P. Shushkov, J. Chem. Theory Comput., 2017,
     13, 1989-2009. DOI: 10.1021/acs.jctc.7b00118
   for GFN0-xTB:
   * P. Pracht, E. Caldeweyher, S. Ehlert, S. Grimme, ChemRxiv, 2019, preprint.
     DOI: 10.26434/chemrxiv.8326202.v1
   for GFN-FF:
   * S. Spicher and S. Grimme, Angew. Chem. Int. Ed., 2020, 59, 15665-15673.
     DOI: 10.1002/anie.202004239
   
   for ALPB and GBSA implicit solvation:
   * S. Ehlert, M. Stahn, S. Spicher, S. Grimme, J. Chem. Theory Comput.,
     2021, 17, 4250-4261. DOI: 10.1021/acs.jctc.1c00471
   
   for ddCOSMO and CPCM-X implicit solvation:
   * M. Stahn, S. Ehlert, S. Grimme, J. Phys. Chem. A,
     2023, XX, XXXX-XXXX. DOI: 10.1021/acs.jpca.3c04382
   
   for DFT-D4:
   * E. Caldeweyher, C. Bannwarth and S. Grimme, J. Chem. Phys., 2017,
     147, 034112. DOI: 10.1063/1.4993215
   * E. Caldeweyher, S. Ehlert, A. Hansen, H. Neugebauer, S. Spicher,
     C. Bannwarth and S. Grimme, J. Chem. Phys., 2019, 150, 154122.
     DOI: 10.1063/1.5090222
   * E. Caldeweyher, J.-M. Mewes, S. Ehlert and S. Grimme, Phys. Chem. Chem. Phys.
     2020, 22, 8499-8512. DOI: 10.1039/D0CP00502A
   
   for sTDA-xTB:
   * S. Grimme and C. Bannwarth, J. Chem. Phys., 2016, 145, 054103.
     DOI: 10.1063/1.4959605
   
   in the mass-spec context:
   * V. Asgeirsson, C. Bauer and S. Grimme, Chem. Sci., 2017, 8, 4879.
     DOI: 10.1039/c7sc00601b
   * J. Koopman and S. Grimme, ACS Omega 2019, 4, 12, 15120-15133.
     DOI: 10.1021/acsomega.9b02011
   
   for metadynamics refer to:
   * S. Grimme, J. Chem. Theory Comput., 2019, 155, 2847-2862
     DOI: 10.1021/acs.jctc.9b00143
   
   for SPH calculations refer to:
   * S. Spicher and S. Grimme, J. Chem. Theory Comput., 2021, 17, 1701-1714
     DOI: 10.1021/acs.jctc.0c01306
   
   for ONIOM refer to:
   * C. Plett, A. Katbashev, S. Ehlert, S. Grimme, M. Bursch,
     Phys. Chem. Chem. Phys., 2023, 25, 17860-17868. DOI: 10.1039/D3CP02178E
   
   for DIPRO refer to:
   * J. Kohn, N. Gildemeister, S. Grimme, D. Fazzi, A. Hansen,
     J. Chem. Phys., 2023, just accepted.
   
   for PTB refer to:
   * S. Grimme, M. Mueller, A. Hansen, J. Chem. Phys., 2023, 158, 124111.
     DOI: 10.1063/5.0137838
   
   with help from (in alphabetical order)
   P. Atkinson, C. Bannwarth, F. Bohle, G. Brandenburg, E. Caldeweyher
   M. Checinski, S. Dohm, S. Ehlert, S. Ehrlich, I. Gerasimov, C. Hölzer
   A. Katbashev, J. Kohn, J. Koopman, C. Lavigne, S. Lehtola, F. März, M. Müller,
   F. Musil, H. Neugebauer, J. Pisarek, C. Plett, P. Pracht, F. Pultar,
   J. Seibert, P. Shushkov, S. Spicher, M. Stahn, M. Steiner, T. Strunk,
   J. Stückrath, T. Rose, and J. Unsleber
   
 * started run on 2025/04/09 at 05:41:51.490     
   ID    Z sym.   atoms
    1    6 C      1-3
    2    1 H      4-9

           -------------------------------------------------
          |                Calculation Setup                |
           -------------------------------------------------

          program call               : /usr/bin/xtb xtb_rrho.coord --gfn2 --ohess vtight --chrg 0 --enso --norestart -I rrho-xcontrol-inp --parallel 1
          coordinate file            : xtb_rrho.coord
          omp threads                :                     1


           -------------------------------------------------
          |                 G F N 2 - x T B                 |
           -------------------------------------------------

        Reference                      10.1021/acs.jctc.8b01176
      * Hamiltonian:
        H0-scaling (s, p, d)           1.850000    2.230000    2.230000
        zeta-weighting                 0.500000
      * Dispersion:
        s8                             2.700000
        a1                             0.520000
        a2                             5.000000
        s9                             5.000000
      * Repulsion:
        kExp                           1.500000    1.000000
        rExp                           1.000000
      * Coulomb:
        alpha                          2.000000
        third order                    shell-resolved
        anisotropic                    true
        a3                             3.000000
        a5                             4.000000
        cn-shift                       1.200000
        cn-exp                         4.000000
        max-rad                        5.000000


          ...................................................
          :                      SETUP                      :
          :.................................................:
          :  # basis functions                  18          :
          :  # atomic orbitals                  18          :
          :  # shells                           12          :
          :  # electrons                        18          :
          :  max. iterations                   250          :
          :  Hamiltonian                  GFN2-xTB          :
          :  restarted?                      false          :
          :  GBSA solvation                  false          :
          :  PC potential                    false          :
          :  electronic temp.          300.0000000     K    :
          :  accuracy                    1.0000000          :
          :  -> integral cutoff          0.2500000E+02      :
          :  -> integral neglect         0.1000000E-07      :
          :  -> SCF convergence          0.1000000E-05 Eh   :
          :  -> wf. convergence          0.1000000E-03 e    :
          :  Broyden damping             0.4000000          :
          :  net charge                          0          :
          :  unpaired electrons                  0          :
          ...................................................

 iter      E             dE          RMSdq      gap      omega  full diag
   1     -9.5804789 -0.958048E+01  0.275E+00   10.13       0.0  T
   2     -9.6001473 -0.196684E-01  0.162E+00   10.05       1.0  T
   3     -9.6004879 -0.340610E-03  0.738E-01   10.03       1.0  T
   4     -9.6005405 -0.526064E-04  0.725E-02   10.03       1.0  T
   5     -9.6005405  0.638909E-08  0.439E-03   10.03       7.6  T
   6     -9.6005406 -0.388234E-07  0.572E-04   10.03      58.3  T
   7     -9.6005406  0.513847E-10  0.126E-04   10.03     264.0  T

   *** convergence criteria satisfied after 7 iterations ***

         #    Occupation            Energy/Eh            Energy/eV
      -------------------------------------------------------------
         1        2.0000           -0.6355386             -17.2939
       ...           ...                  ...                  ...
         3        2.0000           -0.5607538             -15.2589
         4        2.0000           -0.5238925             -14.2558
         5        2.0000           -0.4980548             -13.5528
         6        2.0000           -0.4457327             -12.1290
         7        2.0000           -0.4457239             -12.1288
         8        2.0000           -0.4190510             -11.4030
         9        2.0000           -0.4190414             -11.4027 (HOMO)
        10                         -0.0505931              -1.3767 (LUMO)
        11                          0.1144667               3.1148
        12                          0.1210494               3.2939
        13                          0.1210909               3.2951
        14                          0.1725912               4.6964
       ...                                ...                  ...
        18                          0.3457518               9.4084
      -------------------------------------------------------------
                  HL-Gap            0.3684483 Eh           10.0260 eV
             Fermi-level           -0.2348173 Eh           -6.3897 eV

 SCC (total)                   0 d,  0 h,  0 min,  0.002 sec
 SCC setup                      ...        0 min,  0.000 sec (  2.946%)
 Dispersion                     ...        0 min,  0.000 sec (  1.452%)
 classical contributions        ...        0 min,  0.000 sec (  0.518%)
 integral evaluation            ...        0 min,  0.000 sec ( 12.828%)
 iterations                     ...        0 min,  0.001 sec ( 50.117%)
 molecular gradient             ...        0 min,  0.001 sec ( 28.732%)
 printout                       ...        0 min,  0.000 sec (  3.050%)

         :::::::::::::::::::::::::::::::::::::::::::::::::::::
         ::                     SUMMARY                     ::
         :::::::::::::::::::::::::::::::::::::::::::::::::::::
         :: total energy              -9.447917508618 Eh    ::
         :: gradient norm              0.012914102600 Eh/a0 ::
         :: HOMO-LUMO gap             10.025988057399 eV    ::
         ::.................................................::
         :: SCC energy                -9.600539984440 Eh    ::
         :: -> isotropic ES            0.001675714398 Eh    ::
         :: -> anisotropic ES          0.002924062877 Eh    ::
         :: -> anisotropic XC          0.007490133593 Eh    ::
         :: -> dispersion             -0.003001338805 Eh    ::
         :: repulsion energy           0.152622475822 Eh    ::
         :: add. restraining           0.000000000000 Eh    ::
         :: total charge               0.000000000000 e     ::
         :::::::::::::::::::::::::::::::::::::::::::::::::::::

      ----------------------------------------------------------- 
     |                   =====================                   |
     |                        A N C O P T                        |
     |                   =====================                   |
     |               Approximate Normal Coordinate               |
     |                Rational Function Optimizer                |
      ----------------------------------------------------------- 

          ...................................................
          :                      SETUP                      :
          :.................................................:
          :   optimization level         verytight          :
          :   max. optcycles                   200          :
          :   ANC micro-cycles                  20          :
          :   degrees of freedom                21          :
          :.................................................:
          :   RF solver                   davidson          :
          :   write xtbopt.log                true          :
          :   linear?                        false          :
          :   energy convergence         0.1000000E-06 Eh   :
          :   grad. convergence          0.2000000E-03 Eh/α :
          :   maximum RF displ.          1.0000000          :
          :   Hlow (freq-cutoff)         0.1000000E-01      :
          :   Hmax (freq-cutoff)         5.0000000          :
          :   S6 in model hess.         20.0000000          :
          ...................................................

generating ANC from exact Hessian ...
Using Lindh-Hessian (1995)
 Shifting diagonal of input Hessian by    0.0000000000000000     
 Lowest  eigenvalues of input Hessian
    0.000000    0.000000    0.000000    0.000000    0.000000    0.000000
    0.037154    0.037157    0.041825    0.041830    0.042543    0.062377
    0.105802    0.164148    0.164169    0.186295    0.186316    0.224699
 Highest eigenvalues
    1.065533    1.132529    1.132583    1.316915    1.317003    1.781565


........................................................................
.............................. CYCLE    1 ..............................
........................................................................

 iter      E             dE          RMSdq      gap      omega  full diag
   1     -9.6005406 -0.960054E+01  0.161E-05   10.03       0.0  T
   2     -9.6005406 -0.103384E-11  0.795E-06   10.03    4193.8  T
   3     -9.6005406 -0.177636E-14  0.423E-06   10.03    7872.3  T
     SCC iter.                  ...        0 min,  0.000 sec
     gradient                   ...        0 min,  0.000 sec
 * total energy  :    -9.4479175 Eh     change       -0.7803713E-10 Eh
   gradient norm :     0.0129137 Eh/α   predicted     0.0000000E+00 (-100.00%)
   displ. norm   :     0.0348168 α      lambda       -0.4182691E-03
   maximum displ.:     0.0338151 α      in ANC's #13, #7, #21, ...

........................................................................
.............................. CYCLE    2 ..............................
........................................................................

 iter      E             dE          RMSdq      gap      omega  full diag
   1     -9.6066261 -0.960663E+01  0.673E-02   10.13       0.0  T
   2     -9.6066269 -0.785482E-06  0.393E-02   10.13       1.0  T
   3     -9.6066270 -0.108114E-06  0.358E-03   10.13       9.3  T
   4     -9.6066270 -0.496694E-08  0.177E-03   10.13      18.8  T
   5     -9.6066270 -0.161222E-10  0.569E-05   10.13     585.3  T
   6     -9.6066270 -0.117168E-10  0.279E-05   10.13    1196.7  T
     SCC iter.                  ...        0 min,  0.001 sec
     gradient                   ...        0 min,  0.001 sec
 * total energy  :    -9.4481709 Eh     change       -0.2533795E-03 Eh
   gradient norm :     0.0043464 Eh/α   predicted    -0.2093884E-03 ( -17.36%)
   displ. norm   :     0.0114446 α      lambda       -0.3229664E-04
   maximum displ.:     0.0084373 α      in ANC's #13, #7, #21, ...

........................................................................
.............................. CYCLE    3 ..............................
........................................................................

 iter      E             dE          RMSdq      gap      omega  full diag
   1     -9.6079794 -0.960798E+01  0.252E-02   10.17       0.0  T
   2     -9.6079794 -0.185135E-07  0.147E-02   10.17       2.3  T
   3     -9.6079794 -0.960380E-08  0.825E-04   10.17      40.4  T
   4     -9.6079794  0.170690E-10  0.792E-05   10.17     421.0  T
     SCC iter.                  ...        0 min,  0.000 sec
     gradient                   ...        0 min,  0.000 sec
 * total energy  :    -9.4481891 Eh     change       -0.1821930E-04 Eh
   gradient norm :     0.0015790 Eh/α   predicted    -0.1614982E-04 ( -11.36%)
   displ. norm   :     0.0051715 α      lambda       -0.2610179E-05
   maximum displ.:     0.0048460 α      in ANC's #7, #21, #13, ...

........................................................................
.............................. CYCLE    4 ..............................
........................................................................

 iter      E             dE          RMSdq      gap      omega  full diag
   1     -9.6078881 -0.960789E+01  0.114E-02   10.18       0.0  T
   2     -9.6078881 -0.295155E-07  0.645E-03   10.18       5.2  T
   3     -9.6078881 -0.667901E-09  0.731E-04   10.18      45.6  T
   4     -9.6078881 -0.196390E-09  0.569E-05   10.18     585.7  T
     SCC iter.                  ...        0 min,  0.001 sec
     gradient                   ...        0 min,  0.001 sec
 * total energy  :    -9.4481909 Eh     change       -0.1805994E-05 Eh
   gradient norm :     0.0002229 Eh/α   predicted    -0.1304685E-05 ( -27.76%)
   displ. norm   :     0.0010283 α      lambda       -0.1420099E-06
   maximum displ.:     0.0009354 α      in ANC's #13, #7, #21, ...

........................................................................
.............................. CYCLE    5 ..............................
........................................................................

 iter      E             dE          RMSdq      gap      omega  full diag
   1     -9.6077286 -0.960773E+01  0.210E-03   10.18       0.0  T
   2     -9.6077286 -0.434454E-09  0.123E-03   10.18      27.1  T
   3     -9.6077286 -0.918305E-10  0.883E-05   10.18     377.5  T
   4     -9.6077286 -0.272671E-11  0.497E-05   10.18     670.2  T
     SCC iter.                  ...        0 min,  0.000 sec
     gradient                   ...        0 min,  0.000 sec
 * total energy  :    -9.4481910 Eh     change       -0.7409574E-07 Eh
   gradient norm :     0.0000658 Eh/α   predicted    -0.6949194E-07 (  -6.21%)
   displ. norm   :     0.0002280 α      lambda       -0.1323836E-07
   maximum displ.:     0.0002241 α      in ANC's #13, #4, #3, ...

   *** GEOMETRY OPTIMIZATION CONVERGED AFTER 5 ITERATIONS ***

------------------------------------------------------------------------
 total energy gain   :        -0.0002735 Eh       -0.1716 kcal/mol
 total RMSD          :         0.0154857 a0        0.0082 Å
 total power (kW/mol):        -0.1436038 (step)  -96.3532 (real)
------------------------------------------------------------------------

 ANCopt (total)                0 d,  0 h,  0 min,  0.007 sec
 optimizer setup                ...        0 min,  0.000 sec (  0.527%)
 model hessian                  ...        0 min,  0.000 sec (  5.038%)
 ANC generation                 ...        0 min,  0.000 sec (  1.025%)
 coordinate transformation      ...        0 min,  0.000 sec (  0.156%)
 single point calculation       ...        0 min,  0.006 sec ( 84.670%)
 optimization log               ...        0 min,  0.000 sec (  2.075%)
 hessian update                 ...        0 min,  0.000 sec (  0.177%)
 rational function              ...        0 min,  0.000 sec (  2.073%)

================
 final structure:
================
$coord
        0.88530673293196        1.37193116835241       -0.00005200002865      C
        0.74552899346440       -1.45263083803865        0.00005597484227      C
       -1.63072099719477        0.08069676273294       -0.00004391778614      C
        1.49109338680407        2.31063871947826       -1.70665851250980      H
        1.49103420039252        2.31077142203655        1.70650264190718      H
        1.25566091948988       -2.44669358024416       -1.70647821964322      H
        1.25560472896717       -2.44656232780391        1.70668324192399      H
       -2.74657193224298        0.13583879878758       -1.70664555962298      H
       -2.74662840181395        0.13597335908321        1.70651651853294      H
$end

 Bond Distances (Angstroems)
 ---------------------------
C1-C2=1.4965         C1-C3=1.4965         C1-H4=1.0794         C1-H5=1.0794         C2-C1=1.4965         C2-C3=1.4965         
C2-H6=1.0794         C2-H7=1.0794         C3-C1=1.4965         C3-C2=1.4965         C3-H8=1.0794         C3-H9=1.0794         
H4-C1=1.0794         H5-C1=1.0794         H6-C2=1.0794         H7-C2=1.0794         H8-C3=1.0794         H9-C3=1.0794         
 C  H  Rav=1.0794 sigma=0.0000  Rmin=1.0794  Rmax=1.0794     6
 C  C  Rav=1.4965 sigma=0.0000  Rmin=1.4965  Rmax=1.4965     3

 selected bond angles (degree)
 --------------------
C3-C1-C2= 60.00                H4-C1-C2=118.32                H4-C1-C3=118.32                H5-C1-C2=118.32                
H5-C1-C3=118.32                H5-C1-H4=113.58                C3-C2-C1= 60.00                H6-C2-C1=118.32                
H6-C2-C3=118.32                H7-C2-C1=118.32                H7-C2-C3=118.32                H7-C2-H6=113.58                
C2-C3-C1= 60.00                H8-C3-C1=118.32                H8-C3-C2=118.32                H9-C3-C1=118.32                
H9-C3-C2=118.32                H9-C3-H8=113.58                

 selected dihedral angles (degree)
 ---------------------------------
C3-C2-C1-H4=251.88            C3-C2-C1-H5=108.12            H6-C2-C1-C3=108.12            H6-C2-C1-H4=  0.00            
H6-C2-C1-H5=216.25            H7-C2-C1-C3=251.88            H7-C2-C1-H4=143.75            H7-C2-C1-H5=  0.00            
C2-C3-C1-H4=108.13            C2-C3-C1-H5=251.87            H8-C3-C1-C2=251.88            H8-C3-C1-H4=  0.00            
H8-C3-C1-H5=143.75            H9-C3-C1-C2=108.12            H9-C3-C1-H4=216.25            H9-C3-C1-H5=  0.00            
C1-C3-C2-H6=251.87            C1-C3-C2-H7=108.13            H8-C3-C2-C1=108.13            H8-C3-C2-H6=  0.00            
H8-C3-C2-H7=216.25            H9-C3-C2-C1=251.87            H9-C3-C2-H6=143.75            H9-C3-C2-H7=  0.00            
           -------------------------------------------------
          |                Final Singlepoint                |
           -------------------------------------------------

          ...................................................
          :                      SETUP                      :
          :.................................................:
          :  # basis functions                  18          :
          :  # atomic orbitals                  18          :
          :  # shells                           12          :
          :  # electrons                        18          :
          :  max. iterations                   250          :
          :  Hamiltonian                  GFN2-xTB          :
          :  restarted?                      false          :
          :  GBSA solvation                  false          :
          :  PC potential                    false          :
          :  electronic temp.          300.0000000     K    :
          :  accuracy                    1.0000000          :
          :  -> integral cutoff          0.2500000E+02      :
          :  -> integral neglect         0.1000000E-07      :
          :  -> SCF convergence          0.1000000E-05 Eh   :
          :  -> wf. convergence          0.1000000E-03 e    :
          :  Broyden damping             0.4000000          :
          :  net charge                          0          :
          :  unpaired electrons                  0          :
          ...................................................

 iter      E             dE          RMSdq      gap      omega  full diag
   1     -9.6077286 -0.960773E+01  0.825E-06   10.18       0.0  T
   2     -9.6077286 -0.321521E-12  0.362E-06   10.18    9198.8  T
   3     -9.6077286 -0.355271E-13  0.188E-06   10.18   17689.3  T

   *** convergence criteria satisfied after 3 iterations ***

         #    Occupation            Energy/Eh            Energy/eV
      -------------------------------------------------------------
         1        2.0000           -0.6370053             -17.3338
       ...           ...                  ...                  ...
         3        2.0000           -0.5621598             -15.2971
         4        2.0000           -0.5244577             -14.2712
         5        2.0000           -0.4996110             -13.5951
         6        2.0000           -0.4451922             -12.1143
         7        2.0000           -0.4451917             -12.1143
         8        2.0000           -0.4199451             -11.4273
         9        2.0000           -0.4199448             -11.4273 (HOMO)
        10                         -0.0458662              -1.2481 (LUMO)
        11                          0.1170291               3.1845
        12                          0.1304873               3.5507
        13                          0.1304914               3.5509
        14                          0.1862149               5.0672
       ...                                ...                  ...
        18                          0.3532419               9.6122
      -------------------------------------------------------------
                  HL-Gap            0.3740787 Eh           10.1792 eV
             Fermi-level           -0.2329055 Eh           -6.3377 eV

 SCC (total)                   0 d,  0 h,  0 min,  0.001 sec
 SCC setup                      ...        0 min,  0.000 sec (  2.258%)
 Dispersion                     ...        0 min,  0.000 sec (  0.988%)
 classical contributions        ...        0 min,  0.000 sec (  0.443%)
 integral evaluation            ...        0 min,  0.000 sec ( 19.196%)
 iterations                     ...        0 min,  0.000 sec ( 28.527%)
 molecular gradient             ...        0 min,  0.000 sec ( 44.826%)
 printout                       ...        0 min,  0.000 sec (  3.178%)

         :::::::::::::::::::::::::::::::::::::::::::::::::::::
         ::                     SUMMARY                     ::
         :::::::::::::::::::::::::::::::::::::::::::::::::::::
         :: total energy              -9.448190987612 Eh    ::
         :: gradient norm              0.000065657540 Eh/a0 ::
         :: HOMO-LUMO gap             10.179198882053 eV    ::
         ::.................................................::
         :: SCC energy                -9.607728065082 Eh    ::
         :: -> isotropic ES            0.001678403639 Eh    ::
         :: -> anisotropic ES          0.002763113628 Eh    ::
         :: -> anisotropic XC          0.007143521721 Eh    ::
         :: -> dispersion             -0.003003618183 Eh    ::
         :: repulsion energy           0.159537077470 Eh    ::
         :: add. restraining           0.000000000000 Eh    ::
         :: total charge               0.000000000000 e     ::
         :::::::::::::::::::::::::::::::::::::::::::::::::::::

           ------------------------------------------------- 
          |                Numerical Hessian                |
           ------------------------------------------------- 
step length          :   0.00500
SCC accuracy         :   0.30000
Hessian scale factor :   1.00000
frozen atoms in %    :   0.00000    0
RMS gradient         :   0.00007
estimated CPU  time      0.00 min
estimated wall time      0.00 min

writing file <hessian>, containing the non-mass-weighted Hessian matrix in atomic units (Eₕ/Bohr²).

 projected vibrational frequencies (cm⁻¹)
eigval :       -0.00    -0.00     0.00     0.00     0.00     0.00
eigval :      770.10   770.14   851.57   979.36   979.38  1074.85
eigval :     1078.46  1078.52  1118.54  1167.30  1167.31  1303.03
eigval :     1445.20  1445.20  1503.02  3089.49  3090.46  3090.47
eigval :     3090.92  3090.94  3117.97
           -------------------------------------------------
          |                Property Printout                |
           -------------------------------------------------

    * Orbital Energies and Occupations

         #    Occupation            Energy/Eh            Energy/eV
      -------------------------------------------------------------
         1        2.0000           -0.6370053             -17.3338
         2        2.0000           -0.5621603             -15.2972
         3        2.0000           -0.5621598             -15.2971
         4        2.0000           -0.5244578             -14.2712
         5        2.0000           -0.4996111             -13.5951
         6        2.0000           -0.4451922             -12.1143
         7        2.0000           -0.4451917             -12.1143
         8        2.0000           -0.4199451             -11.4273
         9        2.0000           -0.4199448             -11.4273 (HOMO)
        10                         -0.0458662              -1.2481 (LUMO)
        11                          0.1170291               3.1845
        12                          0.1304873               3.5507
        13                          0.1304914               3.5509
        14                          0.1862149               5.0672
        15                          0.3043646               8.2822
        16                          0.3043651               8.2822
        17                          0.3532409               9.6122
        18                          0.3532419               9.6122
      -------------------------------------------------------------
                  HL-Gap            0.3740787 Eh           10.1792 eV
             Fermi-level           -0.2329055 Eh           -6.3377 eV

     #   Z          covCN         q      C6AA      α(0)
     1   6          3.806    -0.062    21.683     6.629
     2   6          3.806    -0.062    21.683     6.629
     3   6          3.806    -0.062    21.683     6.629
     4   1          0.926     0.031     2.573     2.509
     5   1          0.926     0.031     2.573     2.509
     6   1          0.926     0.031     2.574     2.509
     7   1          0.926     0.031     2.574     2.509
     8   1          0.926     0.031     2.574     2.509
     9   1          0.926     0.031     2.574     2.509

 Mol. C6AA /au·bohr⁶  :        555.001847
 Mol. C8AA /au·bohr⁸  :      11760.212555
 Mol. α(0) /au        :         34.938742


Wiberg/Mayer (AO) data.
largest (>0.10) Wiberg bond orders for each atom

 ---------------------------------------------------------------------------
     #   Z sym  total        # sym  WBO       # sym  WBO       # sym  WBO
 ---------------------------------------------------------------------------
     1   6      3.946 --     3      0.988     2      0.988     5      0.983
                             4      0.983
     2   6      3.946 --     3      0.988     1      0.988     6      0.983
                             7      0.983
     3   6      3.946 --     2      0.988     1      0.988     9      0.983
                             8      0.983
     4   1      0.999 --     1      0.983
     5   1      0.999 --     1      0.983
     6   1      0.999 --     2      0.983
     7   1      0.999 --     2      0.983
     8   1      0.999 --     3      0.983
     9   1      0.999 --     3      0.983
 ---------------------------------------------------------------------------

Topologies differ in total number of bonds
Writing topology from bond orders to xtbtopo.mol

molecular dipole:
                 x           y           z       tot (Debye)
 q only:        0.000       0.000      -0.000
   full:       -0.000      -0.000      -0.000       0.000
molecular quadrupole (traceless):
                xx          xy          yy          xz          yz          zz
 q only:       -0.043       0.000      -0.043      -0.000       0.000       0.086
  q+dip:       -0.954       0.000      -0.954      -0.000       0.000       1.908
   full:       -0.667       0.000      -0.667      -0.000       0.000       1.333

           -------------------------------------------------
          |                Geometry Summary                 |
           -------------------------------------------------

      molecular mass/u    :       42.0798522
   center of mass at/Å    :        0.0000198      -0.0000009      -0.0000070
  moments of inertia/u·Å² :        0.2478523E+02   0.2478539E+02   0.3970618E+02
rotational constants/cm⁻¹ :        0.6801484E+00   0.6801440E+00   0.4245594E+00

 * 9 selected distances
Molecule has the following symmetry elements: (C3) 3*(C2) (S3) 4*(sigma) 
It seems to be the D3h point group

     #   Z          #   Z                                           value/Å
     1   6          2   6                                         1.4965231 (max)
     1   6          3   6                                         1.4965224
     2   6          3   6                                         1.4965202
     1   6          4   1                                         1.0793991
     1   6          5   1                                         1.0793991
     2   6          6   1                                         1.0793989
     2   6          7   1                                         1.0793989
     3   6          8   1                                         1.0793988 (min)
     3   6          9   1                                         1.0793988

 * 2 distinct bonds (by element types)

   Z      Z             #   av. dist./Å        max./Å        min./Å
   1 H    6 C           6     1.0793989     1.0793991     1.0793988
   6 C    6 C           3     1.4965219     1.4965231     1.4965202

           -------------------------------------------------
          |               Frequency Printout                |
           -------------------------------------------------
 projected vibrational frequencies (cm⁻¹)
eigval :       -0.00    -0.00     0.00     0.00     0.00     0.00
eigval :      770.10   770.14   851.57   979.36   979.38  1074.85
eigval :     1078.46  1078.52  1118.54  1167.30  1167.31  1303.03
eigval :     1445.20  1445.20  1503.02  3089.49  3090.46  3090.47
eigval :     3090.92  3090.94  3117.97
 reduced masses (amu)
    1:      3.10    2:      3.14    3:      2.41    4:      4.24    5:      3.35    6:      2.35
    7:      1.02    8:      1.02    9:      1.05   10:      2.94   11:      2.94   12:      1.43
   13:      1.38   14:      1.38   15:      1.01   16:      1.48   17:      1.48   18:      2.01
   19:      1.10   20:      1.10   21:      1.62   22:      1.05   23:      1.11   24:      1.11
   25:      1.05   26:      1.05   27:      1.11
 IR intensities (km·mol⁻¹)
    1:      0.00    2:      0.00    3:      0.00    4:      0.00    5:      0.00    6:      0.00
    7:      0.00    8:      0.00    9:      0.59   10:      5.28   11:      5.24   12:      0.00
   13:      1.04   14:      1.06   15:      0.00   16:      0.00   17:      0.00   18:      0.00
   19:      0.17   20:      0.18   21:      0.00   22:      0.00   23:      0.00   24:      0.00
   25:     44.20   26:     44.37   27:    106.22
 Raman intensities (Ä⁴*amu⁻¹)
    1:      0.00    2:      0.00    3:      0.00    4:      0.00    5:      0.00    6:      0.00
    7:      0.00    8:      0.00    9:      0.00   10:      0.00   11:      0.00   12:      0.00
   13:      0.00   14:      0.00   15:      0.00   16:      0.00   17:      0.00   18:      0.00
   19:      0.00   20:      0.00   21:      0.00   22:      0.00   23:      0.00   24:      0.00
   25:      0.00   26:      0.00   27:      0.00
 output can be read by thermo (or use thermo option).
 writing <g98.out> molden fake output.
 recommended (thermochemical) frequency scaling factor: 1.0
           -------------------------------------------------
          |             Thermodynamic Functions             |
           -------------------------------------------------

d3h symmetry found (for desy threshold:  0.10E+00) used in thermo

          ...................................................
          :                      SETUP                      :
          :.................................................:
          :  # frequencies                          21      :
          :  # imaginary freq.                       0      :
          :  linear?                             false      :
          :  only rotor calc.                    false      :
          :  symmetry                              d3h      :
          :  rotational number                       6      :
          :  scaling factor                  1.0000000      :
          :  rotor cutoff                    0.0000000 cm⁻¹ :
          :  imag. cutoff                 -100.0000000 cm⁻¹ :
          :.................................................:

    mode    ω/cm⁻¹     T·S(HO)/kcal·mol⁻¹    T·S(FR)/kcal·mol⁻¹   T·S(vib)
   ------------------------------------------------------------------------
   ------------------------------------------------------------------------

   temp. (K)  partition function   enthalpy   heat capacity  entropy
                                   cal/mol     cal/K/mol   cal/K/mol   J/K/mol
 298.15  VIB   1.12                  308.067      4.794      1.265
         ROT  0.199E+04              888.727      2.981     18.074
         INT  0.223E+04             1196.794      7.775     19.338
         TR   0.835E+25             1481.212      4.968     37.138
         TOT                        2678.0066    12.7432    56.4762   236.2962

       T/K    H(0)-H(T)+PV         H(T)/Eh          T*S/Eh         G(T)/Eh
   ------------------------------------------------------------------------
    298.15    0.426768E-02    0.846921E-01    0.268336E-01    0.578584E-01
   ------------------------------------------------------------------------

         :::::::::::::::::::::::::::::::::::::::::::::::::::::
         ::                  THERMODYNAMIC                  ::
         :::::::::::::::::::::::::::::::::::::::::::::::::::::
         :: total free energy          -9.390332555966 Eh   ::
         ::.................................................::
         :: total energy               -9.448190987613 Eh   ::
         :: zero point energy           0.080424400018 Eh   ::
         :: G(RRHO) w/o ZPVE           -0.022565968371 Eh   ::
         :: G(RRHO) contrib.            0.057858431646 Eh   ::
         :::::::::::::::::::::::::::::::::::::::::::::::::::::

optimized geometry written to: xtbopt.coord


           -------------------------------------------------
          | TOTAL ENERGY               -9.448190987613 Eh   |
          | TOTAL ENTHALPY             -9.363498912361 Eh   |
          | TOTAL FREE ENERGY          -9.390332555966 Eh   |
          | GRADIENT NORM               0.000065653292 Eh/α |
          | HOMO-LUMO GAP              10.179198892527 eV   |
           -------------------------------------------------

------------------------------------------------------------------------
 * finished run on 2025/04/09 at 05:41:51.558     
------------------------------------------------------------------------
 total:
 * wall-time:     0 d,  0 h,  0 min,  0.067 sec
 *  cpu-time:     0 d,  0 h,  0 min,  0.067 sec
 * ratio c/w:     0.989 speedup
 SCF:
 * wall-time:     0 d,  0 h,  0 min,  0.002 sec
 *  cpu-time:     0 d,  0 h,  0 min,  0.002 sec
 * ratio c/w:     0.998 speedup
 ANC optimizer:
 * wall-time:     0 d,  0 h,  0 min,  0.009 sec
 *  cpu-time:     0 d,  0 h,  0 min,  0.009 sec
 * ratio c/w:     0.988 speedup
 analytical hessian:
 * wall-time:     0 d,  0 h,  0 min,  0.053 sec
 *  cpu-time:     0 d,  0 h,  0 min,  0.053 sec
 * ratio c/w:     0.990 speedup

