      -----------------------------------------------------------      
     |                   =====================                   |     
     |                           x T B                           |     
     |                   =====================                   |     
     |                         S. Grimme                         |     
     |          Mulliken Center for Theoretical Chemistry        |     
     |                    University of Bonn                     |     
      -----------------------------------------------------------      

   * xtb version 6.7.1 (41059b4) compiled by 'michael@archlinux' on 2025-03-24

   xtb is free software: you can redistribute it and/or modify it under
   the terms of the GNU Lesser General Public License as published by
   the Free Software Foundation, either version 3 of the License, or
   (at your option) any later version.
   
   xtb is distributed in the hope that it will be useful,
   but WITHOUT ANY WARRANTY; without even the implied warranty of
   MERCHANTABILITY or FITNESS FOR A PARTICULAR PURPOSE.  See the
   GNU Lesser General Public License for more details.
   
   Cite this work as:
   * C. Bannwarth, E. Caldeweyher, S. Ehlert, A. Hansen, P. Pracht,
     J. Seibert, S. Spicher, S. Grimme, WIREs Comput. Mol. Sci., 2020, 11,
     e01493. DOI: 10.1002/wcms.1493
   
   for GFN2-xTB:
   * C. Bannwarth, S. Ehlert and S. Grimme., J. Chem. Theory Comput., 2019,
     15, 1652-1671. DOI: 10.1021/acs.jctc.8b01176
   for GFN1-xTB:
   * S. Grimme, C. Bannwarth, P. Shushkov, J. Chem. Theory Comput., 2017,
     13, 1989-2009. DOI: 10.1021/acs.jctc.7b00118
   for GFN0-xTB:
   * P. Pracht, E. Caldeweyher, S. Ehlert, S. Grimme, ChemRxiv, 2019, preprint.
     DOI: 10.26434/chemrxiv.8326202.v1
   for GFN-FF:
   * S. Spicher and S. Grimme, Angew. Chem. Int. Ed., 2020, 59, 15665-15673.
     DOI: 10.1002/anie.202004239
   
   for ALPB and GBSA implicit solvation:
   * S. Ehlert, M. Stahn, S. Spicher, S. Grimme, J. Chem. Theory Comput.,
     2021, 17, 4250-4261. DOI: 10.1021/acs.jctc.1c00471
   
   for ddCOSMO and CPCM-X implicit solvation:
   * M. Stahn, S. Ehlert, S. Grimme, J. Phys. Chem. A,
     2023, XX, XXXX-XXXX. DOI: 10.1021/acs.jpca.3c04382
   
   for DFT-D4:
   * E. Caldeweyher, C. Bannwarth and S. Grimme, J. Chem. Phys., 2017,
     147, 034112. DOI: 10.1063/1.4993215
   * E. Caldeweyher, S. Ehlert, A. Hansen, H. Neugebauer, S. Spicher,
     C. Bannwarth and S. Grimme, J. Chem. Phys., 2019, 150, 154122.
     DOI: 10.1063/1.5090222
   * E. Caldeweyher, J.-M. Mewes, S. Ehlert and S. Grimme, Phys. Chem. Chem. Phys.
     2020, 22, 8499-8512. DOI: 10.1039/D0CP00502A
   
   for sTDA-xTB:
   * S. Grimme and C. Bannwarth, J. Chem. Phys., 2016, 145, 054103.
     DOI: 10.1063/1.4959605
   
   in the mass-spec context:
   * V. Asgeirsson, C. Bauer and S. Grimme, Chem. Sci., 2017, 8, 4879.
     DOI: 10.1039/c7sc00601b
   * J. Koopman and S. Grimme, ACS Omega 2019, 4, 12, 15120-15133.
     DOI: 10.1021/acsomega.9b02011
   
   for metadynamics refer to:
   * S. Grimme, J. Chem. Theory Comput., 2019, 155, 2847-2862
     DOI: 10.1021/acs.jctc.9b00143
   
   for SPH calculations refer to:
   * S. Spicher and S. Grimme, J. Chem. Theory Comput., 2021, 17, 1701-1714
     DOI: 10.1021/acs.jctc.0c01306
   
   for ONIOM refer to:
   * C. Plett, A. Katbashev, S. Ehlert, S. Grimme, M. Bursch,
     Phys. Chem. Chem. Phys., 2023, 25, 17860-17868. DOI: 10.1039/D3CP02178E
   
   for DIPRO refer to:
   * J. Kohn, N. Gildemeister, S. Grimme, D. Fazzi, A. Hansen,
     J. Chem. Phys., 2023, just accepted.
   
   for PTB refer to:
   * S. Grimme, M. Mueller, A. Hansen, J. Chem. Phys., 2023, 158, 124111.
     DOI: 10.1063/5.0137838
   
   with help from (in alphabetical order)
   P. Atkinson, C. Bannwarth, F. Bohle, G. Brandenburg, E. Caldeweyher
   M. Checinski, S. Dohm, S. Ehlert, S. Ehrlich, I. Gerasimov, C. Hölzer
   A. Katbashev, J. Kohn, J. Koopman, C. Lavigne, S. Lehtola, F. März, M. Müller,
   F. Musil, H. Neugebauer, J. Pisarek, C. Plett, P. Pracht, F. Pultar,
   J. Seibert, P. Shushkov, S. Spicher, M. Stahn, M. Steiner, T. Strunk,
   J. Stückrath, T. Rose, and J. Unsleber
   
 * started run on 2025/04/09 at 02:30:17.120     
   ID    Z sym.   atoms
    1    6 C      1, 2, 4, 6, 8
    2    1 H      3, 5, 7, 9, 15-20
    3    8 O      10-14

           -------------------------------------------------
          |                Calculation Setup                |
           -------------------------------------------------

          program call               : /usr/bin/xtb xtb_rrho.coord --gfn2 --bhess vtight --chrg 0 --enso --norestart -I rrho-xcontrol-inp --parallel 1
          coordinate file            : xtb_rrho.coord
          omp threads                :                     1


           -------------------------------------------------
          |                 G F N 2 - x T B                 |
           -------------------------------------------------

        Reference                      10.1021/acs.jctc.8b01176
      * Hamiltonian:
        H0-scaling (s, p, d)           1.850000    2.230000    2.230000
        zeta-weighting                 0.500000
      * Dispersion:
        s8                             2.700000
        a1                             0.520000
        a2                             5.000000
        s9                             5.000000
      * Repulsion:
        kExp                           1.500000    1.000000
        rExp                           1.000000
      * Coulomb:
        alpha                          2.000000
        third order                    shell-resolved
        anisotropic                    true
        a3                             3.000000
        a5                             4.000000
        cn-shift                       1.200000
        cn-exp                         4.000000
        max-rad                        5.000000


          ...................................................
          :                      SETUP                      :
          :.................................................:
          :  # basis functions                  50          :
          :  # atomic orbitals                  50          :
          :  # shells                           30          :
          :  # electrons                        60          :
          :  max. iterations                   250          :
          :  Hamiltonian                  GFN2-xTB          :
          :  restarted?                      false          :
          :  GBSA solvation                  false          :
          :  PC potential                    false          :
          :  electronic temp.          300.0000000     K    :
          :  accuracy                    1.0000000          :
          :  -> integral cutoff          0.2500000E+02      :
          :  -> integral neglect         0.1000000E-07      :
          :  -> SCF convergence          0.1000000E-05 Eh   :
          :  -> wf. convergence          0.1000000E-03 e    :
          :  Broyden damping             0.4000000          :
          :  net charge                          0          :
          :  unpaired electrons                  0          :
          ...................................................

 iter      E             dE          RMSdq      gap      omega  full diag
   1    -36.3423854 -0.363424E+02  0.472E+00    9.95       0.0  T
   2    -36.3754210 -0.330356E-01  0.252E+00    9.68       1.0  T
   3    -36.3764012 -0.980232E-03  0.772E-01    9.61       1.0  T
   4    -36.3772569 -0.855651E-03  0.149E-01    9.59       1.0  T
   5    -36.3773154 -0.584889E-04  0.583E-02    9.62       1.0  T
   6    -36.3773259 -0.105134E-04  0.202E-02    9.63       1.1  T
   7    -36.3773267 -0.769648E-06  0.676E-03    9.63       3.3  T
   8    -36.3773269 -0.249062E-06  0.202E-03    9.63      11.1  T
   9    -36.3773269 -0.102642E-07  0.779E-04    9.63      28.7  T
  10    -36.3773269 -0.745828E-09  0.366E-04    9.63      61.2  T

   *** convergence criteria satisfied after 10 iterations ***

         #    Occupation            Energy/Eh            Energy/eV
      -------------------------------------------------------------
         1        2.0000           -0.7211839             -19.6244
       ...           ...                  ...                  ...
        24        2.0000           -0.4793389             -13.0435
        25        2.0000           -0.4714618             -12.8291
        26        2.0000           -0.4587933             -12.4844
        27        2.0000           -0.4566448             -12.4259
        28        2.0000           -0.4311134             -11.7312
        29        2.0000           -0.4295165             -11.6877
        30        2.0000           -0.4033171             -10.9748 (HOMO)
        31                         -0.0495305              -1.3478 (LUMO)
        32                          0.0020446               0.0556
        33                          0.0181792               0.4947
        34                          0.0302289               0.8226
        35                          0.0423117               1.1514
       ...                                ...                  ...
        50                          0.2618452               7.1252
      -------------------------------------------------------------
                  HL-Gap            0.3537866 Eh            9.6270 eV
             Fermi-level           -0.2264238 Eh           -6.1613 eV

 SCC (total)                   0 d,  0 h,  0 min,  0.016 sec
 SCC setup                      ...        0 min,  0.000 sec (  0.637%)
 Dispersion                     ...        0 min,  0.000 sec (  0.897%)
 classical contributions        ...        0 min,  0.000 sec (  0.227%)
 integral evaluation            ...        0 min,  0.003 sec ( 16.434%)
 iterations                     ...        0 min,  0.007 sec ( 43.043%)
 molecular gradient             ...        0 min,  0.006 sec ( 38.009%)
 printout                       ...        0 min,  0.000 sec (  0.691%)

         :::::::::::::::::::::::::::::::::::::::::::::::::::::
         ::                     SUMMARY                     ::
         :::::::::::::::::::::::::::::::::::::::::::::::::::::
         :: total energy             -36.129261852090 Eh    ::
         :: gradient norm              0.043119946118 Eh/a0 ::
         :: HOMO-LUMO gap              9.627023264309 eV    ::
         ::.................................................::
         :: SCC energy               -36.377245210308 Eh    ::
         :: -> isotropic ES            0.113697388194 Eh    ::
         :: -> anisotropic ES          0.000340935023 Eh    ::
         :: -> anisotropic XC         -0.007331584089 Eh    ::
         :: -> dispersion             -0.015366134236 Eh    ::
         :: repulsion energy           0.247983358217 Eh    ::
         :: add. restraining           0.000000000000 Eh    ::
         :: total charge               0.000000000000 e     ::
         :::::::::::::::::::::::::::::::::::::::::::::::::::::

metadynamics with 1 initial structures loaded
           -------------------------------------------------
          |           Optimal kpush determination           |
           -------------------------------------------------
      ----------------------------------------------------------- 
     |                   =====================                   |
     |                        A N C O P T                        |
     |                   =====================                   |
     |               Approximate Normal Coordinate               |
     |                Rational Function Optimizer                |
      ----------------------------------------------------------- 
target rmsd / Å         0.100000
unbiased initial rmsd   0.061351

iter. min.        max.        rmsd       kpush
final kpush: -0.000000
           -------------------------------------------------
          |            Biased Numerical Hessian             |
           -------------------------------------------------
kpush                :  -0.00000
alpha                :   1.00000
step length          :   0.00500
SCC accuracy         :   0.30000
Hessian scale factor :   1.00000
frozen atoms in %    :   0.00000    0
RMS gradient         :   0.00004
estimated CPU  time      0.02 min
estimated wall time      0.02 min

writing file <hessian>, containing the non-mass-weighted Hessian matrix in atomic units (Eₕ/Bohr²).

writing file <hessian_sph>.

 projected vibrational frequencies (cm⁻¹)
eigval :       -0.00    -0.00    -0.00     0.00     0.00     0.00
eigval :      101.93   137.15   194.09   215.83   241.66   257.78
eigval :      277.38   299.45   336.33   372.93   409.77   430.62
eigval :      484.24   499.69   529.49   572.64   690.14   806.57
eigval :      852.00   872.97   941.15   958.50  1031.43  1065.79
eigval :     1086.01  1100.08  1111.08  1126.42  1133.22  1177.56
eigval :     1189.14  1202.76  1214.87  1248.43  1261.01  1284.61
eigval :     1293.41  1308.30  1327.67  1335.38  1347.25  1349.50
eigval :     1364.16  1430.52  2813.77  2822.65  2884.90  2901.04
eigval :     2978.49  2998.71  3396.98  3460.63  3525.98  3532.48
           -------------------------------------------------
          |                Property Printout                |
           -------------------------------------------------

    * Orbital Energies and Occupations

         #    Occupation            Energy/Eh            Energy/eV
      -------------------------------------------------------------
         1        2.0000           -0.7222112             -19.6524
       ...           ...                  ...                  ...
        18        2.0000           -0.5364308             -14.5970
        19        2.0000           -0.5278304             -14.3630
        20        2.0000           -0.5249652             -14.2850
        21        2.0000           -0.5036424             -13.7048
        22        2.0000           -0.4974681             -13.5368
        23        2.0000           -0.4934237             -13.4267
        24        2.0000           -0.4784136             -13.0183
        25        2.0000           -0.4708949             -12.8137
        26        2.0000           -0.4564717             -12.4212
        27        2.0000           -0.4541106             -12.3570
        28        2.0000           -0.4327677             -11.7762
        29        2.0000           -0.4231918             -11.5156
        30        2.0000           -0.3992659             -10.8646 (HOMO)
        31                         -0.0240891              -0.6555 (LUMO)
        32                          0.0151631               0.4126
        33                          0.0355574               0.9676
        34                          0.0434994               1.1837
        35                          0.0461482               1.2558
        36                          0.0625975               1.7034
        37                          0.0745320               2.0281
        38                          0.0958505               2.6082
        39                          0.1075181               2.9257
        40                          0.1241500               3.3783
        41                          0.1376450               3.7455
       ...                                ...                  ...
        50                          0.2749739               7.4824
      -------------------------------------------------------------
                  HL-Gap            0.3751769 Eh           10.2091 eV
             Fermi-level           -0.2116775 Eh           -5.7600 eV

     #   Z          covCN         q      C6AA      α(0)
     1   6          3.709     0.074    19.476     6.307
     2   6          3.723     0.094    19.125     6.245
     3   1          0.923     0.014     2.823     2.628
     4   6          3.726     0.093    19.146     6.248
     5   1          0.922     0.021     2.721     2.580
     6   6          3.726     0.089    19.196     6.256
     7   1          0.924     0.061     2.187     2.313
     8   6          3.635     0.233    17.310     5.987
     9   1          0.923     0.042     2.424     2.435
    10   8          1.701    -0.323    19.403     5.947
    11   8          1.657    -0.419    21.215     6.218
    12   8          1.655    -0.450    21.844     6.309
    13   8          1.656    -0.446    21.758     6.297
    14   8          1.656    -0.437    21.576     6.270
    15   1          0.923     0.035     2.511     2.478
    16   1          0.924     0.075     2.028     2.227
    17   1          0.805     0.322     0.659     1.275
    18   1          0.804     0.321     0.660     1.276
    19   1          0.805     0.301     0.719     1.332
    20   1          0.805     0.298     0.726     1.338

 Mol. C6AA /au·bohr⁶  :       3277.002517
 Mol. C8AA /au·bohr⁸  :      69474.625881
 Mol. α(0) /au        :         81.965136


Wiberg/Mayer (AO) data.
largest (>0.10) Wiberg bond orders for each atom

 ---------------------------------------------------------------------------
     #   Z sym  total        # sym  WBO       # sym  WBO       # sym  WBO
 ---------------------------------------------------------------------------
     1   6      3.956 --    10      0.995     2      0.979    16      0.966
                            15      0.964
     2   6      3.958 --    14      0.994     1      0.979     4      0.961
                             3      0.958
     3   1      1.000 --     2      0.958
     4   6      3.955 --    13      0.997     6      0.965     2      0.961
                             5      0.957
     5   1      1.000 --     4      0.957
     6   6      3.961 --    12      1.011     4      0.965     7      0.960
                             8      0.948
     7   1      0.996 --     6      0.960
     8   6      3.935 --    11      1.034     9      0.950     6      0.948
                            10      0.947
     9   1      0.998 --     8      0.950
    10   8      2.086 --     1      0.995     8      0.947
    11   8      2.001 --     8      1.034    17      0.872
    12   8      1.968 --     6      1.011    18      0.864
    13   8      1.961 --     4      0.997    19      0.893
    14   8      1.978 --     2      0.994    20      0.893
    15   1      0.999 --     1      0.964
    16   1      0.994 --     1      0.966
    17   1      0.896 --    11      0.872
    18   1      0.897 --    12      0.864
    19   1      0.910 --    13      0.893
    20   1      0.911 --    14      0.893
 ---------------------------------------------------------------------------

Topologies differ in total number of bonds
Writing topology from bond orders to xtbtopo.mol

molecular dipole:
                 x           y           z       tot (Debye)
 q only:        1.268      -0.433      -0.065
   full:        1.912      -0.686      -0.130       5.173
molecular quadrupole (traceless):
                xx          xy          yy          xz          yz          zz
 q only:        2.175      -2.182      -2.697      -3.982       0.114       0.521
  q+dip:        2.165      -3.795      -1.728      -4.786      -0.597      -0.437
   full:        2.395      -3.801      -2.655      -5.066      -0.225       0.261

           -------------------------------------------------
          |                Geometry Summary                 |
           -------------------------------------------------

      molecular mass/u    :      150.1301116
   center of mass at/Å    :       -0.0001449      -0.0000199      -0.0000210
  moments of inertia/u·Å² :        0.2856603E+03   0.4109718E+03   0.4375436E+03
rotational constants/cm⁻¹ :        0.5901287E-01   0.4101895E-01   0.3852789E-01

 * 17 selected distances

     #   Z          #   Z                                           value/Å
     1   6          2   6                                         1.5360978 (max)
     2   6          3   1                                         1.1045391
     4   6          5   1                                         1.1052031
     6   6          7   1                                         1.0932651
     8   6          9   1                                         1.0993810
     1   6         10   8                                         1.4006867
     8   6         10   8                                         1.4196142
     8   6         11   8                                         1.3741616
     6   6         12   8                                         1.4019135
     4   6         13   8                                         1.4046686
     2   6         14   8                                         1.4090371
     1   6         15   1                                         1.0993431
     1   6         16   1                                         1.0908026
    11   8         17   1                                         0.9689999
    12   8         18   1                                         0.9726934
    13   8         19   1                                         0.9642431 (min)
    14   8         20   1                                         0.9645661

 * 4 distinct bonds (by element types)

   Z      Z             #   av. dist./Å        max./Å        min./Å
   1 H    6 C           6     1.0987557     1.1052031     1.0908026
   6 C    6 C           1     1.5360978     1.5360978     1.5360978
   1 H    8 O           4     0.9676256     0.9726934     0.9642431
   6 C    8 O           6     1.4016803     1.4196142     1.3741616

           -------------------------------------------------
          |               Frequency Printout                |
           -------------------------------------------------
 projected vibrational frequencies (cm⁻¹)
eigval :       -0.00    -0.00    -0.00     0.00     0.00     0.00
eigval :      101.93   137.15   194.09   215.83   241.66   257.78
eigval :      277.38   299.45   336.33   372.93   409.77   430.62
eigval :      484.24   499.69   529.49   572.64   690.14   806.57
eigval :      852.00   872.97   941.15   958.50  1031.43  1065.79
eigval :     1086.01  1100.08  1111.08  1126.42  1133.22  1177.56
eigval :     1189.14  1202.76  1214.87  1248.43  1261.01  1284.61
eigval :     1293.41  1308.30  1327.67  1335.38  1347.25  1349.50
eigval :     1364.16  1430.52  2813.77  2822.65  2884.90  2901.04
eigval :     2978.49  2998.71  3396.98  3460.63  3525.98  3532.48
 reduced masses (amu)
    1:      5.87    2:      5.92    3:      7.14    4:      7.21    5:      7.12    6:      6.53
    7:      5.31    8:      5.07    9:      4.83   10:      5.44   11:      2.56   12:      3.81
   13:      1.15   14:      1.24   15:      2.39   16:      3.90   17:      2.93   18:      1.80
   19:      1.37   20:      4.68   21:      3.17   22:      6.05   23:      4.24   24:      4.31
   25:      4.00   26:      2.92   27:      2.63   28:      2.29   29:      2.69   30:      2.07
   31:      3.03   32:      2.89   33:      4.73   34:      2.11   35:      2.68   36:      1.19
   37:      1.35   38:      1.56   39:      1.33   40:      1.56   41:      1.60   42:      1.29
   43:      1.12   44:      1.61   45:      1.29   46:      1.30   47:      1.34   48:      1.39
   49:      1.50   50:      1.09   51:      1.07   52:      1.07   53:      1.07   54:      1.07
   55:      1.07   56:      1.07   57:      1.07   58:      1.06   59:      1.07   60:      1.07
 IR intensities (km·mol⁻¹)
    1:      1.40    2:      1.25    3:      0.10    4:      0.41    5:      1.05    6:      1.12
    7:      7.67    8:      0.16    9:      6.60   10:      4.05   11:     38.24   12:     37.06
   13:    146.72   14:    162.64   15:     28.09   16:     21.52   17:     42.37   18:     88.87
   19:     86.25   20:     18.75   21:     59.35   22:     13.08   23:     20.48   24:     31.90
   25:      9.99   26:      6.88   27:     21.82   28:     25.29   29:     92.77   30:     29.06
   31:     80.36   32:     48.37   33:    119.83   34:    173.98   35:     40.55   36:     38.48
   37:     48.66   38:     67.63   39:     16.18   40:     49.30   41:     20.32   42:     22.13
   43:      8.10   44:      6.62   45:     45.94   46:     35.07   47:    114.03   48:      9.07
   49:    120.76   50:      1.47   51:     90.40   52:     87.28   53:     54.88   54:     38.39
   55:     25.37   56:     15.79   57:     65.12   58:     31.46   59:     10.88   60:     10.81
 Raman intensities (Ä⁴*amu⁻¹)
    1:      0.00    2:      0.00    3:      0.00    4:      0.00    5:      0.00    6:      0.00
    7:      0.00    8:      0.00    9:      0.00   10:      0.00   11:      0.00   12:      0.00
Molecule has no symmetry elements
It seems to be the C1 point group
   13:      0.00   14:      0.00   15:      0.00   16:      0.00   17:      0.00   18:      0.00
   19:      0.00   20:      0.00   21:      0.00   22:      0.00   23:      0.00   24:      0.00
   25:      0.00   26:      0.00   27:      0.00   28:      0.00   29:      0.00   30:      0.00
   31:      0.00   32:      0.00   33:      0.00   34:      0.00   35:      0.00   36:      0.00
   37:      0.00   38:      0.00   39:      0.00   40:      0.00   41:      0.00   42:      0.00
   43:      0.00   44:      0.00   45:      0.00   46:      0.00   47:      0.00   48:      0.00
   49:      0.00   50:      0.00   51:      0.00   52:      0.00   53:      0.00   54:      0.00
   55:      0.00   56:      0.00   57:      0.00   58:      0.00   59:      0.00   60:      0.00
 output can be read by thermo (or use thermo option).
 writing <g98.out> molden fake output.
 recommended (thermochemical) frequency scaling factor: 1.0
           -------------------------------------------------
          |             Thermodynamic Functions             |
           -------------------------------------------------

c1  symmetry found (for desy threshold:  0.10E+00) used in thermo

          ...................................................
          :                      SETUP                      :
          :.................................................:
          :  # frequencies                          54      :
          :  # imaginary freq.                       0      :
          :  linear?                             false      :
          :  only rotor calc.                    false      :
          :  symmetry                               c1      :
          :  rotational number                       1      :
          :  scaling factor                  1.0000000      :
          :  rotor cutoff                    0.0000000 cm⁻¹ :
          :  imag. cutoff                 -100.0000000 cm⁻¹ :
          :.................................................:

    mode    ω/cm⁻¹     T·S(HO)/kcal·mol⁻¹    T·S(FR)/kcal·mol⁻¹   T·S(vib)
   ------------------------------------------------------------------------
       1    101.93    -1.01881 (100.00%)    -0.84542 (  0.00%)    -1.01881
       2    137.15    -0.84773 (100.00%)    -0.75754 (  0.00%)    -0.84773
       3    194.09    -0.65246 (100.00%)    -0.65468 (  0.00%)    -0.65246
       4    215.83    -0.59445 (100.00%)    -0.62324 (  0.00%)    -0.59445
       5    241.66    -0.53388 (100.00%)    -0.58977 (  0.00%)    -0.53388
       6    257.78    -0.49992 (100.00%)    -0.57064 (  0.00%)    -0.49992
       7    277.38    -0.46206 (100.00%)    -0.54893 (  0.00%)    -0.46206
       8    299.45    -0.42336 (100.00%)    -0.52625 (  0.00%)    -0.42336
   ------------------------------------------------------------------------

   temp. (K)  partition function   enthalpy   heat capacity  entropy
                                   cal/mol     cal/K/mol   cal/K/mol   J/K/mol
 298.15  VIB   163.                 4549.931     33.074     25.379
         ROT  0.547E+06              888.727      2.981     29.238
         INT  0.891E+08             5438.659     36.055     54.617
         TR   0.563E+26             1481.212      4.968     40.929
         TOT                        6919.8713    41.0229    95.5462   399.7653

       T/K    H(0)-H(T)+PV         H(T)/Eh          T*S/Eh         G(T)/Eh
   ------------------------------------------------------------------------
    298.15    0.110275E-01    0.167735E+00    0.453971E-01    0.122338E+00
   ------------------------------------------------------------------------

         :::::::::::::::::::::::::::::::::::::::::::::::::::::
         ::                  THERMODYNAMIC                  ::
         :::::::::::::::::::::::::::::::::::::::::::::::::::::
         :: total free energy         -36.009301248839 Eh   ::
         ::.................................................::
         :: total energy              -36.131639003390 Eh   ::
         :: zero point energy           0.156707324028 Eh   ::
         :: G(RRHO) w/o ZPVE           -0.034369569477 Eh   ::
         :: G(RRHO) contrib.            0.122337754551 Eh   ::
         :::::::::::::::::::::::::::::::::::::::::::::::::::::

optimized geometry written to: xtbopt.coord


           -------------------------------------------------
          | TOTAL ENERGY              -36.131639003390 Eh   |
          | TOTAL ENTHALPY            -35.963904162530 Eh   |
          | TOTAL FREE ENERGY         -36.009301248839 Eh   |
          | GRADIENT NORM               0.000042668124 Eh/α |
          | HOMO-LUMO GAP              10.209082032740 eV   |
           -------------------------------------------------

------------------------------------------------------------------------
 * finished run on 2025/04/09 at 02:30:18.266     
------------------------------------------------------------------------
 total:
 * wall-time:     0 d,  0 h,  0 min,  1.146 sec
 *  cpu-time:     0 d,  0 h,  0 min,  1.139 sec
 * ratio c/w:     0.994 speedup
 SCF:
 * wall-time:     0 d,  0 h,  0 min,  0.017 sec
 *  cpu-time:     0 d,  0 h,  0 min,  0.016 sec
 * ratio c/w:     0.984 speedup
 analytical hessian:
 * wall-time:     0 d,  0 h,  0 min,  0.945 sec
 *  cpu-time:     0 d,  0 h,  0 min,  0.940 sec
 * ratio c/w:     0.995 speedup

