
                                 *****************
                                 * O   R   C   A *
                                 *****************

                                            #,                                       
                                            ###                                      
                                            ####                                     
                                            #####                                    
                                            ######                                   
                                           ########,                                 
                                     ,,################,,,,,                         
                               ,,#################################,,                 
                          ,,##########################################,,             
                       ,#########################################, ''#####,          
                    ,#############################################,,   '####,        
                  ,##################################################,,,,####,       
                ,###########''''           ''''###############################       
              ,#####''   ,,,,##########,,,,          '''####'''          '####       
            ,##' ,,,,###########################,,,                        '##       
           ' ,,###''''                  '''############,,,                           
         ,,##''                                '''############,,,,        ,,,,,,###''
      ,#''                                            '''#######################'''  
     '                                                          ''''####''''         
             ,#######,   #######,   ,#######,      ##                                
            ,#'     '#,  ##    ##  ,#'     '#,    #''#        ,####,   ,####,        
            ##       ##  ##   ,#'  ##            #'  '#       #'       #'  '#        
            ##       ##  #######   ##           ,######,      #####,   #    #        
            '#,     ,#'  ##    ##  '#,     ,#' ,#      #,     #,   #   #,  ,#        
             '#######'   ##     ##  '#######'  #'      '#     '####' # '####'        



                #########################################################
                #                        -***-                          #
                #          Department of theory and spectroscopy        #
                #                                                       #
                #                      Frank Neese                      #
                #                                                       #
                #     Directorship, Architecture, Infrastructure        #
                #                    SHARK, DRIVERS                     #
                #        Core code/Algorithms in most modules           #
                #                                                       #
                #        Max Planck Institute fuer Kohlenforschung      #
                #                Kaiser Wilhelm Platz 1                 #
                #                 D-45470 Muelheim/Ruhr                 #
                #                      Germany                          #
                #                                                       #
                #                  All rights reserved                  #
                #                        -***-                          #
                #########################################################


                         Program Version 6.0.1  -  RELEASE   -


 With contributions from (in alphabetic order):
[Max-Planck-Institut fuer Kohlenforschung]                               
  Daniel Aravena         : Magnetic Suceptibility                        
  Michael Atanasov       : Ab Initio Ligand Field Theory (pilot matlab implementation)
  Alexander A. Auer      : GIAO ZORA, VPT2 properties, NMR spectrum      
  Ute Becker             : All parallelization in ORCA, NUMFREQ, NUMCALC 
  Giovanni Bistoni       : ED, misc. LED, open-shell LED, HFLD           
  Martin Brehm           : Molecular dynamics                            
  Dmytro Bykov           : pre 5.0 version of the SCF Hessian            
  Marcos Casanova-Páez   : Triplet and SCS-CIS(D). UHF-(DLPNO)-IP/EA/STEOM-CCSD. UHF-CVS-IP/STEOM-CCSD   
  Vijay G. Chilkuri      : MRCI spin determinant printing, contributions to CSF-ICE 
  Pauline Colinet        : FMM embedding                                 
  Dipayan Datta          : RHF DLPNO-CCSD density                        
  Achintya Kumar Dutta   : EOM-CC, STEOM-CC                              
  Nicolas Foglia         : Exact transition moments, OPA infrastructure, MCD improvements    
  Dmitry Ganyushin       : Spin-Orbit,Spin-Spin,Magnetic field MRCI      
  Miquel Garcia-Rates    : C-PCM and meta-GGA Hessian, CCSD/C-PCM, Gaussian charge scheme 
  Tiago L. C. Gouveia    : GS-ROHF, GS-ROCIS                             
  Yang Guo               : DLPNO-NEVPT2, F12-NEVPT2, CIM, IAO-localization        
  Andreas Hansen         : Spin unrestricted coupled pair/coupled cluster methods 
  Ingolf Harden          : AUTO-CI MPn and infrastructure                
  Benjamin Helmich-Paris : MC-RPA, TRAH-(SCF,CASSCF), AVAS, COSX integrals, SCF dyn. polar. 
  Lee Huntington         : MR-EOM, pCC                                   
  Robert Izsak           : Overlap fitted RIJCOSX, COSX-SCS-MP3, EOM     
  Riya Kayal             : Wick's Theorem for AUTO-CI, AUTO-CI UHF-CCSDT 
  Emily Kempfer          : AUTO-CI, RHF CISDT and CCSDT                  
  Christian Kollmar      : KDIIS, OOCD, Brueckner-CCSD(T), CCSD density, CASPT2, CASPT2-K, improved NEVPT2 
  Axel Koslowski         : Symmetry handling                             
  Simone Kossmann        : meta-GGA functionals, TD-DFT gradient, OOMP2, (MP2 Hessian; deprecated post 5.0) 
  Lucas Lang             : DCDCAS                                        
  Marvin Lechner         : AUTO-CI (C++ implementation), FIC-MRCC        
  Spencer Leger          : CASSCF response                               
  Dagmar Lenk            : GEPOL surface, SMD, ORCA-2-JSON               
  Dimitrios Liakos       : Extrapolation schemes; Compound Job, initial MDCI parallelization 
  Dimitrios Manganas     : Further ROCIS development; embedding schemes. LFT, Crystal Embedding 
  Dimitrios Pantazis     : SARC Basis sets                               
  Anastasios Papadopoulos: AUTO-CI, single reference methods and gradients 
  Taras Petrenko         : pre 6.0 DFT Hessian and TD-DFT gradient, (ASA, deprecated), ECA, 1-Electron XAS/XES, NRVS 
  Peter Pinski           : DLPNO-MP2, DLPNO-MP2 Gradient                 
  Christoph Reimann      : Effective Core Potentials                     
  Marius Retegan         : Local ZFS, SOC                                
  Christoph Riplinger    : Optimizer, TS searches, QM/MM, DLPNO-CCSD(T), (RO)-DLPNO pert. Triples 
  Michael Roemelt        : Original ROCIS implementation                 
  Masaaki Saitow         : Open-shell DLPNO-CCSD energy and density      
  Barbara Sandhoefer     : DKH picture change effects                    
  Kantharuban Sivalingam : CASSCF convergence/infrastructure, NEVPT2 and variants, FIC-MRCI 
  Bernardo de Souza      : ESD, SOC TD-DFT                               
  Georgi L. Stoychev     : AutoAux, RI-MP2 NMR, DLPNO-MP2 response, X2C  
  Van Anh Tran           : RI-MP2 g-tensors                              
  Willem Van den Heuvel  : Paramagnetic NMR                              
  Zikuan Wang            : NOTCH, Electric field optimization            
  Frank Wennmohs         : Technical directorship and infrastructure     
  Hang Xu                : AUTO-CI-Response properties                   
                                                                         
[FACCTs GmbH]                                                            
  Markus Bursch, Miquel Garcia-Rates, Christoph Riplinger, Bernardo de Souza, Georgi L. Stoychev 
                                                                 
  APM, Basis sets (HGBS, AHGBS, def-TZVP (Ac-Lr), def2-XVPD (La-Lu)), CI-OPT, improved COSX, DLPNO-Multilevel,           
  DOCKER, DRACO, updates on ESD, GOAT, IRC, LR-CPCM, MBIS, meta-GGA TD-DFT gradient, ML-optimized integration grids, 
  MM, NACMEs, nearIR, NEB, NEB-TS, NL-DFT gradient (VV10), 2- and 3-layer-ONIOM, interface openCOSMO-RS, QMMM,   
  Crystal-QMMM, SF, symmetry and pop. for TD-DFT, r2SCAN hybrids, SOLVATOR                                   
                                                                         
[Other institutions]                                                     
  V. Asgeirsson          : NEB                                           
  Christoph Bannwarth    : sTDA-DFT, sTD-DFT, PBEh-3c, B97-3c, D3        
  Sebastian Ehlert       : rSCAN, r2SCAN, r2SCAN-3c, D4, dhf basis sets  
  Marvin Friede          : D4 for Fr, Ra, Ac-Lr                          
  Lars Goerigk           : TD-DFT with DH, B97 family of functionals     
  Stefan Grimme          : VdW corrections, initial TS optimization, DFT functionals, gCP, sTDA/sTD-DF 
  Waldemar Hujo          : DFT-NL                                        
  H. Jonsson             : NEB                                           
  Holger Kruse           : gCP                                           
  Marcel Mueller         : wB97X-3c, vDZP basis set                      
  Hagen Neugebauer       : wr2SCAN                                       
  Tobias Risthaus        : range-separated hybrid DFT                    
  Lukas Wittmann         : regularized MP2, r2SCAN double-hybrids, wr2SCAN        
                                                                         
We gratefully acknowledge several colleagues who have allowed us to      
interface, adapt or use parts of their codes:                            
  Ed Valeev, F. Pavosevic, A. Kumar             : LibInt (2-el integral package), F12 methods 
  Garnet Chan, S. Sharma, J. Yang, R. Olivares  : DMRG                   
  Ulf Ekstrom                                   : XCFun DFT Library      
  Mihaly Kallay                                 : mrcc  (arbitrary order and MRCC methods)
  Frank Weinhold                                : gennbo (NPA and NBO analysis)           
  Simon Mueller                                 : openCOSMO-RS                            
  Christopher J. Cramer and Donald G. Truhlar   : smd solvation model                     
  S Lehtola, MJT Oliveira, MAL Marques          : LibXC Library                           
  Liviu Ungur et al                             : ANISO software                          


 Your calculation uses the libint2 library for the computation of 2-el integrals
 For citations please refer to: http://libint.valeyev.net

 Your ORCA version has been built with support for libXC version: 6.2.2
 For citations please refer to: https://libxc.gitlab.io

 This ORCA versions uses:
   CBLAS   interface :  Fast vector & matrix operations
   LAPACKE interface :  Fast linear algebra routines
   SCALAPACK package :  Parallel linear algebra routines
   Shared memory     :  Shared parallel matrices
   BLAS/LAPACK       :  OpenBLAS 0.3.27  USE64BITINT DYNAMIC_ARCH NO_AFFINITY Zen SINGLE_THREADED
        Core in use  :  Zen
   Copyright (c) 2011-2014, The OpenBLAS Project


Your calculation utilizes the geometrical counterpoise correction gCP
Please cite in your paper:
H.Kruse, S. Grimme J.Chem.Phys., 136, (2012), 154101 
   

Your calculation utilizes the DFT-NL dispersion correction.
Cite in your paper:
Vydrov, O. A.; Van Voorhis, T. J. Chem. Phys. 2010, 133, 244103
Hujo, W.; Grimme, S. J. Chem. Theory Comput. 2011, 7, 3866 
   

================================================================================

----- Orbital basis set information -----
Your calculation utilizes the basis: def2-TZVP
   F. Weigend and R. Ahlrichs, Phys. Chem. Chem. Phys. 7, 3297 (2005).

----- AuxJ basis set information -----
Your calculation utilizes the auxiliary basis: def2/J
   F. Weigend, Phys. Chem. Chem. Phys. 8, 1057 (2006).

================================================================================
                                        WARNINGS
                       Please study these warnings very carefully!
================================================================================

WARNING: Old DensityContainer found on disk!
         Will remove this file - 
         If you want to keep old densities, please start your calculation with a different basename. 


================================================================================
                                       INPUT FILE
================================================================================
NAME = sp.inp
|  1> ! wb97x-v def2-tzvp def2/J RIJCOSX DEFGRID2 scfconv7 GCP(DFT/TZ) printgap
|  2> %output
|  3>     printlevel normal
|  4> end
|  5> * xyz 0 1
|  6> C 1.4048465316038226 0.0007275328338157546 -0.005015871794810263
|  7> N -0.10108237745743269 1.2080689033427594e-05 -0.008395698697675683
|  8> O -0.6549192297153376 -1.0879830513283035 0.0053569877794844055
|  9> O -0.6560437588691242 1.08714395922366 0.0053414297207562515
| 10> H 1.7112970879061324 0.0018492013682794293 1.0436711756139467
| 11> H 1.7471262725996215 0.9085274002772389 -0.4992111003918343
| 12> H 1.7481220952214653 -0.9075650651301131 -0.49765999085222856
| 13> *
| 14> 
| 15>                          ****END OF INPUT****
================================================================================

                       ****************************
                       * Single Point Calculation *
                       ****************************

---------------------------------
CARTESIAN COORDINATES (ANGSTROEM)
---------------------------------
  C      1.404847    0.000728   -0.005016
  N     -0.101082    0.000012   -0.008396
  O     -0.654919   -1.087983    0.005357
  O     -0.656044    1.087144    0.005341
  H      1.711297    0.001849    1.043671
  H      1.747126    0.908527   -0.499211
  H      1.748122   -0.907565   -0.497660

----------------------------
CARTESIAN COORDINATES (A.U.)
----------------------------
  NO LB      ZA    FRAG     MASS         X           Y           Z
   0 C     6.0000    0    12.011    2.654775    0.001375   -0.009479
   1 N     7.0000    0    14.007   -0.191018    0.000023   -0.015866
   2 O     8.0000    0    15.999   -1.237618   -2.055990    0.010123
   3 O     8.0000    0    15.999   -1.239743    2.054404    0.010094
   4 H     1.0000    0     1.008    3.233883    0.003494    1.972253
   5 H     1.0000    0     1.008    3.301590    1.716868   -0.943372
   6 H     1.0000    0     1.008    3.303472   -1.715049   -0.940441

--------------------------------
INTERNAL COORDINATES (ANGSTROEM)
--------------------------------
 C      0   0   0     0.000000000000     0.00000000     0.00000000
 N      1   0   0     1.505932871760     0.00000000     0.00000000
 O      2   1   0     1.220924978284   117.00174244     0.00000000
 O      2   1   3     1.220666442924   117.01273015   178.42076427
 H      1   2   3     1.092546440661   106.41819063   270.73653631
 H      1   2   3     1.088799772407   108.28481775   152.18487339
 H      1   2   3     1.088821281999   108.29200850    29.29775156

---------------------------
INTERNAL COORDINATES (A.U.)
---------------------------
 C      0   0   0     0.000000000000     0.00000000     0.00000000
 N      1   0   0     2.845800703696     0.00000000     0.00000000
 O      2   1   0     2.307213839020   117.00174244     0.00000000
 O      2   1   3     2.306725277995   117.01273015   178.42076427
 H      1   2   3     2.064613561440   106.41819063   270.73653631
 H      1   2   3     2.057533384526   108.28481775   152.18487339
 H      1   2   3     2.057574031764   108.29200850    29.29775156

---------------------
BASIS SET INFORMATION
---------------------
There are 4 groups of distinct atoms

 Group   1 Type C   : 11s6p2d1f contracted to 5s3p2d1f pattern {62111/411/11/1}
 Group   2 Type N   : 11s6p2d1f contracted to 5s3p2d1f pattern {62111/411/11/1}
 Group   3 Type O   : 11s6p2d1f contracted to 5s3p2d1f pattern {62111/411/11/1}
 Group   4 Type H   : 5s1p contracted to 3s1p pattern {311/1}

Atom   0C    basis set group =>   1
Atom   1N    basis set group =>   2
Atom   2O    basis set group =>   3
Atom   3O    basis set group =>   3
Atom   4H    basis set group =>   4
Atom   5H    basis set group =>   4
Atom   6H    basis set group =>   4
---------------------------------
AUXILIARY/J BASIS SET INFORMATION
---------------------------------
There are 4 groups of distinct atoms

 Group   1 Type C   : 12s5p4d2f1g contracted to 6s4p3d1f1g pattern {711111/2111/211/2/1}
 Group   2 Type N   : 12s5p4d2f1g contracted to 6s4p3d1f1g pattern {711111/2111/211/2/1}
 Group   3 Type O   : 12s5p4d2f1g contracted to 6s4p3d1f1g pattern {711111/2111/211/2/1}
 Group   4 Type H   : 5s2p1d contracted to 3s1p1d pattern {311/2/1}

Atom   0C    basis set group =>   1
Atom   1N    basis set group =>   2
Atom   2O    basis set group =>   3
Atom   3O    basis set group =>   3
Atom   4H    basis set group =>   4
Atom   5H    basis set group =>   4
Atom   6H    basis set group =>   4

Checking for AutoStart:
The File: sp.gbw exists
Trying to determine its content:
     ... Fine, the file contains calculation information
     ... Fine, the calculation information was read
     ... Fine, the file contains a basis set
     ... Fine, the basis set was read
     ... Fine, the file contains a geometry
     ... Fine, the geometry was read
     ... Fine, the file contains a set of orbitals
     ... Fine, the orbitals can be read
     => possible old guess file was deleted
     => GBW file was renamed to GES file
     => GES file is set as startup file
     => Guess is set to MORead
     ... now leaving AutoStart

------------------------------------------------------------------------------
                             ORCA STARTUP CALCULATIONS
                           -- RI-GTO INTEGRALS CHOSEN --
------------------------------------------------------------------------------
------------------------------------------------------------------------------
                   ___                                                        
                  /   \      - P O W E R E D   B Y -                         
                 /     \                                                     
                 |  |  |   _    _      __       _____    __    __             
                 |  |  |  | |  | |    /  \     |  _  \  |  |  /  |          
                  \  \/   | |  | |   /    \    | | | |  |  | /  /          
                 / \  \   | |__| |  /  /\  \   | |_| |  |  |/  /          
                |  |  |   |  __  | /  /__\  \  |    /   |      \           
                |  |  |   | |  | | |   __   |  |    \   |  |\   \          
                \     /   | |  | | |  |  |  |  | |\  \  |  | \   \       
                 \___/    |_|  |_| |__|  |__|  |_| \__\ |__|  \__/        
                                                                              
                      - O R C A' S   B I G   F R I E N D -                    
                                      &                                       
                       - I N T E G R A L  F E E D E R -                       
                                                                              
 v1 FN, 2020, v2 2021, v3 2022-2024                                           
------------------------------------------------------------------------------


----------------------
SHARK INTEGRAL PACKAGE
----------------------

Number of atoms                             ...      7
Number of basis functions                   ...    142
Number of shells                            ...     56
Maximum angular momentum                    ...      3
Integral batch strategy                     ... SHARK/LIBINT Hybrid
RI-J (if used) integral strategy            ... SPLIT-RIJ (Revised 2003 algorithm where possible)
Printlevel                                  ...      1
Contraction scheme used                     ... SEGMENTED contraction
Prescreening option                         ... SCHWARTZ
   Thresh                                   ... 3.000e-11
   Tcut                                     ... 1.000e-12
   Tpresel                                  ... 1.000e-12 
Coulomb Range Separation                    ... NOT USED
Exchange Range Separation                   ... Long Range
   Mu parameter                             ... 3.000e-01
   Scaling (regular/separated)              ... 1.670e-01 8.330e-01
Multipole approximations                    ... NOT USED
Finite Nucleus Model                        ... NOT USED
CABS basis                                  ... NOT available
Auxiliary Coulomb fitting basis             ... AVAILABLE
   # of basis functions in Aux-J            ...    229
   # of shells in Aux-J                     ...     75
   Maximum angular momentum in Aux-J        ...      4
Auxiliary J/K fitting basis                 ... NOT available
Auxiliary Correlation fitting basis         ... NOT available
Auxiliary 'external' fitting basis          ... NOT available

Checking pre-screening integrals            ... done (  0.0 sec) Dimension = 56
Check shell pair data                       ... done (  0.0 sec)
Shell pair information
Shell pair cut-off parameter TPreSel        ...   1.0e-12
Total number of shell pairs                 ...      1596
Shell pairs after pre-screening             ...      1571
Total number of primitive shell pairs       ...      4948
Primitive shell pairs kept                  ...      4019
          la=0 lb=0:    414 shell pairs
          la=1 lb=0:    435 shell pairs
          la=1 lb=1:    120 shell pairs
          la=2 lb=0:    228 shell pairs
          la=2 lb=1:    120 shell pairs
          la=2 lb=2:     36 shell pairs
          la=3 lb=0:    116 shell pairs
          la=3 lb=1:     60 shell pairs
          la=3 lb=2:     32 shell pairs
          la=3 lb=3:     10 shell pairs

Calculating one electron integrals          ... done (  0.0 sec)
Calculating RI/J V-Matrix + Cholesky decomp.... done (  0.0 sec)
Calculating Nuclear repulsion               ... done (  0.0 sec) ENN=    124.704944339153 Eh

Diagonalization of the overlap matrix:
Smallest eigenvalue                        ... 9.015e-04
Time for diagonalization                   ...    0.001 sec
Threshold for overlap eigenvalues          ... 1.000e-07
Number of eigenvalues below threshold      ... 0
Time for construction of square roots      ...    0.000 sec
Total time needed                          ...    0.002 sec

-------------------
DFT GRID GENERATION
-------------------

General Integration Accuracy     IntAcc      ... 4.388
Radial Grid Type                 RadialGrid  ... OptM3 with GC (2021)
Angular Grid (max. ang.)         AngularGrid ... 4 (Lebedev-302)
Angular grid pruning method      GridPruning ... 4 (adaptive)
Weight generation scheme         WeightScheme... mBecke (2022)
Basis function cutoff            BFCut       ... 1.0000e-11
Integration weight cutoff        WCut        ... 1.0000e-14
Partially contracted basis set               ... off
Rotationally invariant grid construction     ... off
Angular grids for H and He will be reduced by one unit

Total number of grid points                  ...    34173
Total number of batches                      ...      537
Average number of points per batch           ...       63
Average number of grid points per atom       ...     4882

--------------------
COSX GRID GENERATION
--------------------

GRIDX 1
-------
General Integration Accuracy     IntAcc      ... 3.816
Radial Grid Type                 RadialGrid  ... OptM3 with GC (2021)
Angular Grid (max. ang.)         AngularGrid ... 1 (Lebedev-50)
Angular grid pruning method      GridPruning ... 4 (adaptive)
Weight generation scheme         WeightScheme... mBecke (2022)
Basis function cutoff            BFCut       ... 1.0000e-11
Integration weight cutoff        WCut        ... 1.0000e-14
Partially contracted basis set               ... on
Rotationally invariant grid construction     ... off
Angular grids for H and He will be reduced by one unit

Total number of grid points                  ...     4368
Total number of batches                      ...       39
Average number of points per batch           ...      112
Average number of grid points per atom       ...      624
UseSFitting                                  ... on

GRIDX 2
-------
General Integration Accuracy     IntAcc      ... 4.020
Radial Grid Type                 RadialGrid  ... OptM3 with GC (2021)
Angular Grid (max. ang.)         AngularGrid ... 2 (Lebedev-110)
Angular grid pruning method      GridPruning ... 4 (adaptive)
Weight generation scheme         WeightScheme... mBecke (2022)
Basis function cutoff            BFCut       ... 1.0000e-11
Integration weight cutoff        WCut        ... 1.0000e-14
Partially contracted basis set               ... on
Rotationally invariant grid construction     ... off
Angular grids for H and He will be reduced by one unit

Total number of grid points                  ...     9776
Total number of batches                      ...       79
Average number of points per batch           ...      123
Average number of grid points per atom       ...     1397
UseSFitting                                  ... on

GRIDX 3
-------
General Integration Accuracy     IntAcc      ... 4.338
Radial Grid Type                 RadialGrid  ... OptM3 with GC (2021)
Angular Grid (max. ang.)         AngularGrid ... 3 (Lebedev-194)
Angular grid pruning method      GridPruning ... 4 (adaptive)
Weight generation scheme         WeightScheme... mBecke (2022)
Basis function cutoff            BFCut       ... 1.0000e-11
Integration weight cutoff        WCut        ... 1.0000e-14
Partially contracted basis set               ... on
Rotationally invariant grid construction     ... off
Angular grids for H and He will be reduced by one unit

Total number of grid points                  ...    21652
Total number of batches                      ...      172
Average number of points per batch           ...      125
Average number of grid points per atom       ...     3093
UseSFitting                                  ... on
Initializing property integral containers    ... done (  0.0 sec)

SHARK setup successfully completed in   0.3 seconds

Maximum memory used throughout the entire STARTUP-calculation: 18.5 MB
-------------------------------------------------------------------------------
                                 ORCA GUESS
                   Start orbitals & Density for SCF / CASSCF
-------------------------------------------------------------------------------

------------
SCF SETTINGS
------------
Hamiltonian:
 Density Functional     Method          .... DFT(GTOs)
 Exchange Functional    Exchange        .... WB97X-V
 Correlation Functional Correlation     .... WB97X-V
 Gradients option       PostSCFGGA      .... off
 Hybrid DFT is turned on
   Fraction HF Exchange ScalHFX         ....  0.167000
   Scaling of DF-GGA-X  ScalDFX         ....  0.000000
   Scaling of DF-GGA-C  ScalDFC         ....  1.000000
   Scaling of DF-LDA-C  ScalLDAC        ....  1.000000
   Perturbative correction              ....  0.000000
 Long-range corrected/Screened/Range-Separated Hybrid DFT is turned on
   Amount of maximum screened exact exchange              ....  0.833000
   Range separation parameter mu (erf(mu*r12)/r12)        ....  0.300000
   NL short-range parameter             ....  6.000000
   NL long-range parameter              ....  0.010000
 RI-approximation to the Coulomb term is turned on
   Number of AuxJ basis functions       .... 229
   RIJ-COSX (HFX calculated with COS-X)).... on


General Settings:
 Integral files         IntName         .... sp
 Hartree-Fock type      HFTyp           .... RHF
 Total Charge           Charge          ....    0
 Multiplicity           Mult            ....    1
 Number of Electrons    NEL             ....   32
 Basis Dimension        Dim             ....  142
 Nuclear Repulsion      ENuc            ....    124.7049443392 Eh

Convergence Acceleration:
 AO-DIIS                CNVDIIS         .... on
   Start iteration      DIISMaxIt       ....    12
   Startup error        DIISStart       ....  0.200000
   # of expansion vecs  DIISMaxEq       ....     5
   Bias factor          DIISBfac        ....   1.050
   Max. coefficient     DIISMaxC        ....  10.000
 MO-DIIS                CNVKDIIS        .... off
 Trust-Rad. Augm. Hess. CNVTRAH         .... auto
   Auto Start mean grad. ratio tolernc. ....  1.125000
   Auto Start start iteration           ....     1
   Auto Start num. interpolation iter.  ....    10
   Max. Number of Micro iterations      ....    24
   Max. Number of Macro iterations      .... Maxiter - #DIIS iter
   Number of Davidson start vectors     ....     2
   Converg. threshold    (grad. norm)   ....   1.000e-04
   Grad. Scal. Fac. for Micro threshold ....   0.100
   Minimum threshold for Micro iter.    ....   1.000e-02
   NR start threshold (gradient norm)   ....   1.000e-04
   Initial trust radius                 ....   0.400
   Minimum AH scaling param. (alpha)    ....   1.000
   Maximum AH scaling param. (alpha)    .... 1000.000
   Quad. conv. algorithm                .... NR
   White noise on init. David. guess    .... on
   Maximum white noise                  ....   0.010
   Pseudo random numbers                .... off
   Inactive MOs                         .... canonical
   Orbital update algorithm             .... Taylor
   Preconditioner                       .... Diag
   Full preconditioner red. dimension   ....   250
 SOSCF                  CNVSOSCF        .... on
   Start iteration      SOSCFMaxIt      ....   150
   Startup grad/error   SOSCFStart      ....  0.003300
   Hessian update       SOSCFHessUp     .... L-BFGS
 Level Shifting         CNVShift        .... on
   Level shift para.    LevelShift      ....    0.2500
   Turn off err/grad.   ShiftErr        ....    0.0010
 Zerner damping         CNVZerner       .... off
 Static damping         CNVDamp         .... on
   Fraction old density DampFac         ....    0.7000
   Max. Damping (<1)    DampMax         ....    0.9800
   Min. Damping (>=0)   DampMin         ....    0.0000
   Turn off err/grad.   DampErr         ....    0.1000

SCF Procedure:
 Maximum # iterations   MaxIter         ....   125
 SCF integral mode      SCFMode         .... Direct
   Integral package                     .... SHARK and LIBINT hybrid scheme
 Reset frequency        DirectResetFreq ....    20
 Integral Threshold     Thresh          ....  3.000e-11 Eh
 Primitive CutOff       TCut            ....  1.000e-12 Eh

Convergence Tolerance:
 Convergence Check Mode ConvCheckMode   .... Total+1el-Energy
 Convergence forced     ConvForced      .... 0
 Energy Change          TolE            ....  1.000e-07 Eh
 1-El. energy change                    ....  1.000e-04 Eh
 Orbital Gradient       TolG            ....  1.000e-04
 Orbital Rotation angle TolX            ....  1.000e-04
 DIIS Error             TolErr          ....  1.000e-07

---------------------
INITIAL GUESS: MOREAD
---------------------
Guess MOs are being read from file: sp.ges
Input Geometry matches current geometry (good)
Atom 0: N(Shells)= 11 and 9 - projection required
Input basis set needs projection
NBasis(read)= 106
NBasis(calc)= 142
Basis set overlap was calculated
Using GuessMode=FMatrix for the initial guess
C*T matrix was formed
Effective Fockian was calculated
Effective Fockian was diagonalized
Initial density was built
                      ------------------
                      INITIAL GUESS DONE (   0.0 sec)
                      ------------------
             **** ENERGY FILE WAS UPDATED (sp.en.tmp) ****
Finished Guess after   0.0 sec
Maximum memory used throughout the entire GUESS-calculation: 11.8 MB

-------------------------------------------------------------------------------------------
                                      ORCA LEAN-SCF
                              memory conserving SCF solver
-------------------------------------------------------------------------------------------

----------------------------------------D-I-I-S--------------------------------------------
Iteration    Energy (Eh)           Delta-E    RMSDP     MaxDP     DIISErr   Damp  Time(sec)
-------------------------------------------------------------------------------------------
               ***  Starting incremental Fock matrix formation  ***
    1    -245.1502220377847152     0.00e+00  7.92e-04  1.15e-02  7.24e-02  0.700   1.6
    2    -245.1542518638686943    -4.03e-03  6.62e-04  9.97e-03  5.32e-02  0.700   0.8
                               ***Turning on AO-DIIS***
    3    -245.1572330187608486    -2.98e-03  5.42e-04  8.33e-03  3.84e-02  0.700   0.8
    4    -245.1594008549351429    -2.17e-03  1.35e-03  2.08e-02  2.72e-02  0.000   0.8
                              *** Initializing SOSCF ***
---------------------------------------S-O-S-C-F--------------------------------------
Iteration    Energy (Eh)           Delta-E    RMSDP     MaxDP     MaxGrad    Time(sec)
--------------------------------------------------------------------------------------
    5    -245.1648263821744536    -5.43e-03  6.95e-05  1.06e-03  1.22e-03     0.8
               *** Restarting incremental Fock matrix formation ***
    6    -245.1648400450266649    -1.37e-05  4.05e-05  7.37e-04  5.18e-04     1.6
    7    -245.1648443712938388    -4.33e-06  2.06e-05  3.87e-04  2.24e-04     1.3
    8    -245.1648449469337834    -5.76e-07  3.71e-06  7.18e-05  9.27e-05     1.3
    9    -245.1648449557650906    -8.83e-09  2.31e-06  3.95e-05  5.93e-05     1.2
                 **** Energy Check signals convergence ****

               *****************************************************
               *                     SUCCESS                       *
               *           SCF CONVERGED AFTER   9 CYCLES          *
               *****************************************************


------------------
NL GRID GENERATION
------------------

General Integration Accuracy     IntAcc      ... 4.004
Radial Grid Type                 RadialGrid  ... OptM3 with GC (2021)
Angular Grid (max. ang.)         AngularGrid ... 2 (Lebedev-110)
Angular grid pruning method      GridPruning ... 4 (adaptive)
Weight generation scheme         WeightScheme... mBecke (2022)
Basis function cutoff            BFCut       ... 1.0000e-10
Integration weight cutoff        WCut        ... 1.0000e-14
Partially contracted basis set               ... off
Rotationally invariant grid construction     ... off
Angular grids for H and He will be reduced by one unit

Total number of grid points                  ...    11076
Total number of batches                      ...      176
Average number of points per batch           ...       62
Average number of grid points per atom       ...     1582
Final grid set up in    0.0 sec

-------------------------------------------------------------------------------
                    post-SCF DFT-NL dispersion correction                      
-------------------------------------------------------------------------------

SCF Energy:     -245.164844956 
NL    Energy:      0.128810754 
SC+NL Energy:   -245.036034202 
NL done in  :              0.4 sec
-------------------------------------------------------------------------------
Recomputing exchange energy using gridx3       ... done (    2.656 sec)
Old exchange energy                            :     -9.090355941 Eh
New exchange energy                            :     -9.090352262 Eh
Exchange energy change after final integration :      0.000003678 Eh
Total energy after final integration           :   -245.036030524 Eh
             **** ENERGY FILE WAS UPDATED (sp.en.tmp) ****

----------------
TOTAL SCF ENERGY
----------------

Total Energy       :       -245.03603052367271 Eh           -6667.76937 eV

Components:
Nuclear Repulsion  :        124.70494433915331 Eh            3393.39405 eV
Electronic Energy  :       -369.86978929491841 Eh          -10064.66864 eV
One Electron Energy:       -580.84158420474967 Eh          -15805.50304 eV
Two Electron Energy:        210.97179490983123 Eh            5740.83440 eV

Virial components:
Potential Energy   :       -489.22998466818444 Eh          -13312.62468 eV
Kinetic Energy     :        244.19395414451171 Eh            6644.85531 eV
Virial Ratio       :          2.00344839159557

DFT components:
N(Alpha)           :       16.000009945375 electrons
N(Beta)            :       16.000009945375 electrons
N(Total)           :       32.000019890749 electrons
E(X)               :      -20.139632593337 Eh       
E(C)               :       -1.373690955591 Eh       
NL Energy, E(C,NL) :        0.128810753742 Eh       
E(XC)              :      -21.384512795187 Eh       

---------------
SCF CONVERGENCE
---------------

  Last Energy change         ...    8.8313e-09  Tolerance :   1.0000e-07
  Last MAX-Density change    ...    3.9508e-05  Tolerance :   1.0000e-05
  Last RMS-Density change    ...    2.3147e-06  Tolerance :   1.0000e-06
  Last DIIS Error            ...    1.2163e-03  Tolerance :   1.0000e-07
  Last Orbital Gradient      ...    5.9251e-05  Tolerance :   1.0000e-04
  Last Orbital Rotation      ...    4.7174e-05  Tolerance :   1.0000e-04


----------------
ORBITAL ENERGIES
----------------

  NO   OCC          E(Eh)            E(eV) 
   0   2.0000     -19.256648      -524.0000 
   1   2.0000     -19.256571      -523.9979 
   2   2.0000     -14.662788      -398.9947 
   3   2.0000     -10.345637      -281.5191 
   4   2.0000      -1.375482       -37.4288 
   5   2.0000      -1.198965       -32.6255 
   6   2.0000      -0.953762       -25.9532 
   7   2.0000      -0.754757       -20.5380 
   8   2.0000      -0.679175       -18.4813 
   9   2.0000      -0.666351       -18.1323 
  10   2.0000      -0.645293       -17.5593 
  11   2.0000      -0.570100       -15.5132 
  12   2.0000      -0.550301       -14.9744 
  13   2.0000      -0.427861       -11.6427 
  14   2.0000      -0.425928       -11.5901 
  15   2.0000      -0.416368       -11.3299 
  16   0.0000       0.014774         0.4020 
  17   0.0000       0.111547         3.0353 
  18   0.0000       0.151513         4.1229 
  19   0.0000       0.170616         4.6427 
  20   0.0000       0.177700         4.8355 
  21   0.0000       0.246407         6.7051 
  22   0.0000       0.269600         7.3362 
  23   0.0000       0.270399         7.3579 
  24   0.0000       0.347791         9.4639 
  25   0.0000       0.399121        10.8606 
  26   0.0000       0.408505        11.1160 
*Only the first 10 virtual orbitals were printed.

                    ********************************
                    * MULLIKEN POPULATION ANALYSIS *
                    ********************************

-----------------------
MULLIKEN ATOMIC CHARGES
-----------------------
   0 C :   -0.269038
   1 N :    0.396154
   2 O :   -0.299406
   3 O :   -0.299215
   4 H :    0.154402
   5 H :    0.158538
   6 H :    0.158566
Sum of atomic charges:   -0.0000000

--------------------------------
MULLIKEN REDUCED ORBITAL CHARGES
--------------------------------
  0 C s       :     3.265216  s :     3.265216
      pz      :     1.095694  p :     2.941866
      px      :     0.739040
      py      :     1.107132
      dz2     :     0.010100  d :     0.057471
      dxz     :     0.010173
      dyz     :     0.007198
      dx2y2   :     0.016828
      dxy     :     0.013172
      f0      :     0.000892  f :     0.004485
      f+1     :     0.000608
      f-1     :     0.000078
      f+2     :     0.000792
      f-2     :    -0.000089
      f+3     :     0.001311
      f-3     :     0.000894

  1 N s       :     3.311192  s :     3.311192
      pz      :     1.079709  p :     3.025021
      px      :     1.067437
      py      :     0.877874
      dz2     :     0.004587  d :     0.253461
      dxz     :     0.015292
      dyz     :     0.072452
      dx2y2   :     0.098017
      dxy     :     0.063113
      f0      :     0.001456  f :     0.014173
      f+1     :     0.000714
      f-1     :     0.001053
      f+2     :     0.000945
      f-2     :     0.002243
      f+3     :     0.001901
      f-3     :     0.005860

  2 O s       :     3.863602  s :     3.863602
      pz      :     1.405561  p :     4.388521
      px      :     1.712129
      py      :     1.270830
      dz2     :     0.005140  d :     0.043872
      dxz     :     0.003211
      dyz     :     0.010176
      dx2y2   :     0.011145
      dxy     :     0.014201
      f0      :     0.000298  f :     0.003411
      f+1     :     0.000121
      f-1     :     0.000405
      f+2     :     0.000239
      f-2     :     0.000449
      f+3     :     0.001140
      f-3     :     0.000759

  3 O s       :     3.863522  s :     3.863522
      pz      :     1.405363  p :     4.388382
      px      :     1.711404
      py      :     1.271615
      dz2     :     0.005141  d :     0.043897
      dxz     :     0.003226
      dyz     :     0.010172
      dx2y2   :     0.011135
      dxy     :     0.014224
      f0      :     0.000299  f :     0.003414
      f+1     :     0.000121
      f-1     :     0.000404
      f+2     :     0.000238
      f-2     :     0.000451
      f+3     :     0.001140
      f-3     :     0.000760

  4 H s       :     0.823994  s :     0.823994
      pz      :     0.012945  p :     0.021604
      px      :     0.004450
      py      :     0.004209

  5 H s       :     0.820317  s :     0.820317
      pz      :     0.005996  p :     0.021145
      px      :     0.004179
      py      :     0.010970

  6 H s       :     0.820290  s :     0.820290
      pz      :     0.005983  p :     0.021144
      px      :     0.004184
      py      :     0.010978


------------------------
MULLIKEN OVERLAP CHARGES
------------------------
B(  0-C ,  1-N ) :   0.6457 B(  0-C ,  2-O ) :  -0.1408 B(  0-C ,  3-O ) :  -0.1408 
B(  0-C ,  4-H ) :   0.7825 B(  0-C ,  5-H ) :   0.7956 B(  0-C ,  6-H ) :   0.7956 
B(  1-N ,  2-O ) :   0.8323 B(  1-N ,  3-O ) :   0.8323 B(  1-N ,  5-H ) :  -0.0624 
B(  1-N ,  6-H ) :  -0.0624 B(  2-O ,  3-O ) :  -0.2421 


                     *******************************
                     * LOEWDIN POPULATION ANALYSIS *
                     *******************************

----------------------
LOEWDIN ATOMIC CHARGES
----------------------
   0 C :   -0.241331
   1 N :   -0.073568
   2 O :   -0.034336
   3 O :   -0.033984
   4 H :    0.131704
   5 H :    0.125754
   6 H :    0.125762

-------------------------------
LOEWDIN REDUCED ORBITAL CHARGES
-------------------------------
  0 C s       :     2.870904  s :     2.870904
      pz      :     1.111611  p :     3.086317
      px      :     0.859299
      py      :     1.115406
      dz2     :     0.047548  d :     0.252443
      dxz     :     0.046199
      dyz     :     0.027865
      dx2y2   :     0.078025
      dxy     :     0.052807
      f0      :     0.004667  f :     0.031667
      f+1     :     0.005511
      f-1     :     0.000366
      f+2     :     0.004912
      f-2     :     0.002056
      f+3     :     0.008675
      f-3     :     0.005481

  1 N s       :     2.952770  s :     2.952770
      pz      :     1.003817  p :     3.288404
      px      :     1.164325
      py      :     1.120263
      dz2     :     0.041688  d :     0.760878
      dxz     :     0.041890
      dyz     :     0.169875
      dx2y2   :     0.288611
      dxy     :     0.218813
      f0      :     0.002576  f :     0.071516
      f+1     :     0.002617
      f-1     :     0.006633
      f+2     :     0.003831
      f-2     :     0.012620
      f+3     :     0.010393
      f-3     :     0.032846

  2 O s       :     3.503242  s :     3.503242
      pz      :     1.364005  p :     4.419940
      px      :     1.661922
      py      :     1.394013
      dz2     :     0.013302  d :     0.100138
      dxz     :     0.004686
      dyz     :     0.018283
      dx2y2   :     0.028135
      dxy     :     0.035732
      f0      :     0.000924  f :     0.011017
      f+1     :     0.000539
      f-1     :     0.001579
      f+2     :     0.000618
      f-2     :     0.001031
      f+3     :     0.003619
      f-3     :     0.002706

  3 O s       :     3.503025  s :     3.503025
      pz      :     1.363784  p :     4.419733
      px      :     1.661375
      py      :     1.394573
      dz2     :     0.013304  d :     0.100200
      dxz     :     0.004711
      dyz     :     0.018282
      dx2y2   :     0.028118
      dxy     :     0.035786
      f0      :     0.000925  f :     0.011028
      f+1     :     0.000541
      f-1     :     0.001579
      f+2     :     0.000615
      f-2     :     0.001036
      f+3     :     0.003621
      f-3     :     0.002709

  4 H s       :     0.804892  s :     0.804892
      pz      :     0.037454  p :     0.063403
      px      :     0.012466
      py      :     0.013483

  5 H s       :     0.810788  s :     0.810788
      pz      :     0.018794  p :     0.063458
      px      :     0.011999
      py      :     0.032665

  6 H s       :     0.810784  s :     0.810784
      pz      :     0.018758  p :     0.063455
      px      :     0.012013
      py      :     0.032684


---------------------------------
LOEWDIN BOND ORDERS (THRESH 0.050000)
---------------------------------
B(  0-C ,  1-N ) :   1.1520 B(  0-C ,  2-O ) :   0.1876 B(  0-C ,  3-O ) :   0.1876 
B(  0-C ,  4-H ) :   0.9161 B(  0-C ,  5-H ) :   0.9244 B(  0-C ,  6-H ) :   0.9244 
B(  1-N ,  2-O ) :   2.3309 B(  1-N ,  3-O ) :   2.3316 B(  1-N ,  4-H ) :   0.0601 
B(  1-N ,  5-H ) :   0.0555 B(  1-N ,  6-H ) :   0.0555 B(  2-O ,  3-O ) :   0.3671 


------------------------------------------
LOEWDIN REDUCED ORBITAL POPULATIONS PER MO
-------------------------------------------
THRESHOLD FOR PRINTING IS 0.1%%
                      0         1         2         3         4         5   
                 -19.25665 -19.25657 -14.66279 -10.34564  -1.37548  -1.19896
                   2.00000   2.00000   2.00000   2.00000   2.00000   2.00000
                  --------  --------  --------  --------  --------  --------
 0 C  s               0.0       0.0       0.0      99.5       1.9       0.0
 0 C  px              0.0       0.0       0.0       0.0       4.0       0.0
 0 C  py              0.0       0.0       0.0       0.0       0.0       0.6
 0 C  dz2             0.0       0.0       0.0       0.0       0.4       0.0
 0 C  dx2y2           0.0       0.0       0.1       0.0       1.0       0.0
 0 C  dxy             0.0       0.0       0.0       0.0       0.0       0.6
 1 N  s               0.0       0.0      99.4       0.0      34.2       0.0
 1 N  px              0.0       0.0       0.0       0.1       2.9       0.0
 1 N  py              0.1       0.0       0.0       0.0       0.0      36.9
 1 N  dz2             0.0       0.0       0.0       0.0       1.1       0.0
 1 N  dx2y2           0.0       0.0       0.0       0.0       0.9       0.0
 1 N  dxy             0.1       0.0       0.0       0.0       0.0       3.8
 1 N  f-1             0.0       0.0       0.0       0.0       0.0       0.3
 1 N  f+3             0.0       0.0       0.0       0.0       0.4       0.0
 2 O  s               2.5      97.3       0.0       0.0      18.4      26.1
 2 O  px              0.0       0.0       0.0       0.0       1.0       1.0
 2 O  py              0.0       0.0       0.1       0.0       5.7       1.5
 2 O  dz2             0.0       0.0       0.0       0.0       0.2       0.0
 2 O  dx2y2           0.0       0.0       0.0       0.0       0.4       0.0
 2 O  dxy             0.0       0.0       0.1       0.0       0.3       0.2
 3 O  s              97.3       2.5       0.0       0.0      18.5      26.0
 3 O  px              0.0       0.0       0.0       0.0       1.0       1.0
 3 O  py              0.0       0.0       0.1       0.0       5.7       1.5
 3 O  dz2             0.0       0.0       0.0       0.0       0.2       0.0
 3 O  dx2y2           0.0       0.0       0.0       0.0       0.4       0.0
 3 O  dxy             0.0       0.0       0.1       0.0       0.4       0.2
 4 H  s               0.0       0.0       0.0       0.1       0.3       0.0
 5 H  s               0.0       0.0       0.0       0.1       0.3       0.0
 6 H  s               0.0       0.0       0.0       0.1       0.3       0.0

                      6         7         8         9        10        11   
                  -0.95376  -0.75476  -0.67918  -0.66635  -0.64529  -0.57010
                   2.00000   2.00000   2.00000   2.00000   2.00000   2.00000
                  --------  --------  --------  --------  --------  --------
 0 C  s              30.0       9.5       0.0       1.8       0.0       0.0
 0 C  pz              0.0       0.0      12.9       0.0       0.0       0.0
 0 C  px              1.6      12.0       0.0      15.3       0.0       0.0
 0 C  py              0.0       0.0       0.0       0.0       7.7      45.3
 0 C  dz2             0.1       0.4       0.1       0.3       0.0       0.0
 0 C  dxz             0.0       0.0       0.7       0.0       0.0       0.0
 0 C  dyz             0.0       0.0       0.0       0.0       0.1       1.1
 0 C  dx2y2           0.3       1.6       0.0       0.5       0.0       0.0
 0 C  dxy             0.0       0.0       0.0       0.0       0.2       1.2
 0 C  f+1             0.1       0.0       0.0       0.0       0.0       0.0
 0 C  f+3             0.2       0.1       0.0       0.0       0.0       0.0
 0 C  f-3             0.0       0.0       0.0       0.0       0.1       0.1
 1 N  s               3.4       9.3       0.0       0.6       0.0       0.0
 1 N  pz              0.0       0.0      44.8       0.1       0.0       0.0
 1 N  px             27.9       1.9       0.0      21.2       0.0       0.0
 1 N  py              0.0       0.0       0.0       0.0      14.1       4.2
 1 N  dz2             0.0       0.8       0.0       0.2       0.0       0.0
 1 N  dx2y2           1.7       0.2       0.0       1.1       0.0       0.0
 1 N  dxy             0.0       0.0       0.0       0.0       1.6       1.5
 1 N  f0              0.0       0.0       0.1       0.0       0.0       0.0
 2 O  s               4.0      11.1       0.0       5.3       9.5       0.7
 2 O  pz              0.0       0.0      16.3       0.1       0.0       0.0
 2 O  px              1.9       3.4       0.0       1.4      12.1       0.3
 2 O  py              0.2       7.5       0.1      17.8      13.6       5.5
 2 O  dz2             0.0       0.2       0.0       0.1       0.1       0.0
 2 O  dxz             0.0       0.0       0.2       0.0       0.0       0.0
 2 O  dyz             0.0       0.0       0.8       0.0       0.0       0.0
 2 O  dx2y2           0.1       0.1       0.0       0.7       0.0       0.0
 2 O  dxy             0.2       0.5       0.0       0.0       0.4       0.1
 3 O  s               4.0      11.1       0.0       5.3       9.5       0.7
 3 O  pz              0.0       0.0      16.3       0.1       0.0       0.0
 3 O  px              1.9       3.4       0.0       1.4      12.2       0.4
 3 O  py              0.2       7.5       0.1      17.8      13.6       5.5
 3 O  dz2             0.0       0.2       0.0       0.1       0.1       0.0
 3 O  dxz             0.0       0.0       0.2       0.0       0.0       0.0
 3 O  dyz             0.0       0.0       0.8       0.0       0.0       0.0
 3 O  dx2y2           0.1       0.1       0.0       0.7       0.0       0.0
 3 O  dxy             0.2       0.5       0.0       0.0       0.4       0.1
 4 H  s               6.7       5.5       3.9       2.3       0.0       0.0
 4 H  pz              0.6       0.5       0.1       0.2       0.0       0.0
 4 H  px              0.1       0.0       0.1       0.1       0.0       0.0
 4 H  py              0.0       0.0       0.0       0.0       0.1       0.5
 5 H  s               6.3       5.8       0.8       2.4       2.1      15.8
 5 H  pz              0.1       0.1       0.0       0.1       0.1       0.3
 5 H  px              0.1       0.0       0.0       0.1       0.0       0.2
 5 H  py              0.5       0.4       0.1       0.2       0.0       0.1
 6 H  s               6.3       5.8       0.8       2.4       2.1      15.9
 6 H  pz              0.1       0.1       0.0       0.1       0.1       0.3
 6 H  px              0.1       0.0       0.0       0.1       0.0       0.2
 6 H  py              0.5       0.4       0.1       0.2       0.0       0.1

                     12        13        14        15        16        17   
                  -0.55030  -0.42786  -0.42593  -0.41637   0.01477   0.11155
                   2.00000   2.00000   2.00000   2.00000   0.00000   0.00000
                  --------  --------  --------  --------  --------  --------
 0 C  s               0.0       0.0       0.8       0.0       0.0      12.9
 0 C  pz             42.6       0.0       0.1       0.0       0.2       0.2
 0 C  px              0.0       0.0       9.9       0.0       0.0       2.6
 0 C  py              0.0       0.0       0.0       2.2       0.0       0.0
 0 C  dz2             1.0       0.0       0.1       0.0       0.4       0.8
 0 C  dxz             1.6       0.0       0.0       0.0       4.4       0.0
 0 C  dyz             0.0       0.1       0.0       0.1       0.0       0.0
 0 C  dx2y2           0.3       0.0       0.1       0.0       0.1       0.3
 0 C  dxy             0.0       0.0       0.0       0.8       0.0       0.0
 0 C  f0              0.1       0.0       0.0       0.0       0.1       0.1
 0 C  f+2             0.1       0.0       0.0       0.0       0.3       0.1
 0 C  f+3             0.0       0.0       0.0       0.0       0.0       0.1
 1 N  s               0.0       0.0       0.6       0.0       0.0       0.5
 1 N  pz              5.3       0.0       0.0       0.0      35.4       0.1
 1 N  px              0.0       0.0       4.2       0.0       0.0       1.4
 1 N  py              0.0       0.0       0.0       0.8       0.0       0.0
 1 N  dz2             0.0       0.0       0.0       0.0       0.0       1.4
 1 N  dxz             2.0       0.0       0.0       0.0       2.0       0.0
 1 N  dyz             0.0       8.5       0.0       0.0       0.0       0.0
 1 N  dx2y2           0.0       0.0      10.3       0.0       0.0       0.0
 1 N  dxy             0.0       0.0       0.0       3.8       0.0       0.0
 1 N  f0              0.0       0.0       0.0       0.0       0.6       0.0
 1 N  f+2             0.2       0.0       0.0       0.0       0.3       0.0
 1 N  f-2             0.0       0.6       0.0       0.0       0.0       0.0
 1 N  f+3             0.0       0.0       0.0       0.0       0.0       0.1
 1 N  f-3             0.0       0.0       0.0       1.6       0.0       0.0
 2 O  s               0.0       0.0       0.3       0.1       0.0       0.4
 2 O  pz              6.5      45.2       0.0       0.2      23.7       0.0
 2 O  px              0.0       0.2      34.3      27.5       0.0       0.2
 2 O  py              0.0       0.0       1.2      16.6       0.0       0.2
 2 O  dxz             0.0       0.0       0.0       0.0       0.5       0.0
 2 O  dyz             0.1       0.0       0.0       0.0       1.8       0.0
 2 O  f-2             0.0       0.0       0.0       0.0       0.1       0.0
 3 O  s               0.0       0.0       0.3       0.1       0.0       0.4
 3 O  pz              6.5      45.1       0.0       0.2      23.7       0.0
 3 O  px              0.0       0.2      34.6      27.1       0.0       0.2
 3 O  py              0.0       0.0       1.2      16.6       0.0       0.2
 3 O  dxz             0.0       0.0       0.0       0.0       0.5       0.0
 3 O  dyz             0.1       0.0       0.0       0.0       1.8       0.0
 3 O  f-2             0.0       0.0       0.0       0.0       0.1       0.0
 4 H  s              21.1       0.0       0.3       0.0       2.2      29.6
 4 H  pz              0.4       0.0       0.0       0.0       0.1       3.7
 4 H  px              0.2       0.0       0.2       0.0       0.1       0.1
 5 H  s               5.3       0.0       0.4       1.1       0.5      19.4
 5 H  pz              0.2       0.0       0.0       0.0       0.0       0.8
 5 H  px              0.0       0.0       0.1       0.0       0.0       0.1
 5 H  py              0.3       0.0       0.0       0.0       0.0       1.9
 6 H  s               5.3       0.0       0.4       1.1       0.5      19.4
 6 H  pz              0.2       0.0       0.0       0.0       0.0       0.8
 6 H  px              0.0       0.0       0.1       0.0       0.0       0.1
 6 H  py              0.3       0.0       0.0       0.0       0.0       1.9

                     18        19        20        21        22        23   
                   0.15151   0.17062   0.17770   0.24641   0.26960   0.27040
                   0.00000   0.00000   0.00000   0.00000   0.00000   0.00000
                  --------  --------  --------  --------  --------  --------
 0 C  s               1.2       0.0       0.1       5.0       2.5       0.0
 0 C  pz              0.1       0.0      14.2      31.0      36.9       0.0
 0 C  px             55.5       0.0       0.8      13.8      10.8       0.0
 0 C  py              0.0      14.1       0.0       0.0       0.0      69.2
 0 C  dz2             5.3       0.0       4.7       2.9       6.4       0.0
 0 C  dxz             0.0       0.0       0.3       0.0       0.0       0.0
 0 C  dyz             0.0       8.4       0.0       0.0       0.0      14.2
 0 C  dx2y2          13.8       0.0       3.5       4.5       0.2       0.0
 0 C  dxy             0.0       1.6       0.0       0.0       0.0       0.8
 0 C  f+1             0.2       0.0       0.0       0.0       0.0       0.0
 0 C  f-2             0.0       0.0       0.0       0.0       0.0       0.1
 0 C  f+3             0.3       0.0       0.0       0.0       0.2       0.0
 1 N  s               5.2       0.0       0.1      10.3       6.4       0.0
 1 N  pz              0.0       0.0       1.7       1.1       1.5       0.0
 1 N  px              6.6       0.0       0.1       2.4       4.8       0.0
 1 N  py              0.0       0.7       0.0       0.0       0.0       0.3
 1 N  dz2             0.6       0.0       0.3       8.8       4.9       0.0
 1 N  dxz             0.0       0.0       0.4       0.0       0.3       0.0
 1 N  dx2y2           0.5       0.0       0.1       0.0       0.3       0.0
 1 N  dxy             0.0       1.3       0.0       0.0       0.0       0.2
 1 N  f+3             0.1       0.0       0.0       0.6       0.7       0.0
 2 O  s               0.2       0.0       0.0       2.4       4.0       0.2
 2 O  pz              0.0       0.6       0.8       0.3       0.7       0.9
 2 O  px              1.0       0.2       0.1       1.0       0.2       0.6
 2 O  py              0.4       0.1       0.4       1.8       2.6       0.4
 2 O  dyz             0.0       0.0       0.2       0.1       0.1       0.0
 2 O  dx2y2           0.0       0.0       0.0       0.4       0.3       0.0
 2 O  dxy             0.8       0.0       0.0       0.2       0.1       0.1
 3 O  s               0.2       0.0       0.0       2.4       3.9       0.2
 3 O  pz              0.0       0.6       0.8       0.3       0.6       1.0
 3 O  px              1.0       0.2       0.1       1.0       0.3       0.6
 3 O  py              0.4       0.1       0.4       1.8       2.6       0.4
 3 O  dyz             0.0       0.0       0.2       0.1       0.1       0.0
 3 O  dx2y2           0.0       0.0       0.0       0.4       0.3       0.0
 3 O  dxy             0.8       0.0       0.0       0.2       0.1       0.1
 4 H  s               0.5       0.0      34.3       4.1       4.1       0.0
 4 H  pz              0.2       0.0       2.6       0.3       0.0       0.0
 4 H  px              1.2       0.0       0.8       0.0       0.0       0.0
 4 H  py              0.0       1.3       0.0       0.0       0.0       1.9
 5 H  s               0.4      31.4      13.8       0.8       1.1       3.6
 5 H  pz              0.1       1.6       0.1       0.2       0.7       0.3
 5 H  px              1.4       0.8       0.1       0.1       0.1       0.0
 5 H  py              0.1       1.3       2.3       0.2       0.0       0.3
 6 H  s               0.4      31.5      13.7       0.8       0.9       3.8
 6 H  pz              0.1       1.6       0.1       0.2       0.7       0.3
 6 H  px              1.4       0.8       0.1       0.1       0.1       0.0
 6 H  py              0.1       1.3       2.3       0.2       0.0       0.3

                     24        25        26        27        28        29   
                   0.34779   0.39912   0.40850   0.44840   0.47168   0.49895
                   0.00000   0.00000   0.00000   0.00000   0.00000   0.00000
                  --------  --------  --------  --------  --------  --------
 0 C  s               0.0      24.7       9.6       0.9      30.7       0.0
 0 C  pz              0.0       0.2       0.4       1.3       0.2       0.0
 0 C  px              0.0      27.4      14.5       0.2       1.3       0.0
 0 C  py              0.0       0.0       0.0       0.0       0.0      11.1
 0 C  dz2             0.0       0.1       1.0       1.9       0.5       0.0
 0 C  dxz             0.0       0.0       0.1       4.5       0.3       0.0
 0 C  dyz             0.1       0.0       0.0       0.0       0.0       6.7
 0 C  dx2y2           0.0       0.4       0.2       0.7       1.2       0.0
 0 C  dxy             9.9       0.0       0.0       0.0       0.0       5.6
 0 C  f0              0.0       0.2       0.0       0.1       0.1       0.0
 0 C  f+1             0.0       0.5       0.0       0.0       0.0       0.0
 0 C  f-2             0.0       0.0       0.0       0.0       0.0       0.4
 0 C  f+3             0.0       0.9       0.1       0.0       0.2       0.0
 0 C  f-3             0.2       0.0       0.0       0.0       0.0       0.4
 1 N  s               0.0      24.2       4.9       1.2       4.9       0.0
 1 N  pz              0.0       0.6       0.1      56.2       0.3       0.0
 1 N  px              0.0       2.7      21.0       0.1      16.2       0.0
 1 N  py             26.6       0.0       0.0       0.0       0.0       7.2
 1 N  dz2             0.0       0.2       0.4       0.2       1.1       0.0
 1 N  dx2y2           0.0       0.4       5.9       0.0       0.1       0.0
 1 N  dxy             5.7       0.0       0.0       0.0       0.0       3.6
 1 N  f0              0.0       0.0       0.0       0.2       0.0       0.0
 1 N  f+1             0.0       0.1       0.4       0.0       0.1       0.0
 1 N  f-1             0.5       0.0       0.0       0.0       0.0       0.0
 1 N  f+3             0.0       0.2       0.2       0.0       0.3       0.0
 1 N  f-3             0.2       0.0       0.0       0.0       0.0       0.3
 2 O  s               6.5       1.7       0.6       0.1       0.4       0.8
 2 O  pz              0.2       0.0       0.0      13.5       0.7       0.8
 2 O  px              5.1       1.6       0.1       0.6      10.8       3.2
 2 O  py             11.0       0.9      11.2       0.4       1.4       8.1
 2 O  dz2             0.2       0.4       0.9       0.1       0.3       0.1
 2 O  dx2y2           0.0       0.1       5.5       0.0       0.3       0.0
 2 O  dxy             1.6       1.3       0.7       0.0       0.3       0.1
 2 O  f-3             0.0       0.0       0.3       0.0       0.1       0.0
 3 O  s               6.5       1.7       0.7       0.1       0.4       0.8
 3 O  pz              0.2       0.0       0.0      13.6       0.7       0.8
 3 O  px              5.1       1.6       0.1       0.6      10.9       3.3
 3 O  py             11.0       0.9      11.3       0.4       1.4       8.1
 3 O  dz2             0.2       0.4       0.9       0.1       0.3       0.1
 3 O  dx2y2           0.0       0.1       5.5       0.0       0.3       0.0
 3 O  dxy             1.6       1.3       0.7       0.0       0.3       0.1
 3 O  f-3             0.0       0.0       0.3       0.0       0.1       0.0
 4 H  s               0.0       1.7       0.3       0.1       1.3       0.0
 4 H  pz              0.0       0.0       0.0       0.0       1.2       0.0
 4 H  px              0.0       0.1       0.1       1.1       0.0       0.0
 4 H  py              0.0       0.0       0.0       0.0       0.0       0.4
 5 H  s               3.0       1.5       0.2       0.1       3.1      16.5
 5 H  pz              0.0       0.0       0.0       0.2       0.5       0.9
 5 H  px              0.6       0.1       0.2       0.1       0.1       0.4
 5 H  py              0.0       0.0       0.3       0.2       1.7       1.0
 6 H  s               3.0       1.5       0.2       0.1       3.1      16.5
 6 H  pz              0.0       0.0       0.0       0.2       0.5       0.9
 6 H  px              0.6       0.1       0.2       0.1       0.1       0.4
 6 H  py              0.0       0.0       0.3       0.2       1.7       1.0

                     30        31        32        33        34        35   
                   0.50982   0.53611   0.54227   0.55285   0.59949   0.60523
                   0.00000   0.00000   0.00000   0.00000   0.00000   0.00000
                  --------  --------  --------  --------  --------  --------
 0 C  s               2.4       0.0       5.9       4.3       0.0       0.0
 0 C  pz             22.1       0.0       0.8       4.2       0.0       0.0
 0 C  px              0.0       0.0       2.8       1.7       0.0       0.0
 0 C  py              0.0       0.1       0.0       0.0       2.8      12.5
 0 C  dz2             7.6       0.0       0.4       0.7       0.0       0.0
 0 C  dxz             3.7       0.0       0.1       0.5       0.0       0.0
 0 C  dyz             0.0       0.5       0.0       0.0       2.7       5.0
 0 C  dx2y2           1.2       0.0       2.0       1.5       0.0       0.0
 0 C  dxy             0.0       7.7       0.0       0.0       4.9       0.8
 0 C  f0              0.3       0.0       1.6       0.1       0.0       0.0
 0 C  f+1             0.6       0.0       0.0       0.2       0.0       0.0
 0 C  f+2             0.0       0.0       0.8       0.1       0.0       0.0
 0 C  f-2             0.0       0.0       0.0       0.0       0.2       0.0
 0 C  f+3             0.0       0.0       0.5       0.4       0.0       0.0
 0 C  f-3             0.0       0.3       0.0       0.0       0.0       0.0
 1 N  s               0.4       0.0       3.1       4.1       0.0       0.0
 1 N  pz              0.9       0.0       0.0       0.1       0.0       0.0
 1 N  px              1.0       0.0       0.2       1.0       0.0       0.0
 1 N  py              0.0      38.8       0.0       0.0       2.9      10.3
 1 N  dz2             0.4       0.0       3.1       6.2       0.0       0.0
 1 N  dxz             1.4       0.0       0.0       0.1       0.0       0.0
 1 N  dyz             0.0       0.0       0.0       0.0       0.3       0.0
 1 N  dx2y2           0.3       0.0       0.2       0.6       0.0       0.0
 1 N  dxy             0.0       0.6       0.0       0.0       2.2       2.8
 1 N  f0              0.1       0.0       0.0       0.0       0.0       0.0
 1 N  f-1             0.0       0.0       0.0       0.0       0.3       0.3
 1 N  f-2             0.0       0.0       0.0       0.0       0.1       0.2
 1 N  f+3             0.1       0.0       0.3       0.1       0.0       0.0
 1 N  f-3             0.0       0.0       0.0       0.0       0.1       0.1
 2 O  s               0.0       0.2       0.1       0.7       0.1       0.2
 2 O  pz              0.2       2.6       3.3       0.3      28.1      15.3
 2 O  px              0.8      10.1       6.1      13.0       5.1       5.1
 2 O  py              2.3       4.8      12.6      13.8       4.7       4.2
 2 O  dz2             0.1       2.0       0.0       0.8       0.0       0.7
 2 O  dyz             0.1       0.0       0.0       0.0       0.5       0.2
 2 O  dx2y2           0.2       0.8       0.0       0.0       0.2       0.0
 2 O  dxy             0.0       3.2       0.1       0.6       0.1       0.9
 2 O  f+3             0.0       0.2       0.0       0.0       0.0       0.1
 3 O  s               0.0       0.2       0.1       0.7       0.1       0.2
 3 O  pz              0.2       2.7       3.2       0.3      28.0      15.3
 3 O  px              0.8      10.0       6.4      12.8       5.1       5.1
 3 O  py              2.2       4.9      12.7      13.7       4.6       4.2
 3 O  dz2             0.1       2.0       0.0       0.8       0.0       0.7
 3 O  dyz             0.1       0.0       0.0       0.0       0.5       0.2
 3 O  dx2y2           0.2       0.8       0.0       0.0       0.2       0.0
 3 O  dxy             0.0       3.2       0.1       0.6       0.1       0.9
 3 O  f+3             0.0       0.2       0.0       0.0       0.0       0.1
 4 H  s              33.9       0.0       6.5       1.6       0.0       0.0
 4 H  pz              7.4       0.0       2.7       0.2       0.0       0.0
 4 H  px              0.9       0.0       0.1       0.0       0.0       0.0
 4 H  py              0.0       0.1       0.0       0.0       0.9       0.4
 5 H  s               3.3       0.2       9.1       5.1       1.1       5.2
 5 H  pz              0.1       0.1       0.5       0.3       1.0       0.7
 5 H  px              0.1       1.2       0.1       0.1       0.0       0.0
 5 H  py              0.4       0.0       2.3       1.3       0.5       1.0
 6 H  s               3.2       0.3       9.1       5.1       1.1       5.2
 6 H  pz              0.1       0.1       0.5       0.3       1.0       0.7
 6 H  px              0.1       1.2       0.1       0.1       0.0       0.0
 6 H  py              0.4       0.0       2.3       1.3       0.5       1.0

                     36        37        38        39        40        41   
                   0.62522   0.65144   0.66393   0.68781   0.76313   0.87851
                   0.00000   0.00000   0.00000   0.00000   0.00000   0.00000
                  --------  --------  --------  --------  --------  --------
 0 C  s               0.9       0.0       8.4       1.0       0.2       4.3
 0 C  pz              0.4       0.0       0.4       2.1       1.7       0.4
 0 C  px              0.3       0.0       1.4       2.3       1.0       4.4
 0 C  py              0.0       1.8       0.0       0.0       0.0       0.0
 0 C  dz2             0.4       0.0       0.0       2.1       6.7       0.6
 0 C  dxz             5.7       0.0       6.1       1.5      25.4       8.6
 0 C  dyz             0.0       0.3       0.0       0.0       0.0       0.0
 0 C  dx2y2           1.0       0.0       0.4       0.1       2.4       0.3
 0 C  f0              0.2       0.0       0.2       1.0       0.1       0.1
 0 C  f+1             0.1       0.0       0.1       1.0       0.1       0.3
 0 C  f+2             0.0       0.0       0.5       0.5       0.0       0.0
 0 C  f+3             0.0       0.0       0.0       0.2       0.3       1.3
 1 N  s               9.9       0.0      16.1       0.1       0.2       0.4
 1 N  pz              8.6       0.0      10.2       3.1      13.8       1.1
 1 N  px              4.2       0.0       3.4      28.7       7.3       3.7
 1 N  py              0.0       8.1       0.0       0.0       0.0       0.0
 1 N  dz2             1.7       0.0       5.0       1.0       0.0       0.3
 1 N  dxz             0.6       0.0       0.5       1.2      11.4       2.2
 1 N  dx2y2           1.2       0.0       1.8       2.0       0.5       0.1
 1 N  dxy             0.0       0.7       0.0       0.0       0.0       0.0
 1 N  f0              0.0       0.0       0.0       0.1       0.3       0.1
 1 N  f+1             0.2       0.0       0.1       0.4       0.0       0.0
 1 N  f-1             0.0       0.1       0.0       0.0       0.0       0.0
 1 N  f+3             0.4       0.0       0.2       0.0       0.4       1.6
 1 N  f-3             0.0       0.4       0.0       0.0       0.0       0.0
 2 O  s               0.6       0.1       0.3       0.9       2.6      26.8
 2 O  pz             16.3       0.2      11.4       0.1       2.1       0.3
 2 O  px              2.2      21.0       1.0      10.6       0.5       0.8
 2 O  py             10.0      19.2       4.1       0.6       0.1       0.3
 2 O  dz2             0.6       0.7       1.0       0.3       0.1       0.0
 2 O  dxz             0.3       0.0       0.5       0.1       0.1       0.0
 2 O  dyz             0.1       0.0       0.1       0.3       2.4       0.4
 2 O  dx2y2           0.0       2.6       0.0       0.7       0.7       2.4
 2 O  dxy             0.4       0.2       0.6       2.4       0.1       1.1
 3 O  s               0.6       0.1       0.3       0.9       2.6      26.9
 3 O  pz             16.3       0.2      11.4       0.1       2.1       0.3
 3 O  px              2.2      20.8       1.0      10.7       0.5       0.8
 3 O  py             10.1      19.1       4.2       0.6       0.1       0.3
 3 O  dz2             0.6       0.7       1.0       0.3       0.1       0.0
 3 O  dxz             0.3       0.0       0.5       0.1       0.1       0.0
 3 O  dyz             0.1       0.0       0.1       0.3       2.4       0.3
 3 O  dx2y2           0.0       2.6       0.0       0.7       0.7       2.3
 3 O  dxy             0.4       0.2       0.6       2.4       0.1       1.1
 4 H  s               0.1       0.0       0.7       6.1       0.6       2.2
 4 H  pz              0.1       0.0       0.0       0.9       1.0       1.2
 4 H  px              1.6       0.0       0.2       3.0       2.1       0.0
 4 H  py              0.0       0.3       0.0       0.0       0.0       0.0
 5 H  s               0.4       0.0       1.9       3.7       0.4       0.3
 5 H  pz              0.0       0.1       0.0       0.2       1.1       0.1
 5 H  px              0.1       0.1       0.1       0.0       1.8       0.1
 5 H  py              0.0       0.1       0.8       0.7       0.4       0.7
 6 H  s               0.4       0.0       1.9       3.7       0.4       0.3
 6 H  pz              0.0       0.1       0.0       0.2       1.1       0.1
 6 H  px              0.1       0.1       0.1       0.0       1.8       0.2
 6 H  py              0.0       0.1       0.8       0.7       0.4       0.8

                     42        43        44        45        46        47   
                   0.88994   0.96986   1.01562   1.06511   1.06857   1.23600
                   0.00000   0.00000   0.00000   0.00000   0.00000   0.00000
                  --------  --------  --------  --------  --------  --------
 0 C  s               0.0       0.0       0.2       0.0       0.7       0.0
 0 C  pz              0.0       0.0       8.6       0.0       0.2       0.0
 0 C  px              0.0       0.0       0.0       0.0      11.3       0.0
 0 C  py             10.1       0.8       0.0       1.0       0.0       4.8
 0 C  dz2             0.0       0.0      16.3       0.0      16.0       0.0
 0 C  dxz             0.0       0.0       3.7       0.0       0.0       0.0
 0 C  dyz            26.7       3.8       0.0       0.1       0.0       6.7
 0 C  dx2y2           0.0       0.0      10.6       0.0      34.1       0.0
 0 C  dxy             6.4      22.1       0.0       9.3       0.0       1.5
 0 C  f0              0.0       0.0       0.1       0.0       1.3       0.0
 0 C  f+1             0.0       0.0       0.9       0.0       1.6       0.0
 0 C  f-1             0.0       0.2       0.0       0.5       0.0       0.1
 0 C  f+2             0.0       0.0       0.5       0.0       0.5       0.0
 0 C  f-2             1.5       1.0       0.0       1.2       0.0       0.4
 0 C  f+3             0.0       0.0       0.2       0.0       2.5       0.0
 0 C  f-3             0.0       1.6       0.0       0.2       0.0       0.3
 1 N  s               0.0       0.0       2.8       0.0       3.9       0.0
 1 N  pz              0.0       0.0       0.0       0.0       0.2       0.0
 1 N  px              0.0       0.0       0.3       0.0       9.7       0.0
 1 N  py              7.4       5.0       0.0      10.4       0.0       1.5
 1 N  dz2             0.0       0.0       0.1       0.0       1.1       0.0
 1 N  dxz             0.0       0.0       1.3       0.0       0.0       0.0
 1 N  dyz             8.8       4.0       0.0       6.8       0.0      32.9
 1 N  dx2y2           0.0       0.0       0.6       0.0       0.9       0.0
 1 N  dxy             0.0       0.1       0.0       1.5       0.0       0.5
 1 N  f+1             0.0       0.0       0.3       0.0       0.0       0.0
 1 N  f-1             0.6       1.3       0.0       0.2       0.0       0.1
 1 N  f-2             0.7       0.2       0.0       0.2       0.0       0.1
 1 N  f-3             0.0       0.0       0.0       0.2       0.0       0.0
 2 O  s               0.7      14.8       4.2      23.0       0.1       1.6
 2 O  pz              0.6       0.2       0.2       0.3       0.1       1.9
 2 O  px              3.0       1.6       0.3       1.1       0.2       0.1
 2 O  py              0.2       1.0       0.2       0.9       0.1       0.3
 2 O  dz2             0.3       2.5       0.2       0.1       0.1       0.0
 2 O  dxz             1.1       0.6       0.0       1.7       0.2       7.5
 2 O  dyz             0.3       0.2       0.1       0.5       0.0       5.0
 2 O  dx2y2           0.2       0.1       0.0       0.8       0.1       0.2
 2 O  dxy             0.1       0.3       0.8       2.3       0.1       0.3
 2 O  f-2             0.0       0.0       0.0       0.0       0.0       0.2
 2 O  f-3             0.0       0.0       0.0       0.0       0.1       0.0
 3 O  s               0.6      14.8       4.3      23.1       0.0       1.6
 3 O  pz              0.6       0.2       0.2       0.3       0.1       1.9
 3 O  px              2.9       1.6       0.3       1.0       0.3       0.1
 3 O  py              0.2       1.0       0.2       0.9       0.1       0.3
 3 O  dz2             0.3       2.5       0.2       0.1       0.1       0.0
 3 O  dxz             1.2       0.7       0.0       1.8       0.1       7.7
 3 O  dyz             0.3       0.2       0.1       0.5       0.0       4.9
 3 O  dx2y2           0.2       0.1       0.0       0.7       0.1       0.2
 3 O  dxy             0.1       0.3       0.8       2.3       0.1       0.3
 3 O  f-2             0.0       0.0       0.0       0.0       0.0       0.2
 3 O  f-3             0.0       0.0       0.0       0.0       0.1       0.0
 4 H  s               0.0       0.0      11.6       0.0       4.1       0.0
 4 H  pz              0.0       0.0       8.2       0.0       2.0       0.0
 4 H  px              0.0       0.0       0.4       0.0       0.5       0.0
 4 H  py              2.4       0.2       0.0       2.6       0.0       1.8
 5 H  s               4.8       3.6       4.8       0.9       1.8       3.0
 5 H  pz              0.1       1.0       4.9       0.0       0.0       0.3
 5 H  px              4.4       1.0       0.5       0.0       1.2       0.2
 5 H  py              1.9       2.8       0.4       0.8       0.4       4.1
 6 H  s               4.7       3.6       4.8       1.1       1.7       3.0
 6 H  pz              0.1       0.9       4.9       0.0       0.0       0.3
 6 H  px              4.4       1.0       0.5       0.0       1.2       0.2
 6 H  py              1.9       2.8       0.4       0.9       0.4       4.1

                     48        49        50        51        52        53   
                   1.24507   1.38952   1.45678   1.48061   1.52775   1.58876
[...]
                   0.00000   0.00000   0.00000   0.00000   0.00000   0.00000
                  --------  --------  --------  --------  --------  --------
 0 C  s               0.1       0.0       0.0       0.0       0.0       0.0
 0 C  px              0.1       0.0       0.0       0.0       0.0       0.0
 0 C  dxy             0.0       0.2       0.0       0.4       0.0       0.0
 0 C  f-3             0.0       0.0       0.0       0.3       0.0       0.0
 1 N  s               0.2       0.0       0.0       0.0       0.0       0.0
 1 N  pz              0.0       0.0       0.7       0.0       5.5       0.0
 1 N  px              0.4       0.0       0.0       0.0       0.0       0.0
 1 N  py              0.0       0.5       0.0       0.5       0.0       0.0
 1 N  dz2             1.0       0.0       0.0       0.0       0.0       0.0
 1 N  dxz             0.0       0.0       1.4       0.0       2.0       0.0
 1 N  dyz             0.0       0.1       0.0       0.0       0.0       6.7
 1 N  dx2y2           0.1       0.0       0.0       0.0       0.0       0.0
 1 N  dxy             0.0       4.7       0.0       1.3       0.0       0.0
 1 N  f0              0.0       0.0       5.2       0.0       5.8       0.0
 1 N  f+1             0.7       0.0       0.0       0.0       0.0       0.0
 1 N  f-1             0.0       0.3       0.0       0.2       0.0       0.0
 1 N  f+2             0.1       0.0       9.1       0.0       3.8       0.0
 1 N  f-2             0.0       0.2       0.0       0.0       0.0       5.5
 1 N  f+3             0.5       0.0       0.0       0.0       0.0       0.0
 1 N  f-3             0.0       0.2       0.0       3.3       0.0       0.0
 2 O  s               0.1       0.2       0.0       0.1       0.0       0.0
 2 O  pz              0.0       0.0       0.4       0.0       1.5       1.5
 2 O  px              0.1       0.0       0.0       0.1       0.0       0.0
 2 O  dz2            33.7      26.0       0.1       0.5       0.0       0.0
 2 O  dxz             0.0       0.1       0.5       0.0       1.9       7.6
 2 O  dyz             0.1       0.2      30.1       0.0      16.4      14.2
 2 O  dx2y2           7.1       4.8       0.0      33.8       0.0       0.0
 2 O  dxy             3.8      11.9       0.1      11.4       0.0       0.0
 2 O  f0              0.0       0.1       2.5       0.0       9.2       6.3
 2 O  f+1             0.0       0.5       0.0       0.2       0.0       0.0
 2 O  f-1             0.7       2.6       0.0       0.2       0.0       0.0
 2 O  f+2             0.0       0.1       0.6       0.0       3.1       5.5
 2 O  f-2             0.0       0.0       7.4       0.0       9.7       8.0
 2 O  f+3             2.5       0.0       0.0       0.0       0.0       0.0
 2 O  f-3             0.1       0.4       0.0       0.5       0.0       0.0
 3 O  s               0.1       0.2       0.0       0.1       0.0       0.0
 3 O  pz              0.0       0.0       0.4       0.0       1.5       1.5
 3 O  px              0.1       0.0       0.0       0.1       0.0       0.0
 3 O  dz2            33.8      25.8       0.1       0.5       0.0       0.0
 3 O  dxz             0.0       0.1       0.4       0.0       1.8       7.7
 3 O  dyz             0.1       0.2      30.3       0.0      16.0      14.5
 3 O  dx2y2           7.1       4.8       0.0      33.9       0.0       0.0
 3 O  dxy             3.8      11.9       0.1      11.3       0.0       0.0
 3 O  f0              0.0       0.1       2.5       0.0       9.0       6.5
 3 O  f+1             0.0       0.5       0.0       0.2       0.0       0.0
 3 O  f-1             0.7       2.6       0.0       0.2       0.0       0.0
 3 O  f+2             0.0       0.1       0.6       0.0       3.0       5.6
 3 O  f-2             0.0       0.0       7.4       0.0       9.5       8.3
 3 O  f+3             2.5       0.0       0.0       0.0       0.0       0.0
 3 O  f-3             0.1       0.4       0.0       0.5       0.0       0.0

                    132       133       134       135       136       137   
                   7.02901   7.17188   7.31386   7.35224   7.42282   7.47987
                   0.00000   0.00000   0.00000   0.00000   0.00000   0.00000
                  --------  --------  --------  --------  --------  --------
 0 C  s               0.0       0.1       0.0       0.2       0.1       0.0
 0 C  px              0.0       0.0       0.0       0.2       0.0       0.0
 0 C  py              0.0       0.0       0.5       0.0       0.0       0.0
 0 C  dz2             0.0       0.1       0.0       0.1       0.2       0.0
 0 C  dx2y2           0.0       0.0       0.0       0.2       0.0       0.0
 0 C  dxy             0.1       0.0       0.1       0.0       0.0       0.2
 0 C  f+3             0.0       0.1       0.0       0.1       0.0       0.0
 0 C  f-3             0.0       0.0       0.1       0.0       0.0       0.2
 1 N  s               0.0       1.0       0.0       3.9      13.7       0.0
 1 N  px              0.0       4.4       0.0       0.2       1.6       0.0
 1 N  py              2.8       0.0       9.7       0.0       0.0       2.3
 1 N  dz2             0.0       1.0       0.0       0.9       8.5       0.0
 1 N  dx2y2           0.0       3.5       0.0       0.7       8.6       0.0
 1 N  dxy             3.9       0.0       9.2       0.0       0.0       8.4
 1 N  f+1             0.0       1.0       0.0       0.6       0.2       0.0
 1 N  f-1             5.6       0.0       2.3       0.0       0.0       0.0
 1 N  f+3             0.0       0.4       0.0      13.1       1.3       0.0
 1 N  f-3             0.1       0.0      14.4       0.0       0.0      15.7
 2 O  s               2.6       0.5       3.6       1.5       5.6       3.0
 2 O  px              0.1       0.8       3.7       0.2       1.5       0.0
 2 O  py              0.7       1.4       1.5       0.7       4.5       4.1
 2 O  dz2            16.3       0.0       0.5       7.8       0.7       0.3
 2 O  dx2y2           3.7      16.0       1.0      13.4       1.9       4.4
 2 O  dxy            18.9      14.6       2.3      14.7       2.1       2.5
 2 O  f+1             0.0       0.1       2.4       0.4       1.7       0.1
 2 O  f-1             0.0       1.7       2.4       0.9       3.8       1.8
 2 O  f+3             0.1       0.0       7.2       0.2      10.6       3.7
 2 O  f-3             1.2       9.2       7.1       0.0       0.5      16.7
 3 O  s               2.6       0.5       3.6       1.5       5.6       2.9
 3 O  px              0.1       0.8       3.7       0.2       1.5       0.0
 3 O  py              0.7       1.4       1.5       0.7       4.5       4.0
 3 O  dz2            16.3       0.0       0.5       7.8       0.7       0.3
 3 O  dx2y2           3.7      16.1       1.0      13.4       1.9       4.5
 3 O  dxy            18.9      14.5       2.3      14.8       2.1       2.5
 3 O  f+1             0.0       0.1       2.4       0.4       1.6       0.1
 3 O  f-1             0.0       1.7       2.4       0.9       3.8       1.8
 3 O  f+3             0.1       0.0       7.2       0.2      10.6       3.6
 3 O  f-3             1.2       9.2       7.2       0.0       0.5      16.7

                    138       139       140       141   
                  22.35157  32.37727  43.99698  44.00320
                   0.00000   0.00000   0.00000   0.00000
                  --------  --------  --------  --------
 0 C  s              98.3       0.1       0.0       0.0
 1 N  s               0.0      98.1       0.0       0.1
 1 N  px              0.3       0.3       0.0       0.0
 1 N  dx2y2           0.2       0.1       0.0       0.0
 2 O  s               0.0       0.3      51.9      47.9
 2 O  py              0.0       0.2       0.0       0.0
 3 O  s               0.0       0.3      48.0      51.8
 3 O  py              0.0       0.2       0.0       0.0
 4 H  s               0.2       0.0       0.0       0.0
 5 H  s               0.2       0.0       0.0       0.0
 6 H  s               0.2       0.0       0.0       0.0


                      *****************************
                      * MAYER POPULATION ANALYSIS *
                      *****************************

  NA   - Mulliken gross atomic population
  ZA   - Total nuclear charge
  QA   - Mulliken gross atomic charge
  VA   - Mayer's total valence
  BVA  - Mayer's bonded valence
  FA   - Mayer's free valence

  ATOM       NA         ZA         QA         VA         BVA        FA
  0 C      6.2690     6.0000    -0.2690     3.8484     3.8484    -0.0000
  1 N      6.6038     7.0000     0.3962     4.2291     4.2291     0.0000
  2 O      8.2994     8.0000    -0.2994     1.9416     1.9416    -0.0000
  3 O      8.2992     8.0000    -0.2992     1.9419     1.9419     0.0000
  4 H      0.8456     1.0000     0.1544     0.9689     0.9689     0.0000
  5 H      0.8415     1.0000     0.1585     0.9703     0.9703    -0.0000
  6 H      0.8414     1.0000     0.1586     0.9703     0.9703    -0.0000

  Mayer bond orders larger than 0.100000
B(  0-C ,  1-N ) :   0.8914 B(  0-C ,  4-H ) :   0.9551 B(  0-C ,  5-H ) :   0.9617 
B(  0-C ,  6-H ) :   0.9617 B(  1-N ,  2-O ) :   1.6726 B(  1-N ,  3-O ) :   1.6728 
B(  2-O ,  3-O ) :   0.2047 

-------
TIMINGS
-------

Total SCF time: 0 days 0 hours 0 min 13 sec 

Total time                  ....      13.173 sec
Sum of individual times     ....      12.795 sec  ( 97.1%)

SCF preparation             ....       0.036 sec  (  0.3%)
Fock matrix formation       ....      12.641 sec  ( 96.0%)
  Startup                   ....       0.001 sec  (  0.0% of F)
  Split-RI-J                ....       0.403 sec  (  3.2% of F)
  Chain of spheres X        ....      10.756 sec  ( 85.1% of F)
  XC integration            ....       1.820 sec  ( 14.4% of F)
    XC Preparation          ....       0.000 sec  (  0.0% of XC)
    Basis function eval.    ....       0.509 sec  ( 28.0% of XC)
    Density eval.           ....       0.320 sec  ( 17.6% of XC)
    XC-Functional eval.     ....       0.528 sec  ( 29.0% of XC)
    XC-Potential eval.      ....       0.424 sec  ( 23.3% of XC)
Diagonalization             ....       0.000 sec  (  0.0%)
Density matrix formation    ....       0.010 sec  (  0.1%)
Total Energy calculation    ....       0.001 sec  (  0.0%)
Population analysis         ....       0.038 sec  (  0.3%)
Orbital Transformation      ....       0.011 sec  (  0.1%)
Orbital Orthonormalization  ....       0.000 sec  (  0.0%)
DIIS solution               ....       0.015 sec  (  0.1%)
  MO trafo                  ....       0.000 sec  (  0.0 % of DIIS)
  Orb grad                  ....       0.000 sec  (  0.0 % of DIIS)
  Energy W gradient         ....       0.000 sec  (  0.0 % of DIIS)
  DIIS error                ....       0.001 sec  (  9.1 % of DIIS)
  DIIS work                 ....       0.011 sec  ( 75.2 % of DIIS)
  Form Q                    ....       0.000 sec  (  0.0 % of DIIS)
  Form QpQm                 ....       0.000 sec  (  0.0 % of DIIS)
  Exp/Cayley                ....       0.000 sec  (  0.0 % of DIIS)
  Orb update                ....       0.000 sec  (  0.0 % of DIIS)
  Wake-sleep                ....       0.000 sec  (  1.4 % of DIIS)
SOSCF solution              ....       0.011 sec  (  0.1%)
  MO trafo                  ....       0.008 sec  ( 70.0 % of SOSCF)
  Orb grad                  ....       0.000 sec  (  0.8 % of SOSCF)
  Rot update                ....       0.000 sec  (  3.2 % of SOSCF)
  Step                      ....       0.003 sec  ( 25.7 % of SOSCF)
Grid generation             ....       0.032 sec  (  0.2%)
Finished LeanSCF after  13.2 sec

Maximum memory used throughout the entire LEANSCF-calculation: 14.4 MB
------------------   -----------------
gCP correction             0.004349023
------------------   -----------------

-------------------------   --------------------
FINAL SINGLE POINT ENERGY      -245.031681500473
-------------------------   --------------------


------------------------------------------------------------------------------
                              ORCA PROPERTY CALCULATIONS
------------------------------------------------------------------------------

GBWName                                 ... sp.gbw
Number of atoms                         ...      7
Number of basis functions               ...    142
Max core memory                         ...   1024 MB

Electric properties:
Dipole moment                           ... YES
Quadrupole moment                       ...  NO
Static polarizability (Dipole/Dipole)   ...  NO
Static polarizability (Dipole/Quad.)    ...  NO
Static polarizability (Quad./Quad.)     ...  NO
Static polarizability (Velocity)        ...  NO

Atomic electric properties:
Dipole moment                           ...  NO
Quadrupole moment                       ...  NO
Static polarizability                   ...  NO

Choice of electric origin               ... Center of mass
Position of electric origin             ...    -0.008302    -0.000052     0.001254

General magnetic properties:
Magnetizability                         ...  NO

EPR properties:
g-Tensor (aka g-matrix)                 ...  NO
Zero-Field splitting spin-orbit         ...  NO
Zero-field splitting spin-spin          ...  NO
Hyperfine couplings                     ...  NO (   0 nuclei)
Quadrupole couplings                    ...  NO (   0 nuclei)
Contact density                         ...  NO (   0 nuclei)

NMR properties:
Chemical shifts                         ...  NO (   0 nuclei)
Spin-rotation constants                 ...  NO (   0 nuclei)
Spin-spin couplings                     ...  NO (   0 nuclei,    0 pairs)

Choice of magnetic origin               ... GIAO
Position of magnetic origin             ...     0.000000     0.000000     0.000000

Properties with geometric perturbations:
SCF Hessian                             ...  NO
IR spectrum                             ...  NO
VCD spectrum                            ...  NO
X-ray spectroscopy properties:
SCF XES/XAS/RIXS spectra                ...  NO


-------------
DIPOLE MOMENT
-------------

Method             : SCF
Type of density    : Electron Density
Multiplicity       :   1
Irrep              :   0
Energy             :  -245.0360305236727072 Eh
Relativity type    : 
Basis              : AO
                                X                 Y                 Z
Electronic contribution:     -3.435168388      -0.001386636      -0.040344237
Nuclear contribution   :      4.877231642       0.002703944       0.042128275
                        -----------------------------------------
Total Dipole Moment    :      1.442063254       0.001317307       0.001784038
                        -----------------------------------------
Magnitude (a.u.)       :      1.442064959
Magnitude (Debye)      :      3.665437830



--------------------
Rotational spectrum 
--------------------
 
Rotational constants in cm-1:             0.410063             0.348982             0.195533 
Rotational constants in MHz :         12293.373246         10462.232020          5861.923767 

Dipole components along the rotational axes: 
x,y,z [a.u.] :     1.442051    -0.000223     0.006277 
x,y,z [Debye]:     3.665403    -0.000567     0.015956 

 

Dipole moment calculation done in   0.0 sec 

Maximum memory used throughout the entire PROP-calculation: 8.8 MB

--------------------------------
SUGGESTED CITATIONS FOR THIS RUN
--------------------------------

Below you find a list of papers that are relevant to this ORCA run
We neither can nor want to force you to cite these papers, but we appreciate if you do
You receive ORCA, which is the product of decades of hard work by many enthusiastic individuals, for free
The only thing we kindly ask in return is that you cite our papers,
We deeply appreciate it, if you show your appreciation for ORCA by not just citing the generic ORCA reference.

Please note that relegating all ORCA citations to the supporting information does *not* help us.
SI sections are not indexed - citations you put there will not count into any citation statistics
But we need these citations in order to attract the funding resources that allow us to do what we are doing

Therefore, if you are a happy ORCA user, please consider citing a few of the papers listed below in the main body of your paper

In addition to the list printed below, the program has created the file sp.bibtex that contains the list in bibtex format
You can import this file easily into all common literature databanks and citation aid programs


List of essential papers. We consider these as the minimum necessary citations

  1. Neese,F.
     Software update: the ORCA program system, version 5.0
     WIRES Comput. Molec. Sci., 2022 12(1)e1606
     doi.org/10.1002/wcms.1606

List of papers to cite with high priority. The work reported in these papers was absolutely
necessary for this run to complete.
Our perspective: the developers of density functionals and basis sets usually get cited in chemistry papers
Good! But without the algorithms to do something with them, the functionals or basis sets would not do anything.
Hence, in our opinion, the algorithm design and method developments papers are equally worthy of getting cited

  1. Neese,F.
     An improvement of the resolution of the identity approximation for the formation of the Coulomb matrix
     J. Comp. Chem., 2003 24(14)1740-1747
     doi.org/10.1002/jcc.10318
  2. Neese,F.; Wennmohs,F.; Hansen,A.; Becker,U.
     Efficient, approximate and parallel Hartree-Fock and hybrid DFT calculations. A 'chain-of-spheres' algorithm for the Hartree-Fock exchange
     Chem. Phys., 2009 356(1-3)98-109
     doi.org/10.1016/j.chemphys.2008.10.036
  3. Helmich-Paris,B.; de Souza,B.; Neese,F.; Izsák,R.
     An improved chain of spheres for exchange algorithm
     J. Chem. Phys., 2021 155 104109
     doi.org/doi: 10.1063/5.0058766.
  4. Neese,F.
     The SHARK Integral Generation and Digestion System
     J. Comp. Chem., 2022  1-16
     doi.org/10.1002/jcc.26942

List of suggested additional citations. These are papers that are important in the 'surrounding' of 
of this run, or papers that preceded the highly important papers. If you like your results we are grateful for a citation.

  1. Izsak,R.; Neese,F.
     An overlap fitted chain of spheres exchange method
     J. Chem. Phys., 2011 135 144105
     doi.org/10.1063/1.3646921
  2. Izsak,R.; Hansen,A.; Neese,F.
     The resolution of identity and chain of spheres approximations for the LPNO-CCSD singles Fock term
     Molec. Phys., 2012 110 2413-2417
     doi.org/10.1080/00268976.2012.687466
  3. Neese,F.
     The ORCA program system
     WIRES Comput. Molec. Sci., 2012 2(1)73-78
     doi.org/10.1002/wcms.81
  4. Izsak,R.; Neese,F.; Klopper,W.
     Robust fitting techniques in the chain of spheres approximation to the Fock exchange: The role of the complementary space
     J. Chem. Phys., 2013 139 
     doi.org/10.1063/1.4819264
  5. Neese,F.
     Software update: the ORCA program system, version 4.0
     WIRES Comput. Molec. Sci., 2018 8(1)1-6
     doi.org/10.1002/wcms.1327
  6. Neese,F.; Wennmohs,F.; Becker,U.; Riplinger,C.
     The ORCA quantum chemistry program package
     J. Chem. Phys., 2020 152 Art. No. L224108
     doi.org/10.1063/5.0004608

List of optional additional citations

  1. Neese,F.
     Approximate second-order SCF convergence for spin unrestricted wavefunctions
     Chem. Phys. Lett., 2000 325(1-3)93-98
     doi.org/10.1016/s0009-2614(00)00662-x

Timings for individual modules:

Sum of individual times          ...       13.588 sec (=   0.226 min)
Startup calculation              ...        0.326 sec (=   0.005 min)   2.4 %
SCF iterations                   ...       13.232 sec (=   0.221 min)  97.4 %
Property calculations            ...        0.031 sec (=   0.001 min)   0.2 %
                             ****ORCA TERMINATED NORMALLY****
TOTAL RUN TIME: 0 days 0 hours 0 minutes 13 seconds 628 msec
