
                                 *****************
                                 * O   R   C   A *
                                 *****************

                                            #,                                       
                                            ###                                      
                                            ####                                     
                                            #####                                    
                                            ######                                   
                                           ########,                                 
                                     ,,################,,,,,                         
                               ,,#################################,,                 
                          ,,##########################################,,             
                       ,#########################################, ''#####,          
                    ,#############################################,,   '####,        
                  ,##################################################,,,,####,       
                ,###########''''           ''''###############################       
              ,#####''   ,,,,##########,,,,          '''####'''          '####       
            ,##' ,,,,###########################,,,                        '##       
           ' ,,###''''                  '''############,,,                           
         ,,##''                                '''############,,,,        ,,,,,,###''
      ,#''                                            '''#######################'''  
     '                                                          ''''####''''         
             ,#######,   #######,   ,#######,      ##                                
            ,#'     '#,  ##    ##  ,#'     '#,    #''#        ,####,   ,####,        
            ##       ##  ##   ,#'  ##            #'  '#       #'       #'  '#        
            ##       ##  #######   ##           ,######,      #####,   #    #        
            '#,     ,#'  ##    ##  '#,     ,#' ,#      #,     #,   #   #,  ,#        
             '#######'   ##     ##  '#######'  #'      '#     '####' # '####'        



                #########################################################
                #                        -***-                          #
                #          Department of theory and spectroscopy        #
                #                                                       #
                #                      Frank Neese                      #
                #                                                       #
                #     Directorship, Architecture, Infrastructure        #
                #                    SHARK, DRIVERS                     #
                #        Core code/Algorithms in most modules           #
                #                                                       #
                #        Max Planck Institute fuer Kohlenforschung      #
                #                Kaiser Wilhelm Platz 1                 #
                #                 D-45470 Muelheim/Ruhr                 #
                #                      Germany                          #
                #                                                       #
                #                  All rights reserved                  #
                #                        -***-                          #
                #########################################################


                         Program Version 6.0.1  -  RELEASE   -


 With contributions from (in alphabetic order):
[Max-Planck-Institut fuer Kohlenforschung]                               
  Daniel Aravena         : Magnetic Suceptibility                        
  Michael Atanasov       : Ab Initio Ligand Field Theory (pilot matlab implementation)
  Alexander A. Auer      : GIAO ZORA, VPT2 properties, NMR spectrum      
  Ute Becker             : All parallelization in ORCA, NUMFREQ, NUMCALC 
  Giovanni Bistoni       : ED, misc. LED, open-shell LED, HFLD           
  Martin Brehm           : Molecular dynamics                            
  Dmytro Bykov           : pre 5.0 version of the SCF Hessian            
  Marcos Casanova-Páez   : Triplet and SCS-CIS(D). UHF-(DLPNO)-IP/EA/STEOM-CCSD. UHF-CVS-IP/STEOM-CCSD   
  Vijay G. Chilkuri      : MRCI spin determinant printing, contributions to CSF-ICE 
  Pauline Colinet        : FMM embedding                                 
  Dipayan Datta          : RHF DLPNO-CCSD density                        
  Achintya Kumar Dutta   : EOM-CC, STEOM-CC                              
  Nicolas Foglia         : Exact transition moments, OPA infrastructure, MCD improvements    
  Dmitry Ganyushin       : Spin-Orbit,Spin-Spin,Magnetic field MRCI      
  Miquel Garcia-Rates    : C-PCM and meta-GGA Hessian, CCSD/C-PCM, Gaussian charge scheme 
  Tiago L. C. Gouveia    : GS-ROHF, GS-ROCIS                             
  Yang Guo               : DLPNO-NEVPT2, F12-NEVPT2, CIM, IAO-localization        
  Andreas Hansen         : Spin unrestricted coupled pair/coupled cluster methods 
  Ingolf Harden          : AUTO-CI MPn and infrastructure                
  Benjamin Helmich-Paris : MC-RPA, TRAH-(SCF,CASSCF), AVAS, COSX integrals, SCF dyn. polar. 
  Lee Huntington         : MR-EOM, pCC                                   
  Robert Izsak           : Overlap fitted RIJCOSX, COSX-SCS-MP3, EOM     
  Riya Kayal             : Wick's Theorem for AUTO-CI, AUTO-CI UHF-CCSDT 
  Emily Kempfer          : AUTO-CI, RHF CISDT and CCSDT                  
  Christian Kollmar      : KDIIS, OOCD, Brueckner-CCSD(T), CCSD density, CASPT2, CASPT2-K, improved NEVPT2 
  Axel Koslowski         : Symmetry handling                             
  Simone Kossmann        : meta-GGA functionals, TD-DFT gradient, OOMP2, (MP2 Hessian; deprecated post 5.0) 
  Lucas Lang             : DCDCAS                                        
  Marvin Lechner         : AUTO-CI (C++ implementation), FIC-MRCC        
  Spencer Leger          : CASSCF response                               
  Dagmar Lenk            : GEPOL surface, SMD, ORCA-2-JSON               
  Dimitrios Liakos       : Extrapolation schemes; Compound Job, initial MDCI parallelization 
  Dimitrios Manganas     : Further ROCIS development; embedding schemes. LFT, Crystal Embedding 
  Dimitrios Pantazis     : SARC Basis sets                               
  Anastasios Papadopoulos: AUTO-CI, single reference methods and gradients 
  Taras Petrenko         : pre 6.0 DFT Hessian and TD-DFT gradient, (ASA, deprecated), ECA, 1-Electron XAS/XES, NRVS 
  Peter Pinski           : DLPNO-MP2, DLPNO-MP2 Gradient                 
  Christoph Reimann      : Effective Core Potentials                     
  Marius Retegan         : Local ZFS, SOC                                
  Christoph Riplinger    : Optimizer, TS searches, QM/MM, DLPNO-CCSD(T), (RO)-DLPNO pert. Triples 
  Michael Roemelt        : Original ROCIS implementation                 
  Masaaki Saitow         : Open-shell DLPNO-CCSD energy and density      
  Barbara Sandhoefer     : DKH picture change effects                    
  Kantharuban Sivalingam : CASSCF convergence/infrastructure, NEVPT2 and variants, FIC-MRCI 
  Bernardo de Souza      : ESD, SOC TD-DFT                               
  Georgi L. Stoychev     : AutoAux, RI-MP2 NMR, DLPNO-MP2 response, X2C  
  Van Anh Tran           : RI-MP2 g-tensors                              
  Willem Van den Heuvel  : Paramagnetic NMR                              
  Zikuan Wang            : NOTCH, Electric field optimization            
  Frank Wennmohs         : Technical directorship and infrastructure     
  Hang Xu                : AUTO-CI-Response properties                   
                                                                         
[FACCTs GmbH]                                                            
  Markus Bursch, Miquel Garcia-Rates, Christoph Riplinger, Bernardo de Souza, Georgi L. Stoychev 
                                                                 
  APM, Basis sets (HGBS, AHGBS, def-TZVP (Ac-Lr), def2-XVPD (La-Lu)), CI-OPT, improved COSX, DLPNO-Multilevel,           
  DOCKER, DRACO, updates on ESD, GOAT, IRC, LR-CPCM, MBIS, meta-GGA TD-DFT gradient, ML-optimized integration grids, 
  MM, NACMEs, nearIR, NEB, NEB-TS, NL-DFT gradient (VV10), 2- and 3-layer-ONIOM, interface openCOSMO-RS, QMMM,   
  Crystal-QMMM, SF, symmetry and pop. for TD-DFT, r2SCAN hybrids, SOLVATOR                                   
                                                                         
[Other institutions]                                                     
  V. Asgeirsson          : NEB                                           
  Christoph Bannwarth    : sTDA-DFT, sTD-DFT, PBEh-3c, B97-3c, D3        
  Sebastian Ehlert       : rSCAN, r2SCAN, r2SCAN-3c, D4, dhf basis sets  
  Marvin Friede          : D4 for Fr, Ra, Ac-Lr                          
  Lars Goerigk           : TD-DFT with DH, B97 family of functionals     
  Stefan Grimme          : VdW corrections, initial TS optimization, DFT functionals, gCP, sTDA/sTD-DF 
  Waldemar Hujo          : DFT-NL                                        
  H. Jonsson             : NEB                                           
  Holger Kruse           : gCP                                           
  Marcel Mueller         : wB97X-3c, vDZP basis set                      
  Hagen Neugebauer       : wr2SCAN                                       
  Tobias Risthaus        : range-separated hybrid DFT                    
  Lukas Wittmann         : regularized MP2, r2SCAN double-hybrids, wr2SCAN        
                                                                         
We gratefully acknowledge several colleagues who have allowed us to      
interface, adapt or use parts of their codes:                            
  Ed Valeev, F. Pavosevic, A. Kumar             : LibInt (2-el integral package), F12 methods 
  Garnet Chan, S. Sharma, J. Yang, R. Olivares  : DMRG                   
  Ulf Ekstrom                                   : XCFun DFT Library      
  Mihaly Kallay                                 : mrcc  (arbitrary order and MRCC methods)
  Frank Weinhold                                : gennbo (NPA and NBO analysis)           
  Simon Mueller                                 : openCOSMO-RS                            
  Christopher J. Cramer and Donald G. Truhlar   : smd solvation model                     
  S Lehtola, MJT Oliveira, MAL Marques          : LibXC Library                           
  Liviu Ungur et al                             : ANISO software                          


 Your calculation uses the libint2 library for the computation of 2-el integrals
 For citations please refer to: http://libint.valeyev.net

 Your ORCA version has been built with support for libXC version: 6.2.2
 For citations please refer to: https://libxc.gitlab.io

 This ORCA versions uses:
   CBLAS   interface :  Fast vector & matrix operations
   LAPACKE interface :  Fast linear algebra routines
   SCALAPACK package :  Parallel linear algebra routines
   Shared memory     :  Shared parallel matrices
   BLAS/LAPACK       :  OpenBLAS 0.3.27  USE64BITINT DYNAMIC_ARCH NO_AFFINITY Zen SINGLE_THREADED
        Core in use  :  Zen
   Copyright (c) 2011-2014, The OpenBLAS Project


Your calculation utilizes the geometrical counterpoise correction gCP
Please cite in your paper:
H.Kruse, S. Grimme J.Chem.Phys., 136, (2012), 154101 
   

Your calculation utilizes the atom-pairwise dispersion correction
based on EEQ partial charges (D4)


================================================================================

----- Orbital basis set information -----
Your calculation utilizes the basis: def2-mTZVPP
   Stefan Grimme, Andreas Hansen, Sebastian Ehlert, and Jan-Michael Mewes 
   J. Chem. Phys. 154, 064103 (2021). DOI: 10.1063/5.0040021

----- AuxJ basis set information -----
Your calculation utilizes the auxiliary basis: def2/J
   F. Weigend, Phys. Chem. Chem. Phys. 8, 1057 (2006).

================================================================================
                                        WARNINGS
                       Please study these warnings very carefully!
================================================================================

WARNING: Old DensityContainer found on disk!
         Will remove this file - 
         If you want to keep old densities, please start your calculation with a different basename. 



WARNING: SCAN, rSCAN, or r2SCAN functional requested.
  ===> : libXC variant has now been activated.



================================================================================
                                       INPUT FILE
================================================================================
NAME = sp.inp
|  1> ! r2scan-3c def2/J RI DEFGRID2 scfconv6 printgap
|  2> %output
|  3>     printlevel normal
|  4> end
|  5> * xyz 0 1
|  6> C -2.3028583345 0.2159044 0.5814887417
|  7> C -1.2823828465 0.5710786647 -0.499886942
|  8> C 0.0092480426 -0.1716823423 -0.2464799586
|  9> O 0.1423157837 -1.3653809639 -0.2959141486
| 10> O 1.0004809455 0.6773172983 0.0528416571
| 11> C 2.2741961375 0.1142938616 0.3385256819
| 12> H -1.9590633121 0.5545153152 1.5561043389
| 13> H -3.257562244 0.6889143848 0.3665691028
| 14> H -2.4437172274 -0.8614095624 0.6178171214
| 15> H -1.0823152237 1.6419466095 -0.5102110957
| 16> H -1.6640012459 0.2619215978 -1.4744600856
| 17> H 3.0172108006 0.8604363087 0.0659006851
| 18> H 2.4161658004 -0.8029908897 -0.236022139
| 19> H 2.3458610709 -0.1154884781 1.403501022
| 20> *
| 21> 
| 22>                          ****END OF INPUT****
================================================================================

                       ****************************
                       * Single Point Calculation *
                       ****************************

---------------------------------
CARTESIAN COORDINATES (ANGSTROEM)
---------------------------------
  C     -2.302858    0.215904    0.581489
  C     -1.282383    0.571079   -0.499887
  C      0.009248   -0.171682   -0.246480
  O      0.142316   -1.365381   -0.295914
  O      1.000481    0.677317    0.052842
  C      2.274196    0.114294    0.338526
  H     -1.959063    0.554515    1.556104
  H     -3.257562    0.688914    0.366569
  H     -2.443717   -0.861410    0.617817
  H     -1.082315    1.641947   -0.510211
  H     -1.664001    0.261922   -1.474460
  H      3.017211    0.860436    0.065901
  H      2.416166   -0.802991   -0.236022
  H      2.345861   -0.115488    1.403501

----------------------------
CARTESIAN COORDINATES (A.U.)
----------------------------
  NO LB      ZA    FRAG     MASS         X           Y           Z
   0 C     6.0000    0    12.011   -4.351772    0.408000    1.098854
   1 C     6.0000    0    12.011   -2.423352    1.079182   -0.944649
   2 C     6.0000    0    12.011    0.017476   -0.324433   -0.465780
   3 O     8.0000    0    15.999    0.268938   -2.580196   -0.559197
   4 O     8.0000    0    15.999    1.890635    1.279944    0.099856
   5 C     6.0000    0    12.011    4.297608    0.215984    0.639721
   6 H     1.0000    0     1.008   -3.702093    1.047882    2.940611
   7 H     1.0000    0     1.008   -6.155901    1.301860    0.692715
   8 H     1.0000    0     1.008   -4.617956   -1.627828    1.167505
   9 H     1.0000    0     1.008   -2.045279    3.102829   -0.964159
  10 H     1.0000    0     1.008   -3.144507    0.494960   -2.786326
  11 H     1.0000    0     1.008    5.701702    1.625989    0.124534
  12 H     1.0000    0     1.008    4.565892   -1.517433   -0.446017
  13 H     1.0000    0     1.008    4.433035   -0.218242    2.652233

--------------------------------
INTERNAL COORDINATES (ANGSTROEM)
--------------------------------
 C      0   0   0     0.000000000000     0.00000000     0.00000000
 C      1   0   0     1.528689749168     0.00000000     0.00000000
 C      2   1   0     1.511363413092   109.73722619     0.00000000
 O      3   2   1     1.202109463432   125.14999896    65.25427407
 O      3   2   1     1.339005783093   111.00956672   245.65052815
 C      5   3   2     1.421605128941   117.19831047   178.97682938
 H      1   2   3     1.087532956570   110.52227619    64.04589417
 H      1   2   3     1.086916947940   110.20399891   184.12082380
 H      1   2   3     1.087090774711   109.90039543   304.15147717
 H      2   1   3     1.089445637488   110.95720067   239.31934402
 H      2   1   3     1.091331071216   109.41806914   118.35659940
 H      6   5   3     1.087714912018   106.85723800   152.06799248
 H      6   5   3     1.091637255984   110.09311919    31.63341463
 H      6   5   3     1.091837103848   109.76564083   271.46357460

---------------------------
INTERNAL COORDINATES (A.U.)
---------------------------
 C      0   0   0     0.000000000000     0.00000000     0.00000000
 C      1   0   0     2.888804969661     0.00000000     0.00000000
 C      2   1   0     2.856062939572   109.73722619     0.00000000
 O      3   2   1     2.271657668881   125.14999896    65.25427407
 O      3   2   1     2.530354221782   111.00956672   245.65052815
 C      5   3   2     2.686444364276   117.19831047   178.97682938
 H      1   2   3     2.055139449530   110.52227619    64.04589417
 H      1   2   3     2.053975361925   110.20399891   184.12082380
 H      1   2   3     2.054303846917   109.90039543   304.15147717
 H      2   1   3     2.058753892648   110.95720067   239.31934402
 H      2   1   3     2.062316846037   109.41806914   118.35659940
 H      6   5   3     2.055483295496   106.85723800   152.06799248
 H      6   5   3     2.062895451395   110.09311919    31.63341463
 H      6   5   3     2.063273109126   109.76564083   271.46357460

---------------------
BASIS SET INFORMATION
---------------------
There are 3 groups of distinct atoms

 Group   1 Type C   : 11s6p1d contracted to 5s3p1d pattern {62111/411/1}
 Group   2 Type O   : 11s6p2d contracted to 5s3p2d pattern {62111/411/11}
 Group   3 Type H   : 4s1p contracted to 2s1p pattern {31/1}

Atom   0C    basis set group =>   1
Atom   1C    basis set group =>   1
Atom   2C    basis set group =>   1
Atom   3O    basis set group =>   2
Atom   4O    basis set group =>   2
Atom   5C    basis set group =>   1
Atom   6H    basis set group =>   3
Atom   7H    basis set group =>   3
Atom   8H    basis set group =>   3
Atom   9H    basis set group =>   3
Atom  10H    basis set group =>   3
Atom  11H    basis set group =>   3
Atom  12H    basis set group =>   3
Atom  13H    basis set group =>   3
---------------------------------
AUXILIARY/J BASIS SET INFORMATION
---------------------------------
There are 3 groups of distinct atoms

 Group   1 Type C   : 12s5p4d2f1g contracted to 6s4p3d1f1g pattern {711111/2111/211/2/1}
 Group   2 Type O   : 12s5p4d2f1g contracted to 6s4p3d1f1g pattern {711111/2111/211/2/1}
 Group   3 Type H   : 5s2p1d contracted to 3s1p1d pattern {311/2/1}

Atom   0C    basis set group =>   1
Atom   1C    basis set group =>   1
Atom   2C    basis set group =>   1
Atom   3O    basis set group =>   2
Atom   4O    basis set group =>   2
Atom   5C    basis set group =>   1
Atom   6H    basis set group =>   3
Atom   7H    basis set group =>   3
Atom   8H    basis set group =>   3
Atom   9H    basis set group =>   3
Atom  10H    basis set group =>   3
Atom  11H    basis set group =>   3
Atom  12H    basis set group =>   3
Atom  13H    basis set group =>   3

Checking for AutoStart:
The File: sp.gbw exists
Trying to determine its content:
     ... Fine, the file contains calculation information
     ... Fine, the calculation information was read
     ... Fine, the file contains a basis set
     ... Fine, the basis set was read
     ... Fine, the file contains a geometry
     ... Fine, the geometry was read
     ... Fine, the file contains a set of orbitals
     ... Fine, the orbitals can be read
     => possible old guess file was deleted
     => GBW file was renamed to GES file
     => GES file is set as startup file
     => Guess is set to MORead
     ... now leaving AutoStart

------------------------------------------------------------------------------
                             ORCA STARTUP CALCULATIONS
                           -- RI-GTO INTEGRALS CHOSEN --
------------------------------------------------------------------------------
------------------------------------------------------------------------------
                   ___                                                        
                  /   \      - P O W E R E D   B Y -                         
                 /     \                                                     
                 |  |  |   _    _      __       _____    __    __             
                 |  |  |  | |  | |    /  \     |  _  \  |  |  /  |          
                  \  \/   | |  | |   /    \    | | | |  |  | /  /          
                 / \  \   | |__| |  /  /\  \   | |_| |  |  |/  /          
                |  |  |   |  __  | /  /__\  \  |    /   |      \           
                |  |  |   | |  | | |   __   |  |    \   |  |\   \          
                \     /   | |  | | |  |  |  |  | |\  \  |  | \   \       
                 \___/    |_|  |_| |__|  |__|  |_| \__\ |__|  \__/        
                                                                              
                      - O R C A' S   B I G   F R I E N D -                    
                                      &                                       
                       - I N T E G R A L  F E E D E R -                       
                                                                              
 v1 FN, 2020, v2 2021, v3 2022-2024                                           
------------------------------------------------------------------------------


----------------------
SHARK INTEGRAL PACKAGE
----------------------

Number of atoms                             ...     14
Number of basis functions                   ...    164
Number of shells                            ...     80
Maximum angular momentum                    ...      2
Integral batch strategy                     ... SHARK/LIBINT Hybrid
RI-J (if used) integral strategy            ... SPLIT-RIJ (Revised 2003 algorithm where possible)
Printlevel                                  ...      1
Contraction scheme used                     ... SEGMENTED contraction
Prescreening option                         ... SCHWARTZ
   Thresh                                   ... 1.000e-10
   Tcut                                     ... 1.000e-11
   Tpresel                                  ... 1.000e-11 
Coulomb Range Separation                    ... NOT USED
Exchange Range Separation                   ... NOT USED
Multipole approximations                    ... NOT USED
Finite Nucleus Model                        ... NOT USED
CABS basis                                  ... NOT available
Auxiliary Coulomb fitting basis             ... AVAILABLE
   # of basis functions in Aux-J            ...    382
   # of shells in Aux-J                     ...    130
   Maximum angular momentum in Aux-J        ...      4
Auxiliary J/K fitting basis                 ... NOT available
Auxiliary Correlation fitting basis         ... NOT available
Auxiliary 'external' fitting basis          ... NOT available

Checking pre-screening integrals            ... done (  0.0 sec) Dimension = 80
Check shell pair data                       ... done (  0.0 sec)
Shell pair information
Shell pair cut-off parameter TPreSel        ...   1.0e-11
Total number of shell pairs                 ...      3240
Shell pairs after pre-screening             ...      2982
Total number of primitive shell pairs       ...     11481
Primitive shell pairs kept                  ...      7802
          la=0 lb=0:    976 shell pairs
          la=1 lb=0:   1097 shell pairs
          la=1 lb=1:    323 shell pairs
          la=2 lb=0:    350 shell pairs
          la=2 lb=1:    200 shell pairs
          la=2 lb=2:     36 shell pairs

Calculating one electron integrals          ... done (  0.0 sec)
Calculating RI/J V-Matrix + Cholesky decomp.... done (  0.0 sec)
Calculating Nuclear repulsion               ... done (  0.0 sec) ENN=    246.571994664992 Eh

Diagonalization of the overlap matrix:
Smallest eigenvalue                        ... 2.694e-04
Time for diagonalization                   ...    0.003 sec
Threshold for overlap eigenvalues          ... 1.000e-07
Number of eigenvalues below threshold      ... 0
Time for construction of square roots      ...    0.001 sec
Total time needed                          ...    0.006 sec

-------------------
DFT GRID GENERATION
-------------------

General Integration Accuracy     IntAcc      ... 4.388
Radial Grid Type                 RadialGrid  ... OptM3 with GC (2021)
Angular Grid (max. ang.)         AngularGrid ... 4 (Lebedev-302)
Angular grid pruning method      GridPruning ... 4 (adaptive)
Weight generation scheme         WeightScheme... mBecke (2022)
Basis function cutoff            BFCut       ... 1.0000e-10
Integration weight cutoff        WCut        ... 1.0000e-14
Partially contracted basis set               ... off
Rotationally invariant grid construction     ... off
Angular grids for H and He will be reduced by one unit
Diffuse basis detected: some atoms will have their outermost
                        angular grid increased by 1.

Total number of grid points                  ...    62776
Total number of batches                      ...      988
Average number of points per batch           ...       63
Average number of grid points per atom       ...     4484
Initializing property integral containers    ... done (  0.0 sec)

SHARK setup successfully completed in   0.6 seconds

Maximum memory used throughout the entire STARTUP-calculation: 28.4 MB
-------------------------------------------------------------------------------
                                 ORCA GUESS
                   Start orbitals & Density for SCF / CASSCF
-------------------------------------------------------------------------------

------------
SCF SETTINGS
------------
Hamiltonian:
 Density Functional     Method          .... DFT(GTOs)
  Functional kind                       .... Exchange
  Functional name                       .... Re-regularized SCAN exchange by Furness et al
  Functional family                     .... MGGA
  Functional refs                              
    [ 0] J. W. Furness, A. D. Kaplan, J. Ning, J. P. Perdew, and J. Sun.,  J. Phys. Chem. Lett. 11, 8208-8215 (2020), doi: 10.1021/acs.jpclett.0c02405
    [ 1] J. W. Furness, A. D. Kaplan, J. Ning, J. P. Perdew, and J. Sun.,  J. Phys. Chem. Lett. 11, 9248-9248 (2020), doi: 10.1021/acs.jpclett.0c03077
  Functional external parameters        .... 6
    Parameter  0 _c1        =  6.670000e-01 : c1 parameter        
    Parameter  1 _c2        =  8.000000e-01 : c2 parameter        
    Parameter  2 _d         =  1.240000e+00 : d parameter         
    Parameter  3 _k1        =  6.500000e-02 : k1 parameter        
    Parameter  4 _eta       =  1.000000e-03 : eta parameter       
    Parameter  5 _dp2       =  3.610000e-01 : dp2 parameter       
  Functional kind                       .... Correlation
  Functional name                       .... Re-regularized SCAN correlation by Furness et al
  Functional family                     .... MGGA
  Functional refs                              
    [ 0] J. W. Furness, A. D. Kaplan, J. Ning, J. P. Perdew, and J. Sun.,  J. Phys. Chem. Lett. 11, 8208-8215 (2020), doi: 10.1021/acs.jpclett.0c02405
    [ 1] J. W. Furness, A. D. Kaplan, J. Ning, J. P. Perdew, and J. Sun.,  J. Phys. Chem. Lett. 11, 9248-9248 (2020), doi: 10.1021/acs.jpclett.0c03077
  Functional external parameters        .... 1
    Parameter  0 _eta       =  1.000000e-03 : Regularization parameter
 Gradients option       PostSCFGGA      .... off
 RI-approximation to the Coulomb term is turned on
   Number of AuxJ basis functions       .... 382


General Settings:
 Integral files         IntName         .... sp
 Hartree-Fock type      HFTyp           .... RHF
 Total Charge           Charge          ....    0
 Multiplicity           Mult            ....    1
 Number of Electrons    NEL             ....   48
 Basis Dimension        Dim             ....  164
 Nuclear Repulsion      ENuc            ....    246.5719946650 Eh

Convergence Acceleration:
 AO-DIIS                CNVDIIS         .... on
   Start iteration      DIISMaxIt       ....    12
   Startup error        DIISStart       ....  0.200000
   # of expansion vecs  DIISMaxEq       ....     5
   Bias factor          DIISBfac        ....   1.050
   Max. coefficient     DIISMaxC        ....  10.000
 MO-DIIS                CNVKDIIS        .... off
 Trust-Rad. Augm. Hess. CNVTRAH         .... auto
   Auto Start mean grad. ratio tolernc. ....  1.125000
   Auto Start start iteration           ....     1
   Auto Start num. interpolation iter.  ....    10
   Max. Number of Micro iterations      ....    24
   Max. Number of Macro iterations      .... Maxiter - #DIIS iter
   Number of Davidson start vectors     ....     2
   Converg. threshold    (grad. norm)   ....   3.330e-04
   Grad. Scal. Fac. for Micro threshold ....   0.100
   Minimum threshold for Micro iter.    ....   1.000e-02
   NR start threshold (gradient norm)   ....   1.000e-04
   Initial trust radius                 ....   0.400
   Minimum AH scaling param. (alpha)    ....   1.000
   Maximum AH scaling param. (alpha)    .... 1000.000
   Quad. conv. algorithm                .... NR
   White noise on init. David. guess    .... on
   Maximum white noise                  ....   0.010
   Pseudo random numbers                .... off
   Inactive MOs                         .... canonical
   Orbital update algorithm             .... Taylor
   Preconditioner                       .... Diag
   Full preconditioner red. dimension   ....   250
   COSX micro iterations for RIJONX calc.... off
 SOSCF                  CNVSOSCF        .... on
   Start iteration      SOSCFMaxIt      ....   150
   Startup grad/error   SOSCFStart      ....  0.003300
   Hessian update       SOSCFHessUp     .... L-BFGS
 Level Shifting         CNVShift        .... on
   Level shift para.    LevelShift      ....    0.2500
   Turn off err/grad.   ShiftErr        ....    0.0010
 Zerner damping         CNVZerner       .... off
 Static damping         CNVDamp         .... on
   Fraction old density DampFac         ....    0.7000
   Max. Damping (<1)    DampMax         ....    0.9800
   Min. Damping (>=0)   DampMin         ....    0.0000
   Turn off err/grad.   DampErr         ....    0.1000

SCF Procedure:
 Maximum # iterations   MaxIter         ....   125
 SCF integral mode      SCFMode         .... Direct
   Integral package                     .... SHARK and LIBINT hybrid scheme
 Reset frequency        DirectResetFreq ....    20
 Integral Threshold     Thresh          ....  1.000e-10 Eh
 Primitive CutOff       TCut            ....  1.000e-11 Eh

Convergence Tolerance:
 Convergence Check Mode ConvCheckMode   .... Total+1el-Energy
 Convergence forced     ConvForced      .... 0
 Energy Change          TolE            ....  1.000e-06 Eh
 1-El. energy change                    ....  1.000e-03 Eh
 Orbital Gradient       TolG            ....  3.330e-04
 Orbital Rotation angle TolX            ....  3.330e-04
 DIIS Error             TolErr          ....  1.000e-06

---------------------
INITIAL GUESS: MOREAD
---------------------
Guess MOs are being read from file: sp.ges
Input Geometry matches current geometry (good)
Atom 0: N(Shells)= 9 and 6 - projection required
Input basis set needs projection
NBasis(read)= 100
NBasis(calc)= 164
Basis set overlap was calculated
Using GuessMode=FMatrix for the initial guess
C*T matrix was formed
Effective Fockian was calculated
Effective Fockian was diagonalized
Initial density was built
                      ------------------
                      INITIAL GUESS DONE (   0.0 sec)
                      ------------------
             **** ENERGY FILE WAS UPDATED (sp.en.tmp) ****
Finished Guess after   0.1 sec
Maximum memory used throughout the entire GUESS-calculation: 11.5 MB

-------------------------------------------------------------------------------------------
                                      ORCA LEAN-SCF
                              memory conserving SCF solver
-------------------------------------------------------------------------------------------

----------------------------------------D-I-I-S--------------------------------------------
Iteration    Energy (Eh)           Delta-E    RMSDP     MaxDP     DIISErr   Damp  Time(sec)
-------------------------------------------------------------------------------------------
               ***  Starting incremental Fock matrix formation  ***
    1    -307.4836022842436591     0.00e+00  3.62e-03  1.20e-01  6.26e-01  0.700   1.7
    2    -307.5294364197313257    -4.58e-02  2.98e-03  8.95e-02  4.40e-01  0.700   1.3
    3    -307.5618274444654503    -3.24e-02  2.19e-03  6.34e-02  3.08e-01  0.700   1.2
    4    -307.5845671359492712    -2.27e-02  1.57e-03  4.47e-02  2.16e-01  0.700   1.4
                               ***Turning on AO-DIIS***
    5    -307.6005162462753901    -1.59e-02  1.14e-03  3.21e-02  1.51e-01  0.700   1.2
    6    -307.6116948895445944    -1.12e-02  8.08e-04  2.26e-02  1.06e-01  0.700   1.5
    7    -307.6195308960549823    -7.84e-03  5.70e-04  1.59e-02  7.40e-02  0.700   1.2
    8    -307.6250206185601996    -5.49e-03  1.34e-03  3.71e-02  5.19e-02  0.000   1.3
                              *** Initializing SOSCF ***
---------------------------------------S-O-S-C-F--------------------------------------
Iteration    Energy (Eh)           Delta-E    RMSDP     MaxDP     MaxGrad    Time(sec)
--------------------------------------------------------------------------------------
    9    -307.6378456293155637    -1.28e-02  7.88e-06  2.63e-04  7.62e-05     1.8
                  *** Gradient check signals convergence ***

               *****************************************************
               *                     SUCCESS                       *
               *           SCF CONVERGED AFTER   9 CYCLES          *
               *****************************************************

             **** ENERGY FILE WAS UPDATED (sp.en.tmp) ****

----------------
TOTAL SCF ENERGY
----------------

Total Energy       :       -307.63784562931556 Eh           -8371.25137 eV

Components:
Nuclear Repulsion  :        246.57199466499168 Eh            6709.56508 eV
Electronic Energy  :       -554.20984029430724 Eh          -15080.81645 eV
One Electron Energy:       -906.59024488806313 Eh          -24669.57474 eV
Two Electron Energy:        352.38040459375588 Eh            9588.75829 eV

Virial components:
Potential Energy   :       -614.07875549763639 Eh          -16709.93245 eV
Kinetic Energy     :        306.44090986832083 Eh            8338.68109 eV
Virial Ratio       :          2.00390592679518

DFT components:
N(Alpha)           :       23.999997871637 electrons
N(Beta)            :       23.999997871637 electrons
N(Total)           :       47.999995743275 electrons
E(X)               :      -40.237717838564 Eh       
E(C)               :       -1.538673714806 Eh       
E(XC)              :      -41.776391553370 Eh       

---------------
SCF CONVERGENCE
---------------

  Last Energy change         ...    1.2825e-02  Tolerance :   1.0000e-06
  Last MAX-Density change    ...    2.6277e-04  Tolerance :   1.0000e-05
  Last RMS-Density change    ...    7.8806e-06  Tolerance :   1.0000e-06
  Last DIIS Error            ...    7.6249e-05  Tolerance :   1.0000e-06
  Last Orbital Gradient      ...    7.6249e-05  Tolerance :   3.3300e-04
  Last Orbital Rotation      ...    7.6249e-05  Tolerance :   3.3300e-04


----------------
ORBITAL ENERGIES
----------------

  NO   OCC          E(Eh)            E(eV) 
   0   2.0000     -18.999696      -517.0080 
   1   2.0000     -18.932338      -515.1751 
   2   2.0000     -10.153450      -276.2894 
   3   2.0000     -10.084304      -274.4079 
   4   2.0000     -10.044703      -273.3303 
   5   2.0000     -10.030094      -272.9327 
   6   2.0000      -1.074041       -29.2261 
   7   2.0000      -0.983581       -26.7646 
   8   2.0000      -0.759781       -20.6747 
   9   2.0000      -0.695263       -18.9191 
  10   2.0000      -0.610858       -16.6223 
  11   2.0000      -0.532520       -14.4906 
  12   2.0000      -0.472160       -12.8481 
  13   2.0000      -0.453459       -12.3393 
  14   2.0000      -0.447454       -12.1758 
  15   2.0000      -0.414108       -11.2684 
  16   2.0000      -0.400244       -10.8912 
  17   2.0000      -0.378457       -10.2983 
  18   2.0000      -0.345879        -9.4118 
  19   2.0000      -0.335339        -9.1250 
  20   2.0000      -0.325303        -8.8519 
  21   2.0000      -0.316594        -8.6150 
  22   2.0000      -0.275105        -7.4860 
  23   2.0000      -0.240601        -6.5471 
  24   0.0000      -0.016081        -0.4376 
  25   0.0000       0.067735         1.8432 
  26   0.0000       0.099592         2.7100 
  27   0.0000       0.120191         3.2706 
  28   0.0000       0.129979         3.5369 
  29   0.0000       0.143454         3.9036 
  30   0.0000       0.160054         4.3553 
  31   0.0000       0.170761         4.6466 
  32   0.0000       0.176465         4.8019 
  33   0.0000       0.180514         4.9120 
  34   0.0000       0.182819         4.9748 
*Only the first 10 virtual orbitals were printed.

                    ********************************
                    * MULLIKEN POPULATION ANALYSIS *
                    ********************************

-----------------------
MULLIKEN ATOMIC CHARGES
-----------------------
   0 C :   -0.461709
   1 C :   -0.292709
   2 C :    0.410713
   3 O :   -0.426804
   4 O :   -0.189945
   5 C :   -0.300962
   6 H :    0.145653
   7 H :    0.151265
   8 H :    0.169452
   9 H :    0.160422
  10 H :    0.159842
  11 H :    0.148179
  12 H :    0.176174
  13 H :    0.150431
Sum of atomic charges:   -0.0000000

--------------------------------
MULLIKEN REDUCED ORBITAL CHARGES
--------------------------------
  0 C s       :     3.319558  s :     3.319558
      pz      :     0.998486  p :     3.115348
      px      :     1.017221
      py      :     1.099642
      dz2     :     0.007631  d :     0.026802
      dxz     :     0.005760
      dyz     :     0.002781
      dx2y2   :     0.006527
      dxy     :     0.004103

  1 C s       :     3.217364  s :     3.217364
      pz      :     1.030324  p :     3.040577
      px      :     0.960569
      py      :     1.049684
      dz2     :     0.009053  d :     0.034768
      dxz     :     0.006483
      dyz     :     0.003646
      dx2y2   :     0.007819
      dxy     :     0.007767

  2 C s       :     3.134039  s :     3.134039
      pz      :     0.750032  p :     2.329944
      px      :     0.820039
      py      :     0.759873
      dz2     :     0.007293  d :     0.125304
      dxz     :     0.009467
      dyz     :     0.027601
      dx2y2   :     0.028087
      dxy     :     0.052856

  3 O s       :     3.838395  s :     3.838395
      pz      :     1.473156  p :     4.567086
      px      :     1.781828
      py      :     1.312102
      dz2     :     0.003680  d :     0.021322
      dxz     :     0.000945
      dyz     :     0.008806
      dx2y2   :     0.008056
      dxy     :    -0.000163

  4 O s       :     3.707246  s :     3.707246
      pz      :     1.711498  p :     4.456689
      px      :     1.131796
      py      :     1.613395
      dz2     :     0.005419  d :     0.026010
      dxz     :     0.000127
      dyz     :     0.005697
      dx2y2   :     0.004855
      dxy     :     0.009912

  5 C s       :     3.315280  s :     3.315280
      pz      :     1.099785  p :     2.941765
      px      :     0.777083
      py      :     1.064897
      dz2     :     0.009248  d :     0.043918
      dxz     :     0.007713
      dyz     :     0.005447
      dx2y2   :     0.009402
      dxy     :     0.012108

  6 H s       :     0.836136  s :     0.836136
      pz      :     0.009643  p :     0.018211
      px      :     0.004204
      py      :     0.004364

  7 H s       :     0.830428  s :     0.830428
      pz      :     0.003828  p :     0.018307
      px      :     0.009433
      py      :     0.005046

  8 H s       :     0.812364  s :     0.812364
      pz      :     0.003538  p :     0.018184
      px      :     0.003593
      py      :     0.011053

  9 H s       :     0.821781  s :     0.821781
      pz      :     0.003327  p :     0.017797
      px      :     0.003490
      py      :     0.010979

 10 H s       :     0.822164  s :     0.822164
      pz      :     0.009679  p :     0.017994
      px      :     0.004383
      py      :     0.003932

 11 H s       :     0.834143  s :     0.834143
      pz      :     0.004111  p :     0.017678
      px      :     0.006673
      py      :     0.006894

 12 H s       :     0.805534  s :     0.805534
      pz      :     0.005619  p :     0.018292
      px      :     0.002749
      py      :     0.009924

 13 H s       :     0.831949  s :     0.831949
      pz      :     0.011216  p :     0.017620
      px      :     0.002448
      py      :     0.003956


------------------------
MULLIKEN OVERLAP CHARGES
------------------------
B(  0-C ,  1-C ) :   0.4809 B(  0-C ,  2-C ) :  -0.1156 B(  0-C ,  6-H ) :   0.8254 
B(  0-C ,  7-H ) :   0.8207 B(  0-C ,  8-H ) :   0.8457 B(  0-C , 10-H ) :  -0.0615 
B(  1-C ,  2-C ) :   0.5047 B(  1-C ,  3-O ) :  -0.1255 B(  1-C ,  4-O ) :  -0.0764 
B(  1-C ,  6-H ) :  -0.0733 B(  1-C ,  7-H ) :  -0.0996 B(  1-C ,  8-H ) :  -0.0620 
B(  1-C ,  9-H ) :   0.8671 B(  1-C , 10-H ) :   0.8191 B(  2-C ,  3-O ) :   0.9592 
B(  2-C ,  4-O ) :   0.3888 B(  2-C ,  5-C ) :  -0.2046 B(  2-C ,  9-H ) :  -0.1396 
B(  3-O ,  4-O ) :  -0.2276 B(  4-O ,  5-C ) :   0.3543 B(  4-O , 11-H ) :  -0.0857 
B(  4-O , 12-H ) :  -0.0583 B(  4-O , 13-H ) :  -0.0727 B(  5-C , 11-H ) :   0.7958 
B(  5-C , 12-H ) :   0.8410 B(  5-C , 13-H ) :   0.8010 B( 12-H , 13-H ) :  -0.0525 



                     *******************************
                     * LOEWDIN POPULATION ANALYSIS *
                     *******************************

----------------------
LOEWDIN ATOMIC CHARGES
----------------------
   0 C :   -0.393901
   1 C :   -0.237736
   2 C :    0.354411
   3 O :   -0.423009
   4 O :   -0.606296
   5 C :   -0.048468
   6 H :    0.154790
   7 H :    0.152528
   8 H :    0.163587
   9 H :    0.174069
  10 H :    0.176569
  11 H :    0.174599
  12 H :    0.187242
  13 H :    0.171616

-------------------------------
LOEWDIN REDUCED ORBITAL CHARGES
-------------------------------
  0 C s       :     2.969383  s :     2.969383
      pz      :     1.105666  p :     3.361720
      px      :     1.096951
      py      :     1.159103
      dz2     :     0.017694  d :     0.062798
      dxz     :     0.013723
      dyz     :     0.006150
      dx2y2   :     0.015729
      dxy     :     0.009502

  1 C s       :     2.927513  s :     2.927513
      pz      :     1.108133  p :     3.236566
      px      :     1.026260
      py      :     1.102173
      dz2     :     0.019141  d :     0.073658
      dxz     :     0.014645
      dyz     :     0.006692
      dx2y2   :     0.017833
      dxy     :     0.015346

  2 C s       :     2.738967  s :     2.738967
      pz      :     0.719386  p :     2.634034
      px      :     0.927817
      py      :     0.986830
      dz2     :     0.019222  d :     0.272588
      dxz     :     0.016832
      dyz     :     0.052640
      dx2y2   :     0.065363
      dxy     :     0.118531

  3 O s       :     3.541370  s :     3.541370
      pz      :     1.452872  p :     4.661665
      px      :     1.721896
      py      :     1.486897
      dz2     :     0.028090  d :     0.219975
      dxz     :     0.007820
      dyz     :     0.044897
      dx2y2   :     0.067859
      dxy     :     0.071309

  4 O s       :     3.473792  s :     3.473792
      pz      :     1.691317  p :     4.666374
      px      :     1.341578
      py      :     1.633479
      dz2     :     0.061530  d :     0.466131
      dxz     :     0.092544
      dyz     :     0.042967
      dx2y2   :     0.136072
      dxy     :     0.133018

  5 C s       :     2.904073  s :     2.904073
      pz      :     1.099672  p :     3.038593
      px      :     0.865934
      py      :     1.072988
      dz2     :     0.023359  d :     0.105801
      dxz     :     0.016508
      dyz     :     0.013416
      dx2y2   :     0.021820
      dxy     :     0.030698

  6 H s       :     0.801832  s :     0.801832
      pz      :     0.023688  p :     0.043378
      px      :     0.009692
      py      :     0.009997

  7 H s       :     0.803940  s :     0.803940
      pz      :     0.008565  p :     0.043532
      px      :     0.023087
      py      :     0.011880

  8 H s       :     0.792334  s :     0.792334
      pz      :     0.007770  p :     0.044079
      px      :     0.007899
      py      :     0.028410

  9 H s       :     0.782094  s :     0.782094
      pz      :     0.007863  p :     0.043838
      px      :     0.008195
      py      :     0.027781

 10 H s       :     0.779748  s :     0.779748
      pz      :     0.023809  p :     0.043683
      px      :     0.010539
      py      :     0.009334

 11 H s       :     0.785346  s :     0.785346
      pz      :     0.009148  p :     0.040055
      px      :     0.013583
      py      :     0.017325

 12 H s       :     0.769227  s :     0.769227
      pz      :     0.013727  p :     0.043531
      px      :     0.006132
      py      :     0.023672

 13 H s       :     0.787894  s :     0.787894
      pz      :     0.026676  p :     0.040489
      px      :     0.005247
      py      :     0.008566


---------------------------------
LOEWDIN BOND ORDERS (THRESH 0.050000)
---------------------------------
B(  0-C ,  1-C ) :   1.1199 B(  0-C ,  2-C ) :   0.0779 B(  0-C ,  6-H ) :   0.9279 
B(  0-C ,  7-H ) :   0.9277 B(  0-C ,  8-H ) :   0.9215 B(  1-C ,  2-C ) :   0.9221 
B(  1-C ,  3-O ) :   0.1816 B(  1-C ,  4-O ) :   0.1851 B(  1-C ,  9-H ) :   0.8719 
B(  1-C , 10-H ) :   0.8725 B(  2-C ,  3-O ) :   2.2026 B(  2-C ,  4-O ) :   1.4337 
B(  2-C ,  5-C ) :   0.0883 B(  3-O ,  4-O ) :   0.4599 B(  3-O ,  5-C ) :   0.0737 
B(  4-O ,  5-C ) :   1.3674 B(  4-O , 11-H ) :   0.1004 B(  4-O , 12-H ) :   0.0975 
B(  4-O , 13-H ) :   0.1018 B(  5-C , 11-H ) :   0.8660 B(  5-C , 12-H ) :   0.8437 
B(  5-C , 13-H ) :   0.8632 

------------------------------------------
LOEWDIN REDUCED ORBITAL POPULATIONS PER MO
-------------------------------------------
THRESHOLD FOR PRINTING IS 0.1%%
                      0         1         2         3         4         5   
                 -18.99970 -18.93234 -10.15345 -10.08430 -10.04470 -10.03009
                   2.00000   2.00000   2.00000   2.00000   2.00000   2.00000
                  --------  --------  --------  --------  --------  --------
 0 C  s               0.0       0.0       0.0       0.0       0.0      99.7
 1 C  s               0.0       0.0       0.0       0.0      99.7       0.0
 2 C  s               0.0       0.0      98.9       0.0       0.0       0.0
 3 O  s               0.0      99.9       0.0       0.0       0.0       0.0
 3 O  py              0.0       0.0       0.2       0.0       0.0       0.0
 3 O  dx2y2           0.0       0.0       0.2       0.0       0.0       0.0
 4 O  s              99.9       0.0       0.0       0.0       0.0       0.0
 4 O  dxy             0.0       0.0       0.2       0.1       0.0       0.0
 5 C  s               0.0       0.0       0.0      99.4       0.0       0.0

                      6         7         8         9        10        11   
                  -1.07404  -0.98358  -0.75978  -0.69526  -0.61086  -0.53252
                   2.00000   2.00000   2.00000   2.00000   2.00000   2.00000
                  --------  --------  --------  --------  --------  --------
 0 C  s               0.1       0.0      17.2      10.6      18.9       0.8
 0 C  pz              0.1       0.0       1.4       0.1       2.6       2.0
 0 C  px              0.2       0.1       1.5       0.0       2.7       0.2
 0 C  py              0.0       0.0       0.2       0.0       0.2       0.2
 1 C  s               1.0       0.2      27.8       2.1       8.8       2.7
 1 C  pz              0.1       0.0       1.0       0.4       4.6       2.2
 1 C  px              1.6       0.0       0.1       4.0       5.3       1.4
 1 C  py              0.3       0.5       0.2       0.1       0.1       0.3
 1 C  dxz             0.0       0.0       0.0       0.1       0.1       0.0
 2 C  s              16.6       3.7       3.9       2.2       1.8       3.6
 2 C  pz              0.3       0.4       0.1       0.1       1.2       0.8
 2 C  px              4.4       1.5       6.8       1.3       4.9       2.1
 2 C  py              0.1      21.5       5.7       3.0       1.2       1.9
 2 C  dz2             0.5       0.1       0.0       0.0       0.0       0.0
 2 C  dx2y2           0.1       1.2       0.1       0.0       0.0       0.0
 2 C  dxy             0.3       0.5       0.0       0.2       0.2       0.0
 3 O  s              13.5      40.4       1.8       0.3       0.5       2.1
 3 O  pz              0.0       0.0       0.0       0.0       0.1       0.3
 3 O  px              0.0       0.1       0.2       0.0       0.4       0.8
 3 O  py              3.3       3.5       0.5       0.2       0.4       2.4
 3 O  dz2             0.4       0.0       0.1       0.0       0.1       0.1
 3 O  dx2y2           0.8       0.1       0.2       0.5       0.0       0.2
 3 O  dxy             0.1       0.2       0.5       0.0       0.3       0.1
 4 O  s              40.5      18.1       0.1       0.7       1.7       5.0
 4 O  pz              0.0       0.1       0.4       1.4       0.0       0.9
 4 O  px              0.2       0.7       6.3      20.8       0.0      16.7
 4 O  py              2.7       0.4       0.0       0.2       0.1       9.0
 4 O  dz2             0.4       0.1       0.0       0.3       0.3       0.2
 4 O  dxz             0.1       0.0       0.0       0.1       0.4       0.1
 4 O  dx2y2           0.0       0.5       0.3       0.5       1.4       0.1
 4 O  dxy             0.2       0.7       0.3       1.3       0.1       0.2
 5 C  s               4.6       2.1       3.5      23.8       5.6       4.9
 5 C  pz              0.3       0.1       0.0       0.0       0.1       0.5
 5 C  px              4.9       1.4       0.1       0.4       1.9       8.4
 5 C  py              0.4       0.7       0.1       0.1       0.2       9.9
 5 C  dz2             0.1       0.1       0.0       0.0       0.0       0.2
 5 C  dx2y2           0.2       0.1       0.0       0.0       0.0       0.1
 5 C  dxy             0.1       0.1       0.0       0.0       0.0       0.4
 6 H  s               0.0       0.0       2.5       1.9       6.1       0.9
 6 H  pz              0.0       0.0       0.2       0.1       0.3       0.0
 7 H  s               0.0       0.0       2.4       2.2       6.5       0.2
 7 H  px              0.0       0.0       0.2       0.1       0.3       0.0
 7 H  py              0.0       0.0       0.0       0.0       0.1       0.0
 8 H  s               0.0       0.0       2.4       2.0       5.7       0.5
 8 H  py              0.0       0.0       0.2       0.2       0.5       0.0
 9 H  s               0.1       0.0       4.4       0.2       2.9       1.2
 9 H  py              0.0       0.0       0.4       0.0       0.3       0.1
10 H  s               0.0       0.0       4.1       0.5       3.4       2.8
10 H  pz              0.0       0.0       0.3       0.0       0.2       0.1
11 H  s               0.3       0.2       0.7       6.0       2.2       1.4
11 H  px              0.0       0.0       0.0       0.3       0.0       0.0
11 H  py              0.0       0.0       0.0       0.2       0.1       0.2
12 H  s               0.4       0.1       0.5       4.7       1.8       6.5
12 H  pz              0.0       0.0       0.0       0.1       0.0       0.2
12 H  py              0.0       0.0       0.0       0.3       0.1       0.2
13 H  s               0.3       0.2       0.5       5.3       2.1       4.3
13 H  pz              0.0       0.0       0.1       0.4       0.1       0.2

                     12        13        14        15        16        17   
                  -0.47216  -0.45346  -0.44745  -0.41411  -0.40024  -0.37846
                   2.00000   2.00000   2.00000   2.00000   2.00000   2.00000
                  --------  --------  --------  --------  --------  --------
 0 C  s               0.0       0.2       0.1       0.0       0.0       0.1
 0 C  pz              2.5       0.0       2.3       5.6       0.0      15.2
 0 C  px              1.7       1.5       0.2       8.2      10.0       0.7
 0 C  py              3.9       3.1       1.0       9.5       7.5       0.2
 0 C  dxz             0.0       0.0       0.0       0.0       0.1       0.1
 1 C  s               1.7       0.4       0.3       0.1       0.3       0.1
 1 C  pz              4.9       2.7       0.7      10.4       2.0       2.3
 1 C  px              6.9       0.2       2.3       1.6       0.3       8.6
 1 C  py              9.9       7.5       4.3       7.6       4.2       0.2
 1 C  dxy             0.2       0.0       0.0       0.0       0.0       0.1
 2 C  s               1.7       1.0       0.7       0.3       0.9       0.1
 2 C  pz              1.3      11.7       1.5       0.5       0.7      11.8
 2 C  px             12.9       0.0       0.2       0.1       1.5       0.9
 2 C  py              0.1       0.2       3.0       1.8       3.8       0.4
 2 C  dx2y2           0.0       0.1       0.4       0.0       0.3       0.0
 2 C  dxy             0.0       0.0       0.0       0.2       0.0       0.1
 3 O  s               0.9       3.2       7.6       1.9       3.4       0.1
 3 O  pz              0.3       4.7       1.4       0.5       0.5      13.6
 3 O  px              9.2       0.3       0.0       0.0       0.0       0.0
 3 O  py              1.6       7.0      15.3       7.0      20.3       0.5
 3 O  dz2             0.0       0.2       0.1       0.0       0.2       0.0
 3 O  dyz             0.1       0.7       0.2       0.0       0.0       0.6
 3 O  dx2y2           0.1       0.1       0.1       0.0       0.4       0.0
 3 O  dxy             1.2       0.0       0.0       0.0       0.0       0.0
 4 O  s               0.5       0.0       1.1       0.6       0.0       0.0
 4 O  pz              4.1      19.4       7.1       0.7       0.3       0.0
 4 O  px              0.2       3.3       3.2       5.5       0.6       1.8
 4 O  py              7.0       0.1      16.1       1.3       1.3       0.0
 4 O  dz2             0.0       0.0       0.1       0.3       0.0       0.5
 4 O  dxz             0.0       0.1       0.0       0.4       0.5       1.6
 4 O  dyz             0.1       0.8       0.1       0.0       0.0       0.0
 4 O  dx2y2           1.0       0.0       0.8       0.0       0.0       0.1
 4 O  dxy             0.9       0.1       0.0       0.0       0.7       0.6
 5 C  s               0.0       0.0       0.4       0.1       0.0       0.0
 5 C  pz              2.6      16.1       2.2       7.6       6.4       7.1
 5 C  px              0.3       0.4      11.4       1.1       2.5       6.7
 5 C  py              6.1       0.4       2.8       0.1       8.9       4.6
 5 C  dz2             0.0       0.0       0.0       0.1       0.0       0.1
 5 C  dx2y2           0.0       0.0       0.1       0.0       0.0       0.0
 5 C  dxy             0.0       0.0       0.1       0.0       0.1       0.2
 6 H  s               0.4       0.1       1.1       5.3       0.0       6.0
 6 H  pz              0.0       0.0       0.0       0.2       0.0       0.1
 7 H  s               1.3       0.2       0.2       1.3       7.1       0.0
 7 H  pz              0.0       0.0       0.0       0.0       0.0       0.1
 7 H  px              0.1       0.0       0.0       0.0       0.1       0.0
 7 H  py              0.0       0.0       0.0       0.1       0.0       0.0
 8 H  s               1.0       1.6       0.1       4.5       1.8       0.0
 8 H  pz              0.0       0.0       0.0       0.0       0.0       0.1
 8 H  py              0.0       0.1       0.0       0.1       0.0       0.0
 9 H  s               4.6       3.6       1.4       3.7       0.9       0.3
 9 H  px              0.1       0.0       0.0       0.0       0.0       0.0
 9 H  py              0.2       0.1       0.0       0.1       0.0       0.0
10 H  s               3.4       0.6       1.7       5.9       0.1       0.0
10 H  pz              0.1       0.0       0.1       0.1       0.0       0.0
10 H  px              0.0       0.0       0.0       0.0       0.0       0.1
10 H  py              0.1       0.0       0.0       0.0       0.0       0.0
11 H  s               1.0       1.1       6.9       0.0       3.0       8.6
11 H  pz              0.0       0.0       0.0       0.0       0.1       0.0
11 H  py              0.0       0.0       0.1       0.0       0.0       0.1
12 H  s               2.6       0.7       0.1       0.3       5.8       0.0
12 H  py              0.0       0.1       0.0       0.0       0.1       0.0
13 H  s               0.5       5.6       0.4       3.9       1.9       4.6
13 H  pz              0.0       0.2       0.0       0.1       0.0       0.1
13 H  px              0.0       0.0       0.1       0.0       0.0       0.1
13 H  py              0.0       0.0       0.0       0.0       0.1       0.0

                     18        19        20        21        22        23   
                  -0.34588  -0.33534  -0.32530  -0.31659  -0.27511  -0.24060
                   2.00000   2.00000   2.00000   2.00000   2.00000   2.00000
                  --------  --------  --------  --------  --------  --------
 0 C  s               0.0       0.5       0.1       0.0       0.0       0.0
 0 C  pz              6.1       6.1       8.8       2.3       0.0       0.0
 0 C  px             11.5      11.8       0.1       3.9       0.0       0.4
 0 C  py             12.0       8.6      10.8       0.6       0.2       0.0
 0 C  dz2             0.1       0.1       0.3       0.3       0.0       0.0
 0 C  dxz             0.0       0.1       0.1       0.0       0.0       0.0
 0 C  dyz             0.0       0.0       0.1       0.0       0.0       0.0
 0 C  dx2y2           0.3       0.1       0.1       0.0       0.0       0.1
 0 C  dxy             0.2       0.0       0.1       0.0       0.0       0.0
 1 C  s               0.2       0.2       0.0       0.1       0.0       0.6
 1 C  pz              2.4       9.4       8.8       3.2       0.1       0.1
 1 C  px              1.0       7.7       0.1       5.9       0.1       4.1
 1 C  py              1.3       7.4       7.2       0.6       0.0       3.4
 1 C  dz2             0.2       0.1       0.3       0.3       0.0       0.0
 1 C  dxz             0.0       0.3       0.1       0.0       0.0       0.0
 1 C  dx2y2           0.2       0.2       0.1       0.0       0.0       0.1
 1 C  dxy             0.2       0.0       0.1       0.0       0.0       0.0
 2 C  s               0.3       0.0       0.1       0.7       0.0       0.3
 2 C  pz              0.1       3.6       1.2       0.2       0.3       0.1
 2 C  px              7.0       0.8       0.3       0.2       0.0       1.3
 2 C  py              0.2       0.3       1.7       3.8       0.0       0.7
 2 C  dz2             0.0       0.0       0.0       0.0       0.1       0.0
 2 C  dxz             0.0       0.1       0.2       0.0       0.2       0.0
 2 C  dyz             0.0       0.3       0.0       0.0       1.6       0.4
 2 C  dx2y2           0.0       0.1       0.2       0.5       0.0       0.1
 2 C  dxy             0.0       0.0       0.0       0.2       0.3       3.8
 3 O  s               0.0       0.1       0.4       0.8       0.0       0.0
 3 O  pz              0.1      13.1       2.7       0.5      28.5       6.3
 3 O  px              6.3       1.0       0.1       0.2       4.4      62.8
 3 O  py              0.3       0.3       4.8       5.9       0.3       0.3
 3 O  dyz             0.0       0.2       0.0       0.0       0.1       0.1
 3 O  dx2y2           0.0       0.0       0.2       0.4       0.0       0.0
 3 O  dxy             0.2       0.0       0.0       0.0       0.0       0.6
 4 O  s               0.4       0.1       0.4       4.0       0.0       0.4
 4 O  pz              0.4       2.9       2.0       0.2      44.8       0.0
 4 O  px              0.1       0.2       0.1       3.2       2.4       1.7
 4 O  py              2.2       0.1       7.4      26.7       0.0       7.1
 4 O  dz2             0.0       0.3       0.0       0.1       0.1       0.2
 4 O  dxz             0.1       0.2       0.1       0.5       0.2       0.1
 4 O  dyz             0.0       0.1       0.0       0.0       0.7       0.0
 4 O  dx2y2           0.0       0.0       0.3       1.6       0.0       0.1
 4 O  dxy             0.2       0.1       0.5       0.2       0.0       0.2
 5 C  s               0.0       0.0       0.0       0.3       0.0       0.2
 5 C  pz              2.0       3.9       1.1       0.2       4.7       0.1
 5 C  px              0.9       0.1       0.2       1.5       0.2       0.9
 5 C  py              7.1       0.3       2.5       9.1       0.1       0.2
 5 C  dz2             0.0       0.1       0.1       0.0       0.4       0.0
 5 C  dxz             0.0       0.0       0.0       0.0       0.5       0.0
 5 C  dyz             0.1       0.0       0.0       0.1       0.2       0.0
 5 C  dx2y2           0.1       0.0       0.1       0.3       0.0       0.1
 5 C  dxy             0.2       0.0       0.1       0.2       0.0       0.0
 6 H  s               3.2       0.0       8.4       4.0       0.1       0.1
 6 H  px              0.0       0.1       0.1       0.0       0.0       0.0
 6 H  py              0.2       0.1       0.0       0.0       0.0       0.0
 7 H  s              14.7       0.7       0.6       2.1       0.0       0.6
 7 H  px              0.2       0.0       0.0       0.0       0.0       0.0
 7 H  py              0.0       0.1       0.1       0.0       0.0       0.0
 8 H  s               5.3       6.3       7.3       0.7       0.1       0.2
 8 H  px              0.1       0.1       0.0       0.0       0.0       0.0
 9 H  s               1.1       6.4       5.9       0.8       0.0       1.4
 9 H  pz              0.0       0.1       0.1       0.0       0.0       0.0
 9 H  px              0.0       0.0       0.0       0.0       0.0       0.1
10 H  s               2.1       0.4       8.7       5.1       0.0       0.0
10 H  py              0.0       0.1       0.0       0.0       0.0       0.0
11 H  s               2.8       0.0       2.3       1.5       1.2       0.1
12 H  s               4.9       1.4       0.4       6.3       1.8       0.1
13 H  s               0.4       2.3       1.4       0.0       5.8       0.0
13 H  py              0.1       0.0       0.0       0.1       0.0       0.0

                     24        25        26        27        28        29   
                  -0.01608   0.06773   0.09959   0.12019   0.12998   0.14345
                   0.00000   0.00000   0.00000   0.00000   0.00000   0.00000
                  --------  --------  --------  --------  --------  --------
 0 C  s               2.1       3.1       4.0      25.6       6.2       0.1
 0 C  pz              0.9       1.6       0.1       0.5      10.7       1.6
 0 C  px              1.0       2.9       0.6       5.7      10.8       0.7
 0 C  py              0.4       0.0       0.1       0.8       0.5       4.8
 0 C  dz2             0.0       0.0       0.1       0.0       0.6       0.0
 0 C  dxz             0.0       0.4       0.0       0.1       0.9       0.0
 0 C  dyz             0.0       0.0       0.0       0.1       0.0       0.9
 0 C  dx2y2           0.1       0.0       0.0       0.1       0.0       0.1
 0 C  dxy             0.0       0.0       0.1       0.0       0.4       0.0
 1 C  s               0.1       9.0       2.3       4.1      11.6       2.3
 1 C  pz              0.1       0.9       0.3       1.4      12.1       1.2
 1 C  px              0.7       0.7       0.2       6.2       3.6       6.4
 1 C  py              0.0       0.5       0.5       1.2       1.9      12.2
 1 C  dz2             0.1       0.0       0.0       0.1       0.6       0.0
 1 C  dxz             1.8       0.0       0.0       0.2       0.2       0.1
 1 C  dyz             0.0       0.0       0.0       0.1       0.2       0.1
 1 C  dx2y2           0.1       0.1       0.2       0.1       0.0       1.8
 1 C  dxy             0.0       0.0       0.0       0.1       0.0       1.2
 2 C  s               0.0       8.7       4.4       0.3       0.7       4.4
 2 C  pz             36.7       0.0       0.2       2.4       2.7       0.5
 2 C  px              2.2       1.7       0.2       2.9       0.7       0.5
 2 C  py              0.1       0.4       2.5       0.5       0.2       3.2
 2 C  dz2             0.0       1.2       0.2       0.0       0.2       0.7
 2 C  dxz             0.4       0.3       0.0       0.0       0.0       0.3
 2 C  dyz             0.7       0.0       0.0       0.0       0.0       0.0
 2 C  dx2y2           0.0       0.1       1.0       0.1       0.0       0.2
 3 O  s               0.0       1.4       1.4       0.1       0.0       0.2
 3 O  pz             21.7       0.0       0.0       0.4       0.0       0.1
 3 O  px              1.5       0.6       0.1       1.6       0.5       0.1
 3 O  py              0.1       0.2       0.5       0.0       0.0       0.1
 3 O  dz2             0.0       1.2       0.5       0.1       0.5       0.6
 3 O  dxz             0.2       0.3       0.2       0.0       0.2       2.4
 3 O  dyz             5.8       0.0       0.1       0.4       0.2       0.0
 3 O  dx2y2           0.0       0.1       0.1       0.0       0.3       1.4
 3 O  dxy             0.3       0.4       0.2       0.0       0.0       0.0
 4 O  s               0.0       9.3       1.7       0.6       0.3       0.1
 4 O  pz              9.5       0.0       0.4       0.1       0.4       0.2
 4 O  px              0.6       1.6       4.7       0.1       1.2       1.3
 4 O  py              0.0       1.6       1.2       0.1       0.1       2.0
 4 O  dz2             0.8       1.7       3.0       0.7       0.0       0.6
 4 O  dxz             4.2       0.4       1.1       0.2       0.1       0.2
 4 O  dyz             1.1       0.0       0.1       0.3       0.6       0.7
 4 O  dx2y2           0.2       0.2       2.3       0.2       0.0       2.5
 4 O  dxy             0.1       0.1       1.8       0.5       0.1       4.6
 5 C  s               0.0       3.2      22.5       9.4       5.3       0.2
 5 C  pz              0.1       1.6       0.7       0.6       0.9       0.0
 5 C  px              0.0      24.0      18.4       2.4       3.3       1.3
 5 C  py              0.0       6.0       2.9       0.7       2.5       9.4
 5 C  dz2             0.1       0.7       0.2       0.2       0.1       0.0
 5 C  dxz             0.2       0.3       0.1       0.0       0.1       0.0
 5 C  dx2y2           0.0       1.1       0.5       0.0       0.2       0.1
 5 C  dxy             0.0       0.8       0.4       0.1       0.3       0.8
 6 H  s               0.1       0.8       0.2       3.2       1.2       0.4
 6 H  pz              0.1       0.1       0.1       1.2       1.4       0.0
 6 H  px              0.0       0.3       0.1       0.3       0.2       0.0
 6 H  py              0.0       0.0       0.0       0.4       0.1       0.3
 7 H  s               0.6       0.6       1.5       2.4       1.6       0.2
 7 H  pz              0.0       0.3       0.0       0.3       0.2       0.1
 7 H  px              0.2       0.0       0.2       1.2       0.1       0.0
 7 H  py              0.0       0.1       0.2       0.6       0.1       0.0
 8 H  s               0.1       0.4       0.6       4.0       0.4       0.5
 8 H  pz              0.0       0.1       0.0       0.0       0.1       0.5
 8 H  px              0.0       0.1       0.1       0.0       0.5       0.0
 8 H  py              0.0       0.2       0.3       2.0       0.3       0.3
 9 H  s               0.1       0.5       1.3       1.4       0.2      11.6
 9 H  pz              0.0       0.0       0.0       0.2       0.3       0.1
 9 H  px              0.0       0.0       0.0       0.1       0.2       1.0
 9 H  py              0.0       0.4       0.4       0.8       0.5       3.1
10 H  s               2.5       1.1       0.2       0.7       1.7       0.2
10 H  pz              0.1       0.5       0.1       0.1       2.4       0.0
10 H  px              0.2       0.1       0.0       0.4       0.0       0.1
10 H  py              0.0       0.0       0.0       0.3       0.0       1.4
11 H  s               0.1       0.4       2.2       1.6       1.6       4.3
11 H  pz              0.0       0.2       0.0       0.2       0.1       0.1
11 H  px              0.0       0.3       1.4       0.2       0.1       0.7
11 H  py              0.0       0.7       0.1       0.6       0.8       0.5
12 H  s               0.2       0.8       2.5       0.8       1.0       1.4
12 H  pz              0.0       0.4       0.2       0.4       0.2       0.1
12 H  px              0.0       0.6       0.4       0.0       0.1       0.2
12 H  py              0.0       0.0       0.9       0.2       0.1       0.2
13 H  s               0.9       1.1       2.9       3.6       1.7       0.0
13 H  pz              0.0       0.3       1.1       1.1       0.8       0.0
13 H  px              0.0       0.9       0.4       0.1       0.2       0.1
13 H  py              0.0       0.1       0.1       0.0       0.0       0.0

                     30        31        32        33        34        35   
                   0.16005   0.17076   0.17647   0.18051   0.18282   0.18985
                   0.00000   0.00000   0.00000   0.00000   0.00000   0.00000
                  --------  --------  --------  --------  --------  --------
 0 C  s               0.3       0.5       1.2       0.1       0.4       0.4
 0 C  pz              3.4       9.9       4.5       6.4       0.7       3.9
 0 C  px              5.4       1.3       4.7       6.1       8.2       5.9
 0 C  py              6.3       1.7       3.6       0.3       9.1       5.2
 0 C  dz2             0.6       0.3       0.1       0.4       0.9       0.5
 0 C  dxz             0.2       1.4       0.1       0.1       0.0       0.3
 0 C  dyz             0.0       0.5       0.2       0.3       0.0       0.1
 0 C  dx2y2           0.1       0.1       0.5       0.1       1.8       0.0
 0 C  dxy             0.7       0.2       0.1       0.1       0.0       0.0
 1 C  s               0.5       0.4       1.9       0.2       0.4       0.0
 1 C  pz              9.6       0.7       1.9       2.4       4.6       0.8
 1 C  px              2.9       3.6       2.2       7.2       0.6       0.8
 1 C  py             13.0       8.1       1.3       3.6       1.7       3.1
 1 C  dz2             1.5       0.1       0.4       0.3       0.0       0.2
 1 C  dxz             0.3       0.0       0.2       0.1       0.1       0.0
 1 C  dyz             1.3       0.1       0.0       0.1       0.4       0.0
 1 C  dx2y2           0.0       0.5       0.0       0.3       0.1       0.1
 1 C  dxy             0.2       0.8       0.1       0.3       0.2       0.0
 2 C  s               0.4       0.3       2.9       0.6       0.0       0.7
 2 C  pz              9.8       6.6       0.4       6.5       1.0       0.5
 2 C  px              1.3       1.5       0.2       0.9       1.2       0.3
 2 C  py              0.1       7.3       0.6       0.3       9.0       0.6
 2 C  dz2             0.1       0.0       0.0       0.3       0.0       0.2
 2 C  dx2y2           0.1       0.5       0.0       0.1       0.1       0.0
 2 C  dxy             0.2       0.4       0.1       0.0       0.0       0.0
 3 O  s               0.1       1.0       0.1       0.5       1.5       0.9
 3 O  pz              1.8       0.1       0.6       0.9       0.7       0.5
 3 O  px              0.2       0.2       0.3       0.2       0.6       0.4
 3 O  py              0.8       0.1       0.1       0.2       1.3       0.5
 3 O  dz2             0.0       0.1       2.2       0.7       0.3       0.2
 3 O  dxz             0.1       0.5       0.1       0.2       1.5       0.0
 3 O  dyz             0.0       0.1       0.0       0.0       0.1       0.3
 3 O  dx2y2           0.5       0.4       0.3       0.1       0.7       0.2
 3 O  dxy             1.0       0.8       0.4       0.1       0.0       0.1
 4 O  s               0.1       0.2       0.1       0.0       0.3       0.0
 4 O  pz              0.0       0.2       1.1       0.5       0.6       0.7
 4 O  px              0.0       1.7       0.1       0.1       0.1       1.0
 4 O  py              0.1       0.3       0.6       0.1       0.6       0.3
 4 O  dz2             0.3       0.2       0.8       1.2       0.9       0.4
 4 O  dxz             0.0       0.7       1.5       1.3       0.2       1.2
 4 O  dyz             0.5       0.2       4.8       0.0       0.2       1.5
 4 O  dx2y2           0.1       0.4       0.1       0.2       0.0       0.6
 4 O  dxy             0.1       0.6       0.7       0.8       0.0       0.3
 5 C  s               0.2       0.0       0.2       0.7       0.1       0.5
 5 C  pz              2.6      14.9       8.6       7.9      11.6      15.8
 5 C  px              1.4       1.2       0.7       5.5       4.0       1.8
 5 C  py              0.8       0.2       7.6      11.0       4.2       2.1
 5 C  dz2             0.0       0.0       0.0       0.6       0.1       2.5
 5 C  dxz             0.0       0.1       0.2       0.0       0.0       0.0
 5 C  dyz             0.1       0.1       2.3       0.0       0.5       0.0
 5 C  dx2y2           0.0       0.1       0.6       0.1       0.0       0.0
 5 C  dxy             0.0       0.1       0.4       0.6       0.4       0.3
 6 H  s               1.6      11.1       0.9       2.3       3.4       5.4
 6 H  pz              0.8       1.2       0.0       0.8       1.0       1.1
 6 H  px              0.2       1.2       0.0       0.0       0.1       0.2
 6 H  py              0.2       0.2       0.3       0.5       0.5       0.1
 7 H  s               1.1       0.1       4.2       4.2       2.1       1.3
 7 H  pz              0.3       0.6       0.0       0.2       0.2       0.1
 7 H  px              0.0       0.0       1.0       0.8       1.4       0.6
 7 H  py              0.0       0.5       0.1       0.4       0.3       0.3
 8 H  s               3.2       1.3       0.4       0.0      10.3       0.2
 8 H  pz              0.0       0.9       0.2       0.2       0.0       0.2
 8 H  px              0.4       0.1       0.0       0.1       0.0       0.0
 8 H  py              1.0       0.1       0.1       0.0       1.9       0.1
 9 H  s               1.2       2.2       1.3       3.4       0.0       0.2
 9 H  pz              1.3       0.1       0.0       0.1       0.1       0.1
 9 H  px              0.1       0.7       0.0       0.1       0.1       0.0
 9 H  py              0.9       0.9       0.7       0.5       0.0       0.1
10 H  s              12.6       1.5       0.0       0.4       0.3       0.7
10 H  pz              2.5       0.3       0.0       0.4       0.0       0.2
10 H  px              0.2       0.2       0.2       0.2       0.3       0.0
10 H  py              1.0       0.1       0.0       0.4       0.1       0.0
11 H  s               0.3       0.4       4.6       7.6       2.7       6.5
11 H  pz              0.0       0.0       1.7       0.0       0.1       0.2
11 H  px              0.0       0.0       0.6       1.2       0.0       1.4
11 H  py              0.0       0.2       0.0       2.1       0.0       1.0
12 H  s               1.0       1.3      16.1       0.6       2.0       0.3
12 H  pz              0.2       0.1       0.8       0.4       0.6       0.5
12 H  px              0.0       0.0       0.1       0.3       0.2       0.1
12 H  py              0.2       0.5       1.9       0.0       0.1       0.8
13 H  s               0.1       1.6       1.4       1.9       0.5      17.2
13 H  pz              0.0       0.8       0.0       0.0       0.2       5.1
13 H  px              0.0       0.1       0.2       0.1       0.1       0.1
13 H  py              0.2       0.2       1.5       0.0       0.7       0.0

                     36        37        38        39        40        41   
                   0.19255   0.20696   0.21125   0.23177   0.24444   0.25614
                   0.00000   0.00000   0.00000   0.00000   0.00000   0.00000
                  --------  --------  --------  --------  --------  --------
 0 C  s               0.1       0.8       1.4       0.1       2.2       0.2
 0 C  pz              8.4       9.2       6.9      12.2       6.3       3.2
 0 C  px              1.4       3.5       6.1       0.7       7.7       1.0
 0 C  py              1.8       4.5       6.3      47.3       3.5       1.8
 0 C  dz2             0.4       0.3       0.6       0.2       0.0       0.3
 0 C  dxz             0.1       0.0       1.1       0.2       0.0       0.0
 0 C  dyz             0.1       0.1       0.1       0.0       0.2       0.1
 0 C  dx2y2           1.2       1.2       0.1       0.0       0.5       0.0
 0 C  dxy             0.6       0.1       0.6       0.0       0.1       0.5
 1 C  s               1.1       0.1       4.5       0.0       0.1       0.2
 1 C  pz              0.1       0.5      18.7       1.5       8.5      15.6
 1 C  px             13.1       1.1       2.9       0.1       6.6       5.4
 1 C  py              1.7       2.7       2.5       1.5       4.8      12.8
 1 C  dz2             0.6       0.1       0.1       0.3       0.3       0.8
 1 C  dxz             0.2       0.1       0.1       0.1       1.4       0.3
 1 C  dyz             0.0       0.0       0.0       0.1       0.3       0.5
 1 C  dx2y2           0.5       0.5       0.0       0.1       0.4       0.1
 1 C  dxy             0.7       0.3       0.2       0.1       0.2       0.0
 2 C  s               3.2       0.1       1.1       0.0       4.4       0.7
 2 C  pz              0.3       1.9       0.5       0.1       1.8       6.9
 2 C  px              4.1       0.2       1.0       0.6       0.1       1.0
 2 C  py              1.2       3.5       0.1       0.7       2.9       8.0
 2 C  dz2             0.0       0.1       0.1       0.0       0.5       0.5
 2 C  dxz             0.0       0.0       0.1       0.1       0.2       0.2
 2 C  dx2y2           0.3       0.0       0.0       0.3       0.6       0.0
 2 C  dxy             0.0       0.2       0.0       0.0       0.0       0.0
 3 O  s               0.7       0.8       0.3       0.2       1.4       0.2
 3 O  pz              0.1       0.0       0.1       0.0       1.9       0.9
 3 O  px              0.3       0.9       0.3       1.7       0.6       1.2
 3 O  py              0.5       1.7       0.1       0.3       0.7       0.8
 3 O  dz2             0.5       0.0       0.3       0.3       0.9       0.0
 3 O  dxz             0.3       1.6       1.4       0.6       0.2       0.1
 3 O  dyz             0.0       0.1       0.2       0.0       0.4       0.3
 3 O  dx2y2           0.2       0.7       0.5       0.0       0.9       2.1
 3 O  dxy             0.3       0.6       0.2       0.2       0.2       0.0
 4 O  s               0.0       0.1       0.1       0.1       0.2       1.9
[...]
 5 C  px              0.2       0.1       0.1       0.0       0.1       6.4
 5 C  py              7.5       0.3       0.6       0.2       0.1       0.8
 5 C  dz2             1.3       1.5       0.0       0.1       0.0       3.2
 5 C  dxz             0.0       0.1       0.0       0.0       0.1       1.1
 5 C  dyz            16.3       0.0       0.7       0.1       0.0       0.1
 5 C  dx2y2           3.6       0.0       0.4       0.0       0.8       3.7
 5 C  dxy             2.4       0.3       0.7       0.0       1.4       5.0
 6 H  s               0.3       6.5       2.6       1.0       0.3       0.0
 6 H  pz              0.5      12.5       5.2       2.5       0.5       0.0
 6 H  px              0.0       2.0       0.4       0.0       0.0       0.0
 6 H  py              0.2       0.9       1.9       0.2       0.0       0.0
 7 H  s               0.6       0.2       4.7       0.2       0.6       0.0
 7 H  pz              0.0       0.1       0.1       0.0       0.0       0.0
 7 H  px              1.2       0.1       9.1       0.2       1.1       0.0
 7 H  py              0.2       1.4       1.3       0.2       0.3       0.0
 8 H  s               0.1       5.4       2.9       2.2       0.0       0.0
 8 H  pz              0.0       0.2       0.2       0.0       0.0       0.0
 8 H  px              0.0       0.0       0.3       0.4       0.0       0.0
 8 H  py              0.3      13.7       7.3       5.1       0.0       0.0
 9 H  s               0.2       1.1       0.4       6.5       0.6       0.0
 9 H  pz              0.0       0.1       0.0       0.1       0.0       0.0
 9 H  px              0.1       0.0       0.0       0.6       0.1       0.0
 9 H  py              0.4       2.2       1.8      14.1       1.5       0.0
10 H  s               0.0       1.6       1.4       6.3       0.2       0.0
10 H  pz              0.1       2.6       3.5      12.5       0.6       0.0
10 H  px              0.1       0.7       0.9       1.1       0.0       0.0
10 H  py              0.0       0.0       0.3       0.5       0.0       0.0
11 H  s               2.1       0.5       0.3       0.1       0.2       0.3
11 H  pz              0.9       0.0       0.1       0.0       0.1       0.2
11 H  px              2.7       0.5       0.3       0.0       0.0       0.0
11 H  py              1.2       0.6       0.4       0.1       0.3       0.8
12 H  s              10.0       0.0       0.5       0.0       0.1       0.1
12 H  pz              6.1       0.0       0.5       0.0       0.4       0.2
12 H  px              0.6       0.0       0.0       0.0       0.6       0.1
12 H  py             18.1       0.1       0.8       0.1       0.2       0.1
13 H  s               2.2       0.7       0.0       0.0       0.0       0.4
13 H  pz              4.6       1.6       0.1       0.0       0.0       0.8
13 H  px              0.0       0.0       0.0       0.0       0.0       0.3
13 H  py              1.0       0.0       0.1       0.0       0.1       0.0

                    156       157       158       159       160       161   
                   4.29109   4.43795  21.89608  21.96115  22.02605  22.25859
                   0.00000   0.00000   0.00000   0.00000   0.00000   0.00000
                  --------  --------  --------  --------  --------  --------
 0 C  s               0.1       0.0      84.8      10.0       1.0       3.8
 1 C  s               0.0       0.0       8.1      31.1      60.3       0.2
 1 C  py              0.1       0.0       0.0       0.0       0.0       0.0
 1 C  dx2y2           0.2       0.0       0.0       0.0       0.0       0.0
 1 C  dxy             0.3       0.0       0.0       0.0       0.0       0.0
 2 C  s               2.3       5.8       2.3       2.4       0.0      94.2
 2 C  pz              0.3       0.0       0.0       0.0       0.0       0.0
 2 C  px              3.9       0.1       0.0       0.0       0.0       0.0
 2 C  py              2.5       7.7       0.0       0.0       0.0       0.1
 2 C  dz2             1.1       1.6       0.0       0.0       0.0       0.0
 2 C  dxz             0.6       0.0       0.0       0.0       0.0       0.0
 2 C  dyz             0.8       0.0       0.0       0.0       0.0       0.0
 2 C  dx2y2           0.1       4.3       0.0       0.0       0.0       0.0
 2 C  dxy            10.7       0.2       0.0       0.0       0.0       0.0
 3 O  s               0.5      18.5       0.0       0.0       0.0       0.2
 3 O  px              0.4       0.3       0.0       0.0       0.0       0.0
 3 O  py              0.2      21.9       0.0       0.0       0.0       0.2
 3 O  dz2             0.3       8.3       0.0       0.0       0.0       0.0
 3 O  dyz             0.1       0.2       0.0       0.0       0.0       0.0
 3 O  dx2y2           0.2      25.1       0.0       0.0       0.0       0.0
 3 O  dxy             2.1       1.1       0.0       0.0       0.0       0.0
 4 O  s               5.2       0.9       0.0       0.0       0.1       0.1
 4 O  pz              1.7       0.0       0.0       0.0       0.0       0.0
 4 O  px             25.5       0.4       0.0       0.0       0.0       0.1
 4 O  py              3.1       0.2       0.0       0.0       0.0       0.0
 4 O  dz2             1.5       0.5       0.0       0.0       0.0       0.0
 4 O  dxz             0.7       0.2       0.0       0.0       0.0       0.0
 4 O  dyz             2.0       0.0       0.0       0.0       0.0       0.0
 4 O  dx2y2           0.1       0.5       0.0       0.0       0.0       0.0
 4 O  dxy            25.9       0.4       0.0       0.0       0.0       0.0
 5 C  s               0.7       0.1       4.4      56.2      38.3       0.8
 5 C  px              1.8       0.2       0.0       0.0       0.0       0.0
 5 C  py              0.4       0.0       0.0       0.0       0.0       0.0
 5 C  dz2             0.3       0.0       0.0       0.0       0.0       0.0
 5 C  dxz             0.3       0.0       0.0       0.0       0.0       0.0
 5 C  dyz             0.2       0.0       0.0       0.0       0.0       0.0
 5 C  dx2y2           1.3       0.1       0.0       0.0       0.0       0.0
 5 C  dxy             1.1       0.3       0.0       0.0       0.0       0.0
11 H  py              0.1       0.0       0.0       0.0       0.0       0.0
12 H  s               0.1       0.0       0.0       0.0       0.0       0.0
12 H  pz              0.1       0.0       0.0       0.0       0.0       0.0

                    162       163   
                  43.65892  43.69220
                   0.00000   0.00000
                  --------  --------
 3 O  s              89.1      10.8
 4 O  s              10.8      89.1


                      *****************************
                      * MAYER POPULATION ANALYSIS *
                      *****************************

  NA   - Mulliken gross atomic population
  ZA   - Total nuclear charge
  QA   - Mulliken gross atomic charge
  VA   - Mayer's total valence
  BVA  - Mayer's bonded valence
  FA   - Mayer's free valence

  ATOM       NA         ZA         QA         VA         BVA        FA
  0 C      6.4617     6.0000    -0.4617     3.8185     3.8185    -0.0000
  1 C      6.2927     6.0000    -0.2927     3.7770     3.7770    -0.0000
  2 C      5.5893     6.0000     0.4107     3.7536     3.7536    -0.0000
  3 O      8.4268     8.0000    -0.4268     1.9484     1.9484    -0.0000
  4 O      8.1899     8.0000    -0.1899     1.9470     1.9470    -0.0000
  5 C      6.3010     6.0000    -0.3010     3.7710     3.7710     0.0000
  6 H      0.8543     1.0000     0.1457     0.9641     0.9641     0.0000
  7 H      0.8487     1.0000     0.1513     0.9610     0.9610    -0.0000
  8 H      0.8305     1.0000     0.1695     0.9588     0.9588    -0.0000
  9 H      0.8396     1.0000     0.1604     0.9611     0.9611     0.0000
 10 H      0.8402     1.0000     0.1598     0.9590     0.9590    -0.0000
 11 H      0.8518     1.0000     0.1482     0.9572     0.9572    -0.0000
 12 H      0.8238     1.0000     0.1762     0.9588     0.9588     0.0000
 13 H      0.8496     1.0000     0.1504     0.9568     0.9568     0.0000

  Mayer bond orders larger than 0.100000
B(  0-C ,  1-C ) :   0.9008 B(  0-C ,  6-H ) :   0.9745 B(  0-C ,  7-H ) :   0.9720 
B(  0-C ,  8-H ) :   0.9734 B(  1-C ,  2-C ) :   0.9585 B(  1-C ,  9-H ) :   0.9814 
B(  1-C , 10-H ) :   0.9539 B(  2-C ,  3-O ) :   1.8333 B(  2-C ,  4-O ) :   1.0477 
B(  4-O ,  5-C ) :   0.8524 B(  5-C , 11-H ) :   0.9698 B(  5-C , 12-H ) :   0.9655 
B(  5-C , 13-H ) :   0.9604 

-------
TIMINGS
-------

Total SCF time: 0 days 0 hours 0 min 12 sec 

Total time                  ....      12.721 sec
Sum of individual times     ....      12.680 sec  ( 99.7%)

SCF preparation             ....       0.042 sec  (  0.3%)
Fock matrix formation       ....      12.115 sec  ( 95.2%)
  Startup                   ....       0.002 sec  (  0.0% of F)
  Split-RI-J                ....       2.138 sec  ( 17.6% of F)
  XC integration            ....       9.950 sec  ( 82.1% of F)
    Basis function eval.    ....       1.849 sec  ( 18.6% of XC)
    Density eval.           ....       3.363 sec  ( 33.8% of XC)
    XC-Functional eval.     ....       1.403 sec  ( 14.1% of XC)
    XC-Potential eval.      ....       3.053 sec  ( 30.7% of XC)
Diagonalization             ....       0.000 sec  (  0.0%)
Density matrix formation    ....       0.332 sec  (  2.6%)
Total Energy calculation    ....       0.002 sec  (  0.0%)
Population analysis         ....       0.103 sec  (  0.8%)
Orbital Transformation      ....       0.017 sec  (  0.1%)
Orbital Orthonormalization  ....       0.000 sec  (  0.0%)
DIIS solution               ....       0.064 sec  (  0.5%)
  MO trafo                  ....       0.000 sec  (  0.0 % of DIIS)
  Orb grad                  ....       0.000 sec  (  0.0 % of DIIS)
  Energy W gradient         ....       0.000 sec  (  0.0 % of DIIS)
  DIIS error                ....       0.007 sec  ( 10.5 % of DIIS)
  DIIS work                 ....       0.051 sec  ( 80.0 % of DIIS)
  Form Q                    ....       0.000 sec  (  0.0 % of DIIS)
  Form QpQm                 ....       0.000 sec  (  0.0 % of DIIS)
  Exp/Cayley                ....       0.000 sec  (  0.0 % of DIIS)
  Orb update                ....       0.000 sec  (  0.0 % of DIIS)
  Wake-sleep                ....       0.001 sec  (  1.2 % of DIIS)
SOSCF solution              ....       0.006 sec  (  0.0%)
  MO trafo                  ....       0.006 sec  ( 99.3 % of SOSCF)
  Orb grad                  ....       0.000 sec  (  0.0 % of SOSCF)
  Rot update                ....       0.000 sec  (  0.0 % of SOSCF)
  Step                      ....       0.000 sec  (  0.0 % of SOSCF)
Finished LeanSCF after  12.7 sec

Maximum memory used throughout the entire LEANSCF-calculation: 17.2 MB


-------------------------------------------------------------------------------
                          DFT DISPERSION CORRECTION                            
                                                                               
                                DFTD4 V3.4.0                                   
-------------------------------------------------------------------------------
The R2SCAN3C composite method is recognized
Using three-body term ABC
Active option DFTDOPT                   ...         5   

-------------------------   ----------------
Dispersion correction           -0.002973067
-------------------------   ----------------

------------------   -----------------
gCP correction             0.009448404
------------------   -----------------

-------------------------   --------------------
FINAL SINGLE POINT ENERGY      -307.631370292909
-------------------------   --------------------


------------------------------------------------------------------------------
                              ORCA PROPERTY CALCULATIONS
------------------------------------------------------------------------------

GBWName                                 ... sp.gbw
Number of atoms                         ...     14
Number of basis functions               ...    164
Max core memory                         ...   1024 MB

Electric properties:
Dipole moment                           ... YES
Quadrupole moment                       ...  NO
Static polarizability (Dipole/Dipole)   ...  NO
Static polarizability (Dipole/Quad.)    ...  NO
Static polarizability (Quad./Quad.)     ...  NO
Static polarizability (Velocity)        ...  NO

Atomic electric properties:
Dipole moment                           ...  NO
Quadrupole moment                       ...  NO
Static polarizability                   ...  NO

Choice of electric origin               ... Center of mass
Position of electric origin             ...    -0.000015     0.000011     0.000006

General magnetic properties:
Magnetizability                         ...  NO

EPR properties:
g-Tensor (aka g-matrix)                 ...  NO
Zero-Field splitting spin-orbit         ...  NO
Zero-field splitting spin-spin          ...  NO
Hyperfine couplings                     ...  NO (   0 nuclei)
Quadrupole couplings                    ...  NO (   0 nuclei)
Contact density                         ...  NO (   0 nuclei)

NMR properties:
Chemical shifts                         ...  NO (   0 nuclei)
Spin-rotation constants                 ...  NO (   0 nuclei)
Spin-spin couplings                     ...  NO (   0 nuclei,    0 pairs)

Choice of magnetic origin               ... GIAO
Position of magnetic origin             ...     0.000000     0.000000     0.000000

Properties with geometric perturbations:
SCF Hessian                             ...  NO
IR spectrum                             ...  NO
VCD spectrum                            ...  NO
X-ray spectroscopy properties:
SCF XES/XAS/RIXS spectra                ...  NO


-------------
DIPOLE MOMENT
-------------

Method             : SCF
Type of density    : Electron Density
Multiplicity       :   1
Irrep              :   0
Energy             :  -307.6378456293155637 Eh
Relativity type    : 
Basis              : AO
                                X                 Y                 Z
Electronic contribution:      2.566850242      -1.386059431      -1.547447134
Nuclear contribution   :     -2.448022238       2.079893337       1.674965771
                        -----------------------------------------
Total Dipole Moment    :      0.118828004       0.693833906       0.127518637
                        -----------------------------------------
Magnitude (a.u.)       :      0.715392610
Magnitude (Debye)      :      1.818383505



--------------------
Rotational spectrum 
--------------------
 
Rotational constants in cm-1:             0.256783             0.075110             0.065855 
Rotational constants in MHz :          7698.165057          2251.750011          1974.275073 

Dipole components along the rotational axes: 
x,y,z [a.u.] :     0.089001     0.709835    -0.000444 
x,y,z [Debye]:     0.226221     1.804256    -0.001129 

 

Dipole moment calculation done in   0.0 sec 

Maximum memory used throughout the entire PROP-calculation: 9.9 MB

--------------------------------
SUGGESTED CITATIONS FOR THIS RUN
--------------------------------

Below you find a list of papers that are relevant to this ORCA run
We neither can nor want to force you to cite these papers, but we appreciate if you do
You receive ORCA, which is the product of decades of hard work by many enthusiastic individuals, for free
The only thing we kindly ask in return is that you cite our papers,
We deeply appreciate it, if you show your appreciation for ORCA by not just citing the generic ORCA reference.

Please note that relegating all ORCA citations to the supporting information does *not* help us.
SI sections are not indexed - citations you put there will not count into any citation statistics
But we need these citations in order to attract the funding resources that allow us to do what we are doing

Therefore, if you are a happy ORCA user, please consider citing a few of the papers listed below in the main body of your paper

In addition to the list printed below, the program has created the file sp.bibtex that contains the list in bibtex format
You can import this file easily into all common literature databanks and citation aid programs


List of essential papers. We consider these as the minimum necessary citations

  1. Neese,F.
     Software update: the ORCA program system, version 5.0
     WIRES Comput. Molec. Sci., 2022 12(1)e1606
     doi.org/10.1002/wcms.1606
  2. Grimme,S.; Hansen,A.; Ehlert,S.; Mewes,J.
     r2SCAN-3c: A 'Swiss army knife' composite electronic-structure method
     J. Chem. Phys., 2021 154 064103
     doi.org/10.1063/5.0040021

List of papers to cite with high priority. The work reported in these papers was absolutely
necessary for this run to complete.
Our perspective: the developers of density functionals and basis sets usually get cited in chemistry papers
Good! But without the algorithms to do something with them, the functionals or basis sets would not do anything.
Hence, in our opinion, the algorithm design and method developments papers are equally worthy of getting cited

  1. Neese,F.
     An improvement of the resolution of the identity approximation for the formation of the Coulomb matrix
     J. Comp. Chem., 2003 24(14)1740-1747
     doi.org/10.1002/jcc.10318
  2. Neese,F.
     The SHARK Integral Generation and Digestion System
     J. Comp. Chem., 2022  1-16
     doi.org/10.1002/jcc.26942
  3. Lehtola,S.; Steigemann,C.; Oliveira,M.; Marques,M.
     Recent developments in Libxc - A comprehensive library of functionals for density functional theory
     Software X, 2018 7 
     doi.org/10.1016/j.softx.2017.11.002
  4. Caldeweyher,E.; Bannwarth,C.; Grimme,S.
     Extension of the D3 dispersion coefficient model
     J. Chem. Phys., 2017 147 034112
     doi.org/10.1063/1.4993215
  5. Caldeweyher,E.; Ehlert,S.; Hansen,A.; Neugebauer,H.; Spicher,S.; Bannwarth,C.; Grimme,S.
     A generally applicable atomic-charge dependent London dispersion correction
     J. Chem. Phys., 2019 150 154122
     doi.org/10.1063/1.5090222
  6. Caldeweyher,E.; Mewes,J.; Ehlert,S.; Grimme,S.
     Extension and evaluation of the D4 London-dispersion model for periodic systems
     Phys. Chem. Chem. Phys., 2020 22(16)8499-8512
     doi.org/10.1039/D0CP00502A
  7. Wittmann,L.; Gordiy,I.; Friede,M.; Helmich-Paris,B.; Grimme,S.; Hansen,A.; Bursch,M.
     Extension of the D3 and D4 London Dispersion Corrections to the full Actinides Series
     Phys. Chem. Chem. Phys., 2024 26(32)21379-21394
     doi.org/https://doi.org/10.1039/D4CP01514B 

List of suggested additional citations. These are papers that are important in the 'surrounding' of 
of this run, or papers that preceded the highly important papers. If you like your results we are grateful for a citation.

  1. Neese,F.
     The ORCA program system
     WIRES Comput. Molec. Sci., 2012 2(1)73-78
     doi.org/10.1002/wcms.81
  2. Neese,F.
     Software update: the ORCA program system, version 4.0
     WIRES Comput. Molec. Sci., 2018 8(1)1-6
     doi.org/10.1002/wcms.1327
  3. Neese,F.; Wennmohs,F.; Becker,U.; Riplinger,C.
     The ORCA quantum chemistry program package
     J. Chem. Phys., 2020 152 Art. No. L224108
     doi.org/10.1063/5.0004608

List of optional additional citations

  1. Neese,F.
     Approximate second-order SCF convergence for spin unrestricted wavefunctions
     Chem. Phys. Lett., 2000 325(1-3)93-98
     doi.org/10.1016/s0009-2614(00)00662-x

Timings for individual modules:

Sum of individual times          ...       13.524 sec (=   0.225 min)
Startup calculation              ...        0.615 sec (=   0.010 min)   4.5 %
SCF iterations                   ...       12.831 sec (=   0.214 min)  94.9 %
Property calculations            ...        0.078 sec (=   0.001 min)   0.6 %
                             ****ORCA TERMINATED NORMALLY****
TOTAL RUN TIME: 0 days 0 hours 0 minutes 13 seconds 694 msec
