
                                 *****************
                                 * O   R   C   A *
                                 *****************

                                            #,                                       
                                            ###                                      
                                            ####                                     
                                            #####                                    
                                            ######                                   
                                           ########,                                 
                                     ,,################,,,,,                         
                               ,,#################################,,                 
                          ,,##########################################,,             
                       ,#########################################, ''#####,          
                    ,#############################################,,   '####,        
                  ,##################################################,,,,####,       
                ,###########''''           ''''###############################       
              ,#####''   ,,,,##########,,,,          '''####'''          '####       
            ,##' ,,,,###########################,,,                        '##       
           ' ,,###''''                  '''############,,,                           
         ,,##''                                '''############,,,,        ,,,,,,###''
      ,#''                                            '''#######################'''  
     '                                                          ''''####''''         
             ,#######,   #######,   ,#######,      ##                                
            ,#'     '#,  ##    ##  ,#'     '#,    #''#        ,####,   ,####,        
            ##       ##  ##   ,#'  ##            #'  '#       #'       #'  '#        
            ##       ##  #######   ##           ,######,      #####,   #    #        
            '#,     ,#'  ##    ##  '#,     ,#' ,#      #,     #,   #   #,  ,#        
             '#######'   ##     ##  '#######'  #'      '#     '####' # '####'        



                #########################################################
                #                        -***-                          #
                #          Department of theory and spectroscopy        #
                #                                                       #
                #                      Frank Neese                      #
                #                                                       #
                #     Directorship, Architecture, Infrastructure        #
                #                    SHARK, DRIVERS                     #
                #        Core code/Algorithms in most modules           #
                #                                                       #
                #        Max Planck Institute fuer Kohlenforschung      #
                #                Kaiser Wilhelm Platz 1                 #
                #                 D-45470 Muelheim/Ruhr                 #
                #                      Germany                          #
                #                                                       #
                #                  All rights reserved                  #
                #                        -***-                          #
                #########################################################


                         Program Version 6.0.1  -  RELEASE   -


 With contributions from (in alphabetic order):
[Max-Planck-Institut fuer Kohlenforschung]                               
  Daniel Aravena         : Magnetic Suceptibility                        
  Michael Atanasov       : Ab Initio Ligand Field Theory (pilot matlab implementation)
  Alexander A. Auer      : GIAO ZORA, VPT2 properties, NMR spectrum      
  Ute Becker             : All parallelization in ORCA, NUMFREQ, NUMCALC 
  Giovanni Bistoni       : ED, misc. LED, open-shell LED, HFLD           
  Martin Brehm           : Molecular dynamics                            
  Dmytro Bykov           : pre 5.0 version of the SCF Hessian            
  Marcos Casanova-Páez   : Triplet and SCS-CIS(D). UHF-(DLPNO)-IP/EA/STEOM-CCSD. UHF-CVS-IP/STEOM-CCSD   
  Vijay G. Chilkuri      : MRCI spin determinant printing, contributions to CSF-ICE 
  Pauline Colinet        : FMM embedding                                 
  Dipayan Datta          : RHF DLPNO-CCSD density                        
  Achintya Kumar Dutta   : EOM-CC, STEOM-CC                              
  Nicolas Foglia         : Exact transition moments, OPA infrastructure, MCD improvements    
  Dmitry Ganyushin       : Spin-Orbit,Spin-Spin,Magnetic field MRCI      
  Miquel Garcia-Rates    : C-PCM and meta-GGA Hessian, CCSD/C-PCM, Gaussian charge scheme 
  Tiago L. C. Gouveia    : GS-ROHF, GS-ROCIS                             
  Yang Guo               : DLPNO-NEVPT2, F12-NEVPT2, CIM, IAO-localization        
  Andreas Hansen         : Spin unrestricted coupled pair/coupled cluster methods 
  Ingolf Harden          : AUTO-CI MPn and infrastructure                
  Benjamin Helmich-Paris : MC-RPA, TRAH-(SCF,CASSCF), AVAS, COSX integrals, SCF dyn. polar. 
  Lee Huntington         : MR-EOM, pCC                                   
  Robert Izsak           : Overlap fitted RIJCOSX, COSX-SCS-MP3, EOM     
  Riya Kayal             : Wick's Theorem for AUTO-CI, AUTO-CI UHF-CCSDT 
  Emily Kempfer          : AUTO-CI, RHF CISDT and CCSDT                  
  Christian Kollmar      : KDIIS, OOCD, Brueckner-CCSD(T), CCSD density, CASPT2, CASPT2-K, improved NEVPT2 
  Axel Koslowski         : Symmetry handling                             
  Simone Kossmann        : meta-GGA functionals, TD-DFT gradient, OOMP2, (MP2 Hessian; deprecated post 5.0) 
  Lucas Lang             : DCDCAS                                        
  Marvin Lechner         : AUTO-CI (C++ implementation), FIC-MRCC        
  Spencer Leger          : CASSCF response                               
  Dagmar Lenk            : GEPOL surface, SMD, ORCA-2-JSON               
  Dimitrios Liakos       : Extrapolation schemes; Compound Job, initial MDCI parallelization 
  Dimitrios Manganas     : Further ROCIS development; embedding schemes. LFT, Crystal Embedding 
  Dimitrios Pantazis     : SARC Basis sets                               
  Anastasios Papadopoulos: AUTO-CI, single reference methods and gradients 
  Taras Petrenko         : pre 6.0 DFT Hessian and TD-DFT gradient, (ASA, deprecated), ECA, 1-Electron XAS/XES, NRVS 
  Peter Pinski           : DLPNO-MP2, DLPNO-MP2 Gradient                 
  Christoph Reimann      : Effective Core Potentials                     
  Marius Retegan         : Local ZFS, SOC                                
  Christoph Riplinger    : Optimizer, TS searches, QM/MM, DLPNO-CCSD(T), (RO)-DLPNO pert. Triples 
  Michael Roemelt        : Original ROCIS implementation                 
  Masaaki Saitow         : Open-shell DLPNO-CCSD energy and density      
  Barbara Sandhoefer     : DKH picture change effects                    
  Kantharuban Sivalingam : CASSCF convergence/infrastructure, NEVPT2 and variants, FIC-MRCI 
  Bernardo de Souza      : ESD, SOC TD-DFT                               
  Georgi L. Stoychev     : AutoAux, RI-MP2 NMR, DLPNO-MP2 response, X2C  
  Van Anh Tran           : RI-MP2 g-tensors                              
  Willem Van den Heuvel  : Paramagnetic NMR                              
  Zikuan Wang            : NOTCH, Electric field optimization            
  Frank Wennmohs         : Technical directorship and infrastructure     
  Hang Xu                : AUTO-CI-Response properties                   
                                                                         
[FACCTs GmbH]                                                            
  Markus Bursch, Miquel Garcia-Rates, Christoph Riplinger, Bernardo de Souza, Georgi L. Stoychev 
                                                                 
  APM, Basis sets (HGBS, AHGBS, def-TZVP (Ac-Lr), def2-XVPD (La-Lu)), CI-OPT, improved COSX, DLPNO-Multilevel,           
  DOCKER, DRACO, updates on ESD, GOAT, IRC, LR-CPCM, MBIS, meta-GGA TD-DFT gradient, ML-optimized integration grids, 
  MM, NACMEs, nearIR, NEB, NEB-TS, NL-DFT gradient (VV10), 2- and 3-layer-ONIOM, interface openCOSMO-RS, QMMM,   
  Crystal-QMMM, SF, symmetry and pop. for TD-DFT, r2SCAN hybrids, SOLVATOR                                   
                                                                         
[Other institutions]                                                     
  V. Asgeirsson          : NEB                                           
  Christoph Bannwarth    : sTDA-DFT, sTD-DFT, PBEh-3c, B97-3c, D3        
  Sebastian Ehlert       : rSCAN, r2SCAN, r2SCAN-3c, D4, dhf basis sets  
  Marvin Friede          : D4 for Fr, Ra, Ac-Lr                          
  Lars Goerigk           : TD-DFT with DH, B97 family of functionals     
  Stefan Grimme          : VdW corrections, initial TS optimization, DFT functionals, gCP, sTDA/sTD-DF 
  Waldemar Hujo          : DFT-NL                                        
  H. Jonsson             : NEB                                           
  Holger Kruse           : gCP                                           
  Marcel Mueller         : wB97X-3c, vDZP basis set                      
  Hagen Neugebauer       : wr2SCAN                                       
  Tobias Risthaus        : range-separated hybrid DFT                    
  Lukas Wittmann         : regularized MP2, r2SCAN double-hybrids, wr2SCAN        
                                                                         
We gratefully acknowledge several colleagues who have allowed us to      
interface, adapt or use parts of their codes:                            
  Ed Valeev, F. Pavosevic, A. Kumar             : LibInt (2-el integral package), F12 methods 
  Garnet Chan, S. Sharma, J. Yang, R. Olivares  : DMRG                   
  Ulf Ekstrom                                   : XCFun DFT Library      
  Mihaly Kallay                                 : mrcc  (arbitrary order and MRCC methods)
  Frank Weinhold                                : gennbo (NPA and NBO analysis)           
  Simon Mueller                                 : openCOSMO-RS                            
  Christopher J. Cramer and Donald G. Truhlar   : smd solvation model                     
  S Lehtola, MJT Oliveira, MAL Marques          : LibXC Library                           
  Liviu Ungur et al                             : ANISO software                          


 Your calculation uses the libint2 library for the computation of 2-el integrals
 For citations please refer to: http://libint.valeyev.net

 Your ORCA version has been built with support for libXC version: 6.2.2
 For citations please refer to: https://libxc.gitlab.io

 This ORCA versions uses:
   CBLAS   interface :  Fast vector & matrix operations
   LAPACKE interface :  Fast linear algebra routines
   SCALAPACK package :  Parallel linear algebra routines
   Shared memory     :  Shared parallel matrices
   BLAS/LAPACK       :  OpenBLAS 0.3.27  USE64BITINT DYNAMIC_ARCH NO_AFFINITY Zen SINGLE_THREADED
        Core in use  :  Zen
   Copyright (c) 2011-2014, The OpenBLAS Project


Your calculation utilizes the geometrical counterpoise correction gCP
Please cite in your paper:
H.Kruse, S. Grimme J.Chem.Phys., 136, (2012), 154101 
   

Your calculation utilizes the atom-pairwise dispersion correction
based on EEQ partial charges (D4)


================================================================================

----- Orbital basis set information -----
Your calculation utilizes the basis: def2-SV(P)
   F. Weigend and R. Ahlrichs, Phys. Chem. Chem. Phys. 7, 3297 (2005).

----- AuxJ basis set information -----
Your calculation utilizes the auxiliary basis: def2/J
   F. Weigend, Phys. Chem. Chem. Phys. 8, 1057 (2006).

================================================================================
                                        WARNINGS
                       Please study these warnings very carefully!
================================================================================

WARNING: Old DensityContainer found on disk!
         Will remove this file - 
         If you want to keep old densities, please start your calculation with a different basename. 


================================================================================
                                       INPUT FILE
================================================================================
NAME = sp.inp
|  1> ! pbe def2-sv(p) def2/J RI DEFGRID1 loosescf d4 GCP(DFT/SV(P)) printgap
|  2> %output
|  3>     printlevel normal
|  4> end
|  5> * xyz 0 1
|  6> C -1.4140983706 -0.3085627533 -0.2415885401
|  7> C -0.4397832653 -1.3787824987 0.2416421759
|  8> C 0.9742081999 -1.0702941477 -0.2417044502
|  9> C 1.4140635545 0.3085072679 0.2416873548
| 10> C 0.4398452099 1.378812667 -0.2416352673
| 11> C -0.9742272492 1.0703075134 0.2415814346
| 12> H -2.4199236274 -0.5279790176 0.1235624525
| 13> H -1.4458553779 -0.3155695939 -1.3338402654
| 14> H -0.4495084289 -1.4094161311 1.3338823192
| 15> H -0.752664122 -2.3596814078 -0.1230617538
| 16> H 1.667274559 -1.8316041293 0.1231995216
| 17> H 0.9959151134 -1.0941897726 -1.3339483206
| 18> H 1.4455518892 0.315298279 1.3338805106
| 19> H 2.419947098 0.5279991841 -0.1232330241
| 20> H 0.7527028504 2.3596642741 0.1233939254
| 21> H 0.44975027 1.4096796761 -1.3338499468
| 22> H -0.9960857029 1.0943217504 1.3337468986
| 23> H -1.6672007997 1.8316193112 -0.1235262481
| 24> *
| 25> 
| 26>                          ****END OF INPUT****
================================================================================

                       ****************************
                       * Single Point Calculation *
                       ****************************

---------------------------------
CARTESIAN COORDINATES (ANGSTROEM)
---------------------------------
  C     -1.414098   -0.308563   -0.241589
  C     -0.439783   -1.378782    0.241642
  C      0.974208   -1.070294   -0.241704
  C      1.414064    0.308507    0.241687
  C      0.439845    1.378813   -0.241635
  C     -0.974227    1.070308    0.241581
  H     -2.419924   -0.527979    0.123562
  H     -1.445855   -0.315570   -1.333840
  H     -0.449508   -1.409416    1.333882
  H     -0.752664   -2.359681   -0.123062
  H      1.667275   -1.831604    0.123200
  H      0.995915   -1.094190   -1.333948
  H      1.445552    0.315298    1.333881
  H      2.419947    0.527999   -0.123233
  H      0.752703    2.359664    0.123394
  H      0.449750    1.409680   -1.333850
  H     -0.996086    1.094322    1.333747
  H     -1.667201    1.831619   -0.123526

----------------------------
CARTESIAN COORDINATES (A.U.)
----------------------------
  NO LB      ZA    FRAG     MASS         X           Y           Z
   0 C     6.0000    0    12.011   -2.672259   -0.583099   -0.456536
   1 C     6.0000    0    12.011   -0.831070   -2.605521    0.456638
   2 C     6.0000    0    12.011    1.840987   -2.022563   -0.456755
   3 C     6.0000    0    12.011    2.672193    0.582994    0.456723
   4 C     6.0000    0    12.011    0.831187    2.605578   -0.456624
   5 C     6.0000    0    12.011   -1.841023    2.022588    0.456523
   6 H     1.0000    0     1.008   -4.572993   -0.997736    0.233499
   7 H     1.0000    0     1.008   -2.732271   -0.596340   -2.520593
   8 H     1.0000    0     1.008   -0.849448   -2.663410    2.520672
   9 H     1.0000    0     1.008   -1.422329   -4.459152   -0.232553
  10 H     1.0000    0     1.008    3.150692   -3.461230    0.232813
  11 H     1.0000    0     1.008    1.882007   -2.067719   -2.520797
  12 H     1.0000    0     1.008    2.731697    0.595827    2.520669
  13 H     1.0000    0     1.008    4.573037    0.997774   -0.232877
  14 H     1.0000    0     1.008    1.422402    4.459119    0.233181
  15 H     1.0000    0     1.008    0.849905    2.663909   -2.520611
  16 H     1.0000    0     1.008   -1.882329    2.067968    2.520416
  17 H     1.0000    0     1.008   -3.150553    3.461259   -0.233431

--------------------------------
INTERNAL COORDINATES (ANGSTROEM)
--------------------------------
 C      0   0   0     0.000000000000     0.00000000     0.00000000
 C      1   0   0     1.525834903502     0.00000000     0.00000000
 C      2   1   0     1.525831211938   110.46358591     0.00000000
 C      3   2   1     1.525855076268   110.45529494    57.50549619
 C      4   3   2     1.525862309427   110.45326130   302.49653896
 C      1   2   3     1.525851578720   110.45498861   302.50532026
 H      1   2   3     1.092320095784   109.95134957   180.99043762
 H      1   2   3     1.092735757056   109.30633738    62.81265825
 H      2   1   3     1.092712921529   109.30170564   120.29971891
 H      2   1   3     1.092275632202   109.95152870   238.46979918
 H      3   2   1     1.092286031603   109.95367989   179.01850585
 H      3   2   1     1.092720853379   109.30673989   297.19709596
 H      4   3   2     1.092668075232   109.30436341    62.79912260
 H      4   3   2     1.092311900191   109.94993455   180.97901594
 H      5   4   3     1.092335154563   109.94620232   179.01696977
 H      5   4   3     1.092695652312   109.30771277   297.19046462
 H      6   1   2     1.092648102699   109.30580259   297.17924696
 H      6   1   2     1.092296486824   109.94451838   179.00532965

---------------------------
INTERNAL COORDINATES (A.U.)
---------------------------
 C      0   0   0     0.000000000000     0.00000000     0.00000000
 C      1   0   0     2.883410093197     0.00000000     0.00000000
 C      2   1   0     2.883403117151   110.46358591     0.00000000
 C      3   2   1     2.883448214200   110.45529494    57.50549619
 C      4   3   2     2.883461882891   110.45326130   302.49653896
 C      1   2   3     2.883441604792   110.45498861   302.50532026
 H      1   2   3     2.064185831610   109.95134957   180.99043762
 H      1   2   3     2.064971317579   109.30633738    62.81265825
 H      2   1   3     2.064928164687   109.30170564   120.29971891
 H      2   1   3     2.064101807617   109.95152870   238.46979918
 H      3   2   1     2.064121459638   109.95367989   179.01850585
 H      3   2   1     2.064943153711   109.30673989   297.19709596
 H      4   3   2     2.064843417467   109.30436341    62.79912260
 H      4   3   2     2.064170344183   109.94993455   180.97901594
 H      5   4   3     2.064214288578   109.94620232   179.01696977
 H      5   4   3     2.064895530596   109.30771277   297.19046462
 H      6   1   2     2.064805674849   109.30580259   297.17924696
 H      6   1   2     2.064141217142   109.94451838   179.00532965

---------------------
BASIS SET INFORMATION
---------------------
There are 2 groups of distinct atoms

 Group   1 Type C   : 7s4p1d contracted to 3s2p1d pattern {511/31/1}
 Group   2 Type H   : 4s contracted to 2s pattern {31}

Atom   0C    basis set group =>   1
Atom   1C    basis set group =>   1
Atom   2C    basis set group =>   1
Atom   3C    basis set group =>   1
Atom   4C    basis set group =>   1
Atom   5C    basis set group =>   1
Atom   6H    basis set group =>   2
Atom   7H    basis set group =>   2
Atom   8H    basis set group =>   2
Atom   9H    basis set group =>   2
Atom  10H    basis set group =>   2
Atom  11H    basis set group =>   2
Atom  12H    basis set group =>   2
Atom  13H    basis set group =>   2
Atom  14H    basis set group =>   2
Atom  15H    basis set group =>   2
Atom  16H    basis set group =>   2
Atom  17H    basis set group =>   2
---------------------------------
AUXILIARY/J BASIS SET INFORMATION
---------------------------------
There are 2 groups of distinct atoms

 Group   1 Type C   : 12s5p4d2f1g contracted to 6s4p3d1f1g pattern {711111/2111/211/2/1}
 Group   2 Type H   : 5s2p1d contracted to 3s1p1d pattern {311/2/1}

Atom   0C    basis set group =>   1
Atom   1C    basis set group =>   1
Atom   2C    basis set group =>   1
Atom   3C    basis set group =>   1
Atom   4C    basis set group =>   1
Atom   5C    basis set group =>   1
Atom   6H    basis set group =>   2
Atom   7H    basis set group =>   2
Atom   8H    basis set group =>   2
Atom   9H    basis set group =>   2
Atom  10H    basis set group =>   2
Atom  11H    basis set group =>   2
Atom  12H    basis set group =>   2
Atom  13H    basis set group =>   2
Atom  14H    basis set group =>   2
Atom  15H    basis set group =>   2
Atom  16H    basis set group =>   2
Atom  17H    basis set group =>   2

Checking for AutoStart:
The File: sp.gbw exists
Trying to determine its content:
     ... Fine, the file contains calculation information
     ... Fine, the calculation information was read
     ... Fine, the file contains a basis set
     ... Fine, the basis set was read
     ... Fine, the file contains a geometry
     ... Fine, the geometry was read
     ... Fine, the file contains a set of orbitals
     ... Fine, the orbitals can be read
     => possible old guess file was deleted
     => GBW file was renamed to GES file
     => GES file is set as startup file
     => Guess is set to MORead
     ... now leaving AutoStart

------------------------------------------------------------------------------
                             ORCA STARTUP CALCULATIONS
                           -- RI-GTO INTEGRALS CHOSEN --
------------------------------------------------------------------------------
------------------------------------------------------------------------------
                   ___                                                        
                  /   \      - P O W E R E D   B Y -                         
                 /     \                                                     
                 |  |  |   _    _      __       _____    __    __             
                 |  |  |  | |  | |    /  \     |  _  \  |  |  /  |          
                  \  \/   | |  | |   /    \    | | | |  |  | /  /          
                 / \  \   | |__| |  /  /\  \   | |_| |  |  |/  /          
                |  |  |   |  __  | /  /__\  \  |    /   |      \           
                |  |  |   | |  | | |   __   |  |    \   |  |\   \          
                \     /   | |  | | |  |  |  |  | |\  \  |  | \   \       
                 \___/    |_|  |_| |__|  |__|  |_| \__\ |__|  \__/        
                                                                              
                      - O R C A' S   B I G   F R I E N D -                    
                                      &                                       
                       - I N T E G R A L  F E E D E R -                       
                                                                              
 v1 FN, 2020, v2 2021, v3 2022-2024                                           
------------------------------------------------------------------------------


----------------------
SHARK INTEGRAL PACKAGE
----------------------

Number of atoms                             ...     18
Number of basis functions                   ...    108
Number of shells                            ...     60
Maximum angular momentum                    ...      2
Integral batch strategy                     ... SHARK/LIBINT Hybrid
RI-J (if used) integral strategy            ... SPLIT-RIJ (Revised 2003 algorithm where possible)
Printlevel                                  ...      1
Contraction scheme used                     ... SEGMENTED contraction
Prescreening option                         ... SCHWARTZ
   Thresh                                   ... 1.000e-09
   Tcut                                     ... 1.000e-10
   Tpresel                                  ... 1.000e-10 
Coulomb Range Separation                    ... NOT USED
Exchange Range Separation                   ... NOT USED
Multipole approximations                    ... NOT USED
Finite Nucleus Model                        ... NOT USED
CABS basis                                  ... NOT available
Auxiliary Coulomb fitting basis             ... AVAILABLE
   # of basis functions in Aux-J            ...    426
   # of shells in Aux-J                     ...    150
   Maximum angular momentum in Aux-J        ...      4
Auxiliary J/K fitting basis                 ... NOT available
Auxiliary Correlation fitting basis         ... NOT available
Auxiliary 'external' fitting basis          ... NOT available

Checking pre-screening integrals            ... done (  0.0 sec) Dimension = 60
Check shell pair data                       ... done (  0.0 sec)
Shell pair information
Shell pair cut-off parameter TPreSel        ...   1.0e-10
Total number of shell pairs                 ...      1830
Shell pairs after pre-screening             ...      1815
Total number of primitive shell pairs       ...      7374
Primitive shell pairs kept                  ...      5559
          la=0 lb=0:    888 shell pairs
          la=1 lb=0:    504 shell pairs
          la=1 lb=1:     78 shell pairs
          la=2 lb=0:    252 shell pairs
          la=2 lb=1:     72 shell pairs
          la=2 lb=2:     21 shell pairs

Calculating one electron integrals          ... done (  0.0 sec)
Calculating RI/J V-Matrix + Cholesky decomp.... done (  0.0 sec)
Calculating Nuclear repulsion               ... done (  0.0 sec) ENN=    257.472924498465 Eh

Diagonalization of the overlap matrix:
Smallest eigenvalue                        ... 1.728e-03
Time for diagonalization                   ...    0.001 sec
Threshold for overlap eigenvalues          ... 1.000e-07
Number of eigenvalues below threshold      ... 0
Time for construction of square roots      ...    0.000 sec
Total time needed                          ...    0.002 sec

-------------------
DFT GRID GENERATION
-------------------

General Integration Accuracy     IntAcc      ... 4.159
Radial Grid Type                 RadialGrid  ... OptM3 with GC (2021)
Angular Grid (max. ang.)         AngularGrid ... 3 (Lebedev-194)
Angular grid pruning method      GridPruning ... 4 (adaptive)
Weight generation scheme         WeightScheme... mBecke (2022)
Basis function cutoff            BFCut       ... 1.0000e-10
Integration weight cutoff        WCut        ... 1.0000e-14
Partially contracted basis set               ... off
Rotationally invariant grid construction     ... off
Angular grids for H and He will be reduced by one unit

Total number of grid points                  ...    36079
Total number of batches                      ...      570
Average number of points per batch           ...       63
Average number of grid points per atom       ...     2004
Initializing property integral containers    ... done (  0.0 sec)

SHARK setup successfully completed in   0.2 seconds

Maximum memory used throughout the entire STARTUP-calculation: 17.2 MB
-------------------------------------------------------------------------------
                                 ORCA GUESS
                   Start orbitals & Density for SCF / CASSCF
-------------------------------------------------------------------------------

------------
SCF SETTINGS
------------
Hamiltonian:
 Density Functional     Method          .... DFT(GTOs)
 Exchange Functional    Exchange        .... PBE
   PBE kappa parameter   XKappa         ....  0.804000
   PBE mue parameter    XMuePBE         ....  0.219520
 Correlation Functional Correlation     .... PBE
   PBE beta parameter  CBetaPBE         ....  0.066725
 LDA part of GGA corr.  LDAOpt          .... PW91-LDA
 Gradients option       PostSCFGGA      .... off
   NL short-range parameter             ....  6.400000
 RI-approximation to the Coulomb term is turned on
   Number of AuxJ basis functions       .... 426


General Settings:
 Integral files         IntName         .... sp
 Hartree-Fock type      HFTyp           .... RHF
 Total Charge           Charge          ....    0
 Multiplicity           Mult            ....    1
 Number of Electrons    NEL             ....   48
 Basis Dimension        Dim             ....  108
 Nuclear Repulsion      ENuc            ....    257.4729244985 Eh

Convergence Acceleration:
 AO-DIIS                CNVDIIS         .... on
   Start iteration      DIISMaxIt       ....    12
   Startup error        DIISStart       ....  0.200000
   # of expansion vecs  DIISMaxEq       ....     5
   Bias factor          DIISBfac        ....   1.050
   Max. coefficient     DIISMaxC        ....  10.000
 MO-DIIS                CNVKDIIS        .... off
 Trust-Rad. Augm. Hess. CNVTRAH         .... auto
   Auto Start mean grad. ratio tolernc. ....  1.125000
   Auto Start start iteration           ....     1
   Auto Start num. interpolation iter.  ....    10
   Max. Number of Micro iterations      ....    24
   Max. Number of Macro iterations      .... Maxiter - #DIIS iter
   Number of Davidson start vectors     ....     2
   Converg. threshold    (grad. norm)   ....   1.000e-04
   Grad. Scal. Fac. for Micro threshold ....   0.100
   Minimum threshold for Micro iter.    ....   1.000e-02
   NR start threshold (gradient norm)   ....   1.000e-04
   Initial trust radius                 ....   0.400
   Minimum AH scaling param. (alpha)    ....   1.000
   Maximum AH scaling param. (alpha)    .... 1000.000
   Quad. conv. algorithm                .... NR
   White noise on init. David. guess    .... on
   Maximum white noise                  ....   0.010
   Pseudo random numbers                .... off
   Inactive MOs                         .... canonical
   Orbital update algorithm             .... Taylor
   Preconditioner                       .... Diag
   Full preconditioner red. dimension   ....   250
 SOSCF                  CNVSOSCF        .... on
   Start iteration      SOSCFMaxIt      ....   150
   Startup grad/error   SOSCFStart      ....  0.003300
   Hessian update       SOSCFHessUp     .... L-BFGS
 Level Shifting         CNVShift        .... on
   Level shift para.    LevelShift      ....    0.2500
   Turn off err/grad.   ShiftErr        ....    0.0010
 Zerner damping         CNVZerner       .... off
 Static damping         CNVDamp         .... on
   Fraction old density DampFac         ....    0.7000
   Max. Damping (<1)    DampMax         ....    0.9800
   Min. Damping (>=0)   DampMin         ....    0.0000
   Turn off err/grad.   DampErr         ....    0.1000

SCF Procedure:
 Maximum # iterations   MaxIter         ....   125
 SCF integral mode      SCFMode         .... Direct
   Integral package                     .... SHARK and LIBINT hybrid scheme
 Reset frequency        DirectResetFreq ....    20
 Integral Threshold     Thresh          ....  1.000e-09 Eh
 Primitive CutOff       TCut            ....  1.000e-10 Eh

Convergence Tolerance:
 Convergence Check Mode ConvCheckMode   .... Total+1el-Energy
 Convergence forced     ConvForced      .... 0
 Energy Change          TolE            ....  1.000e-05 Eh
 1-El. energy change                    ....  1.000e-02 Eh
 Orbital Gradient       TolG            ....  1.000e-04
 Orbital Rotation angle TolX            ....  1.000e-04
 DIIS Error             TolErr          ....  5.000e-04

---------------------
INITIAL GUESS: MOREAD
---------------------
Guess MOs are being read from file: sp.ges
Input Geometry matches current geometry (good)
Input basis set matches current basis set (good)
Occupation numbers will be reassigned to an Aufbau configuration
MOs were renormalized
MOs were reorthogonalized (Cholesky)
                      ------------------
                      INITIAL GUESS DONE (   0.0 sec)
                      ------------------
             **** ENERGY FILE WAS UPDATED (sp.en.tmp) ****
Finished Guess after   0.0 sec
Maximum memory used throughout the entire GUESS-calculation: 8.9 MB

-------------------------------------------------------------------------------------------
                                      ORCA LEAN-SCF
                              memory conserving SCF solver
-------------------------------------------------------------------------------------------

----------------------------------------D-I-I-S--------------------------------------------
Iteration    Energy (Eh)           Delta-E    RMSDP     MaxDP     DIISErr   Damp  Time(sec)
-------------------------------------------------------------------------------------------
               ***  Starting incremental Fock matrix formation  ***
                              *** Initializing SOSCF ***
---------------------------------------S-O-S-C-F--------------------------------------
Iteration    Energy (Eh)           Delta-E    RMSDP     MaxDP     MaxGrad    Time(sec)
--------------------------------------------------------------------------------------
    1    -235.3389165329124921     0.00e+00  1.82e-05  1.40e-04  1.90e-05     0.2
               *** Restarting incremental Fock matrix formation ***
    2    -235.3389166539474786    -1.21e-07  1.64e-05  1.23e-04  5.15e-05     0.2
    3    -235.3389164769230888     1.77e-07  9.21e-06  7.46e-05  9.04e-05     0.2
                 **** Energy Check signals convergence ****

               *****************************************************
               *                     SUCCESS                       *
               *           SCF CONVERGED AFTER   3 CYCLES          *
               *****************************************************

             **** ENERGY FILE WAS UPDATED (sp.en.tmp) ****

----------------
TOTAL SCF ENERGY
----------------

Total Energy       :       -235.33891647692309 Eh           -6403.89749 eV

Components:
Nuclear Repulsion  :        257.47292449846458 Eh            7006.19446 eV
Electronic Energy  :       -492.81184097538767 Eh          -13410.09195 eV
One Electron Energy:       -825.62823059439461 Eh          -22466.48633 eV
Two Electron Energy:        332.81638961900694 Eh            9056.39438 eV

Virial components:
Potential Energy   :       -468.38160143114544 Eh          -12745.31133 eV
Kinetic Energy     :        233.04268495422235 Eh            6341.41385 eV
Virial Ratio       :          2.00985326582189

DFT components:
N(Alpha)           :       24.000237010833 electrons
N(Beta)            :       24.000237010833 electrons
N(Total)           :       48.000474021665 electrons
E(X)               :      -35.159191631869 Eh       
E(C)               :       -1.579295649926 Eh       
E(XC)              :      -36.738487281795 Eh       

---------------
SCF CONVERGENCE
---------------

  Last Energy change         ...   -1.7702e-07  Tolerance :   1.0000e-05
  Last MAX-Density change    ...    7.4569e-05  Tolerance :   1.0000e-03
  Last RMS-Density change    ...    9.2123e-06  Tolerance :   1.0000e-04
  Last DIIS Error            ...    1.2910e-04  Tolerance :   5.0000e-04
  Last Orbital Gradient      ...    9.0425e-05  Tolerance :   1.0000e-04
  Last Orbital Rotation      ...    5.5592e-05  Tolerance :   1.0000e-04


----------------
ORBITAL ENERGIES
----------------

  NO   OCC          E(Eh)            E(eV) 
   0   2.0000      -9.878326      -268.8029 
   1   2.0000      -9.878312      -268.8025 
   2   2.0000      -9.878297      -268.8021 
   3   2.0000      -9.878266      -268.8013 
   4   2.0000      -9.878256      -268.8010 
   5   2.0000      -9.878231      -268.8003 
   6   2.0000      -0.750139       -20.4123 
   7   2.0000      -0.661334       -17.9958 
   8   2.0000      -0.661314       -17.9953 
   9   2.0000      -0.535191       -14.5633 
  10   2.0000      -0.535178       -14.5629 
  11   2.0000      -0.490898       -13.3580 
  12   2.0000      -0.429906       -11.6983 
  13   2.0000      -0.389122       -10.5886 
  14   2.0000      -0.389092       -10.5877 
  15   2.0000      -0.386650       -10.5213 
  16   2.0000      -0.331045        -9.0082 
  17   2.0000      -0.331029        -9.0078 
  18   2.0000      -0.327286        -8.9059 
  19   2.0000      -0.297898        -8.1062 
  20   2.0000      -0.297869        -8.1054 
  21   2.0000      -0.276578        -7.5261 
  22   2.0000      -0.254006        -6.9118 
  23   2.0000      -0.253986        -6.9113 
  24   0.0000       0.035730         0.9723 
  25   0.0000       0.052144         1.4189 
  26   0.0000       0.073729         2.0063 
  27   0.0000       0.073752         2.0069 
  28   0.0000       0.109885         2.9901 
  29   0.0000       0.115389         3.1399 
  30   0.0000       0.115418         3.1407 
  31   0.0000       0.119713         3.2575 
  32   0.0000       0.129658         3.5282 
  33   0.0000       0.129738         3.5303 
  34   0.0000       0.138093         3.7577 
*Only the first 10 virtual orbitals were printed.

                    ********************************
                    * MULLIKEN POPULATION ANALYSIS *
                    ********************************

-----------------------
MULLIKEN ATOMIC CHARGES
-----------------------
   0 C :   -0.156380
   1 C :   -0.156449
   2 C :   -0.157884
   3 C :   -0.156344
   4 C :   -0.156476
   5 C :   -0.157868
   6 H :    0.083248
   7 H :    0.073497
   8 H :    0.073551
   9 H :    0.083196
  10 H :    0.083385
  11 H :    0.073823
  12 H :    0.073485
  13 H :    0.083245
  14 H :    0.083200
  15 H :    0.073569
  16 H :    0.073812
  17 H :    0.083387
Sum of atomic charges:    0.0000000

--------------------------------
MULLIKEN REDUCED ORBITAL CHARGES
--------------------------------
  0 C s       :     3.035727  s :     3.035727
      pz      :     1.033051  p :     3.083878
      px      :     1.040507
      py      :     1.010319
      dz2     :     0.011422  d :     0.036775
      dxz     :     0.003475
      dyz     :     0.005014
      dx2y2   :     0.009909
      dxy     :     0.006956

  1 C s       :     3.035718  s :     3.035718
      pz      :     1.032974  p :     3.083951
      px      :     1.011866
      py      :     1.039112
      dz2     :     0.011426  d :     0.036779
      dxz     :     0.004935
      dyz     :     0.003549
      dx2y2   :     0.009180
      dxy     :     0.007691

  2 C s       :     3.036327  s :     3.036327
      pz      :     1.033369  p :     3.084774
      px      :     1.024171
      py      :     1.027235
      dz2     :     0.011425  d :     0.036782
      dxz     :     0.004324
      dyz     :     0.004164
      dx2y2   :     0.006213
      dxy     :     0.010656

  3 C s       :     3.035706  s :     3.035706
      pz      :     1.033029  p :     3.083863
      px      :     1.040519
      py      :     1.010315
      dz2     :     0.011425  d :     0.036775
      dxz     :     0.003472
      dyz     :     0.005014
      dx2y2   :     0.009909
      dxy     :     0.006956

  4 C s       :     3.035762  s :     3.035762
      pz      :     1.032969  p :     3.083937
      px      :     1.011863
      py      :     1.039106
      dz2     :     0.011423  d :     0.036777
      dxz     :     0.004934
      dyz     :     0.003552
      dx2y2   :     0.009178
      dxy     :     0.007689

  5 C s       :     3.036291  s :     3.036291
      pz      :     1.033369  p :     3.084795
      px      :     1.024188
      py      :     1.027239
      dz2     :     0.011425  d :     0.036782
      dxz     :     0.004324
      dyz     :     0.004164
      dx2y2   :     0.006213
      dxy     :     0.010655

  6 H s       :     0.916752  s :     0.916752

  7 H s       :     0.926503  s :     0.926503

  8 H s       :     0.926449  s :     0.926449

  9 H s       :     0.916804  s :     0.916804

 10 H s       :     0.916615  s :     0.916615

 11 H s       :     0.926177  s :     0.926177

 12 H s       :     0.926515  s :     0.926515

 13 H s       :     0.916755  s :     0.916755

 14 H s       :     0.916800  s :     0.916800

 15 H s       :     0.926431  s :     0.926431

 16 H s       :     0.926188  s :     0.926188

 17 H s       :     0.916613  s :     0.916613


------------------------
MULLIKEN OVERLAP CHARGES
------------------------
B(  0-C ,  1-C ) :   0.9011 B(  0-C ,  2-C ) :  -0.1268 B(  0-C ,  4-C ) :  -0.1264 
B(  0-C ,  5-C ) :   0.9010 B(  0-C ,  6-H ) :   0.6790 B(  0-C ,  7-H ) :   0.6951 
B(  1-C ,  2-C ) :   0.9013 B(  1-C ,  3-C ) :  -0.1263 B(  1-C ,  5-C ) :  -0.1267 
B(  1-C ,  8-H ) :   0.6950 B(  1-C ,  9-H ) :   0.6792 B(  2-C ,  3-C ) :   0.9010 
B(  2-C ,  4-C ) :  -0.1267 B(  2-C , 10-H ) :   0.6790 B(  2-C , 11-H ) :   0.6956 
B(  3-C ,  4-C ) :   0.9011 B(  3-C ,  5-C ) :  -0.1268 B(  3-C , 12-H ) :   0.6951 
B(  3-C , 13-H ) :   0.6790 B(  4-C ,  5-C ) :   0.9013 B(  4-C , 14-H ) :   0.6791 
B(  4-C , 15-H ) :   0.6951 B(  5-C , 16-H ) :   0.6956 B(  5-C , 17-H ) :   0.6790 
B(  6-H ,  7-H ) :  -0.0632 B(  8-H ,  9-H ) :  -0.0632 B( 10-H , 11-H ) :  -0.0630 
B( 12-H , 13-H ) :  -0.0632 B( 14-H , 15-H ) :  -0.0632 B( 16-H , 17-H ) :  -0.0630 



                     *******************************
                     * LOEWDIN POPULATION ANALYSIS *
                     *******************************

----------------------
LOEWDIN ATOMIC CHARGES
----------------------
   0 C :   -0.227519
   1 C :   -0.227535
   2 C :   -0.227704
   3 C :   -0.227526
   4 C :   -0.227527
   5 C :   -0.227713
   6 H :    0.114610
   7 H :    0.112943
   8 H :    0.112958
   9 H :    0.114600
  10 H :    0.114639
  11 H :    0.113003
  12 H :    0.112952
  13 H :    0.114608
  14 H :    0.114597
  15 H :    0.112962
  16 H :    0.113013
  17 H :    0.114641

-------------------------------
LOEWDIN REDUCED ORBITAL CHARGES
-------------------------------
  0 C s       :     2.906223  s :     2.906223
      pz      :     1.094935  p :     3.232260
      px      :     1.075991
      py      :     1.061334
      dz2     :     0.027235  d :     0.089036
      dxz     :     0.007892
      dyz     :     0.011713
      dx2y2   :     0.023443
      dxy     :     0.018754

  1 C s       :     2.906206  s :     2.906206
      pz      :     1.094926  p :     3.232287
      px      :     1.062080
      py      :     1.075281
      dz2     :     0.027243  d :     0.089042
      dxz     :     0.011518
      dyz     :     0.008075
      dx2y2   :     0.022284
      dxy     :     0.019921

  2 C s       :     2.906216  s :     2.906216
      pz      :     1.095013  p :     3.232460
      px      :     1.067961
      py      :     1.069486
      dz2     :     0.027238  d :     0.089029
      dxz     :     0.009997
      dyz     :     0.009600
      dx2y2   :     0.017567
      dxy     :     0.024627

  3 C s       :     2.906219  s :     2.906219
      pz      :     1.094939  p :     3.232271
      px      :     1.076001
      py      :     1.061331
      dz2     :     0.027240  d :     0.089036
      dxz     :     0.007884
      dyz     :     0.011714
      dx2y2   :     0.023444
      dxy     :     0.018753

  4 C s       :     2.906226  s :     2.906226
      pz      :     1.094929  p :     3.232268
      px      :     1.062074
      py      :     1.075266
      dz2     :     0.027238  d :     0.089033
      dxz     :     0.011516
      dyz     :     0.008083
      dx2y2   :     0.022280
      dxy     :     0.019916

  5 C s       :     2.906211  s :     2.906211
      pz      :     1.095032  p :     3.232474
      px      :     1.067961
      py      :     1.069481
      dz2     :     0.027238  d :     0.089028
      dxz     :     0.009996
      dyz     :     0.009601
      dx2y2   :     0.017568
      dxy     :     0.024625

  6 H s       :     0.885390  s :     0.885390

  7 H s       :     0.887057  s :     0.887057

  8 H s       :     0.887042  s :     0.887042

  9 H s       :     0.885400  s :     0.885400

 10 H s       :     0.885361  s :     0.885361

 11 H s       :     0.886997  s :     0.886997

 12 H s       :     0.887048  s :     0.887048

 13 H s       :     0.885392  s :     0.885392

 14 H s       :     0.885403  s :     0.885403

 15 H s       :     0.887038  s :     0.887038

 16 H s       :     0.886987  s :     0.886987

 17 H s       :     0.885359  s :     0.885359


---------------------------------
LOEWDIN BOND ORDERS (THRESH 0.050000)
---------------------------------
B(  0-C ,  1-C ) :   1.0956 B(  0-C ,  2-C ) :   0.0520 B(  0-C ,  4-C ) :   0.0520 
B(  0-C ,  5-C ) :   1.0956 B(  0-C ,  6-H ) :   0.9052 B(  0-C ,  7-H ) :   0.9034 
B(  1-C ,  2-C ) :   1.0956 B(  1-C ,  3-C ) :   0.0520 B(  1-C ,  5-C ) :   0.0520 
B(  1-C ,  8-H ) :   0.9034 B(  1-C ,  9-H ) :   0.9052 B(  2-C ,  3-C ) :   1.0956 
B(  2-C ,  4-C ) :   0.0520 B(  2-C , 10-H ) :   0.9052 B(  2-C , 11-H ) :   0.9034 
B(  3-C ,  4-C ) :   1.0956 B(  3-C ,  5-C ) :   0.0520 B(  3-C , 12-H ) :   0.9034 
B(  3-C , 13-H ) :   0.9052 B(  4-C ,  5-C ) :   1.0956 B(  4-C , 14-H ) :   0.9052 
B(  4-C , 15-H ) :   0.9034 B(  5-C , 16-H ) :   0.9034 B(  5-C , 17-H ) :   0.9052 


------------------------------------------
LOEWDIN REDUCED ORBITAL POPULATIONS PER MO
-------------------------------------------
THRESHOLD FOR PRINTING IS 0.1%%
                      0         1         2         3         4         5   
                  -9.87833  -9.87831  -9.87830  -9.87827  -9.87826  -9.87823
                   2.00000   2.00000   2.00000   2.00000   2.00000   2.00000
                  --------  --------  --------  --------  --------  --------
 0 C  s               5.9      27.9       9.7      14.8      24.9      16.5
 1 C  s               6.1      21.4       8.4      17.8      24.9      21.1
 2 C  s              39.8       0.1      33.4      14.2       0.0      12.2
 3 C  s               4.8      22.5       7.2      12.3      30.7      22.1
 4 C  s               7.6      27.8       9.9      19.6      19.0      15.9
 5 C  s              35.4       0.0      31.3      20.9       0.1      11.9

                      6         7         8         9        10        11   
                  -0.75014  -0.66133  -0.66131  -0.53519  -0.53518  -0.49090
                   2.00000   2.00000   2.00000   2.00000   2.00000   2.00000
                  --------  --------  --------  --------  --------  --------
 0 C  s              11.0       7.0      11.2       2.0       8.9       2.8
 0 C  pz              0.3       0.1       0.1       0.1       0.4       7.2
 0 C  px              1.6       0.2       0.2       0.0       3.1       0.4
 0 C  py              0.1       4.0       2.4       8.0       0.9       0.0
 1 C  s              11.0       2.5      15.8       3.5       7.3       2.8
 1 C  pz              0.3       0.0       0.1       0.2       0.4       7.2
 1 C  px              0.2       5.3       0.8       7.0       1.5       0.0
 1 C  py              1.5       0.5       0.1       0.0       3.4       0.4
 2 C  s              11.0      17.9       0.4      10.8       0.1       2.8
 2 C  pz              0.3       0.1       0.0       0.5       0.0       7.2
 2 C  px              0.8       0.1       3.6       1.7       4.5       0.2
 2 C  py              0.9       0.1       3.0       1.1       4.5       0.2
 2 C  dx2y2           0.0       0.0       0.2       0.0       0.1       0.0
 3 C  s              11.0       7.0      11.2       2.0       8.9       2.8
 3 C  pz              0.3       0.1       0.1       0.1       0.4       7.2
 3 C  px              1.6       0.2       0.2       0.0       3.1       0.4
 3 C  py              0.1       4.0       2.4       8.0       0.9       0.0
 4 C  s              11.0       2.5      15.8       3.5       7.4       2.8
 4 C  pz              0.3       0.0       0.1       0.2       0.4       7.2
 4 C  px              0.2       5.3       0.8       7.0       1.5       0.0
 4 C  py              1.5       0.5       0.1       0.0       3.4       0.4
 5 C  s              11.0      17.9       0.4      10.8       0.1       2.8
 5 C  pz              0.3       0.1       0.0       0.5       0.0       7.2
 5 C  px              0.8       0.1       3.6       1.7       4.5       0.2
 5 C  py              0.9       0.1       3.0       1.1       4.5       0.2
 5 C  dx2y2           0.0       0.0       0.2       0.0       0.1       0.0
 6 H  s               1.7       1.6       2.6       1.0       4.4       0.7
 7 H  s               2.0       1.4       2.3       0.8       3.5       5.4
 8 H  s               2.0       0.5       3.2       1.4       2.9       5.4
 9 H  s               1.7       0.6       3.7       1.8       3.6       0.7
10 H  s               1.7       4.2       0.1       5.4       0.0       0.7
11 H  s               2.0       3.6       0.1       4.2       0.0       5.4
12 H  s               2.0       1.4       2.3       0.8       3.5       5.4
13 H  s               1.7       1.6       2.6       1.0       4.4       0.7
14 H  s               1.7       0.6       3.7       1.8       3.6       0.7
15 H  s               2.0       0.5       3.2       1.4       2.9       5.4
16 H  s               2.0       3.6       0.1       4.2       0.0       5.4
17 H  s               1.7       4.2       0.1       5.4       0.0       0.7

                     12        13        14        15        16        17   
                  -0.42991  -0.38912  -0.38909  -0.38665  -0.33104  -0.33103
                   2.00000   2.00000   2.00000   2.00000   2.00000   2.00000
                  --------  --------  --------  --------  --------  --------
 0 C  s               0.2       0.0       0.0       1.5       0.1       0.5
 0 C  pz              0.0       5.9      13.2       3.2       0.0       0.0
 0 C  px             11.5       0.0       0.6       4.8       2.5      18.1
 0 C  py              0.5       2.9       1.0       0.2       1.8       0.3
 0 C  dxz             0.1       0.0       0.0       0.0       0.0       0.1
 0 C  dx2y2           0.0       0.0       0.0       0.2       0.1       0.0
 0 C  dxy             0.0       0.0       0.0       0.1       0.2       0.1
 1 C  s               0.2       0.0       0.0       1.5       0.2       0.4
 1 C  pz              0.0       3.7      15.4       3.2       0.0       0.0
 1 C  px              1.1       3.2       0.4       0.5       2.8       0.3
 1 C  py             11.0       0.1       0.6       4.6       5.7      13.9
 1 C  dx2y2           0.0       0.0       0.0       0.2       0.2       0.0
 1 C  dxy             0.0       0.0       0.0       0.1       0.1       0.2
 2 C  s               0.2       0.0       0.0       1.5       0.6       0.0
 2 C  pz              0.0      19.0       0.1       3.2       0.0       0.0
 2 C  px              5.5       0.1       2.3       2.3      10.3       0.2
 2 C  py              6.6       0.3       1.7       2.8      11.0       1.2
 2 C  dx2y2           0.0       0.0       0.0       0.0       0.0       0.3
 2 C  dxy             0.0       0.0       0.0       0.3       0.1       0.0
 3 C  s               0.2       0.0       0.0       1.5       0.1       0.5
 3 C  pz              0.0       5.9      13.2       3.2       0.0       0.0
 3 C  px             11.5       0.0       0.5       4.8       2.5      18.1
 3 C  py              0.5       2.9       1.0       0.2       1.8       0.3
 3 C  dxz             0.1       0.0       0.0       0.0       0.0       0.1
 3 C  dx2y2           0.0       0.0       0.0       0.2       0.1       0.0
 3 C  dxy             0.0       0.0       0.0       0.1       0.2       0.1
 4 C  s               0.2       0.0       0.0       1.5       0.2       0.4
 4 C  pz              0.0       3.7      15.4       3.2       0.0       0.0
 4 C  px              1.1       3.2       0.4       0.5       2.8       0.3
 4 C  py             11.0       0.1       0.6       4.6       5.7      13.9
 4 C  dx2y2           0.0       0.0       0.0       0.2       0.2       0.0
 4 C  dxy             0.0       0.0       0.0       0.1       0.1       0.2
 5 C  s               0.2       0.0       0.0       1.5       0.6       0.0
 5 C  pz              0.0      19.1       0.1       3.2       0.0       0.0
 5 C  px              5.5       0.1       2.2       2.3      10.3       0.2
 5 C  py              6.6       0.3       1.7       2.8      11.0       1.2
 5 C  dx2y2           0.0       0.0       0.0       0.0       0.0       0.3
 5 C  dxy             0.0       0.0       0.0       0.3       0.1       0.0
 6 H  s               4.1       0.5       1.0       6.5       1.5       7.9
 7 H  s               0.2       2.5       5.6       0.2       0.0       0.1
 8 H  s               0.2       1.6       6.6       0.2       0.0       0.1
 9 H  s               4.1       0.3       1.2       6.5       3.3       6.0
10 H  s               4.1       1.5       0.0       6.5       9.2       0.1
11 H  s               0.2       8.1       0.0       0.2       0.1       0.0
12 H  s               0.2       2.5       5.6       0.2       0.0       0.1
13 H  s               4.1       0.5       1.0       6.5       1.5       7.9
14 H  s               4.1       0.3       1.2       6.5       3.3       6.0
15 H  s               0.2       1.6       6.6       0.2       0.0       0.1
16 H  s               0.2       8.1       0.0       0.2       0.1       0.0
17 H  s               4.1       1.5       0.0       6.5       9.2       0.1

                     18        19        20        21        22        23   
                  -0.32729  -0.29790  -0.29787  -0.27658  -0.25401  -0.25399
                   2.00000   2.00000   2.00000   2.00000   2.00000   2.00000
                  --------  --------  --------  --------  --------  --------
 0 C  s               0.0       0.0       0.0       0.2       0.1       0.0
 0 C  pz              0.0       9.1       7.9       7.1       0.0       0.0
 0 C  px              0.7       0.0       0.2       0.1       9.7       0.1
 0 C  py             15.8       1.0       0.9       0.0       0.4      12.8
 0 C  dz2             0.0       0.3       0.3       0.6       0.0       0.0
 0 C  dyz             0.1       0.1       0.0       0.0       0.0       0.1
 0 C  dx2y2           0.0       0.0       0.0       0.0       0.4       0.2
 0 C  dxy             0.0       0.0       0.0       0.0       0.2       0.0
 1 C  s               0.0       0.0       0.0       0.2       0.0       0.1
 1 C  pz              0.0       0.9      16.2       7.1       0.0       0.0
 1 C  px             14.9       1.7       0.0       0.0      13.0       0.1
 1 C  py              1.5       0.1       0.2       0.1       0.4       9.6
 1 C  dz2             0.0       0.0       0.5       0.6       0.0       0.0
 1 C  dxz             0.1       0.1       0.0       0.0       0.1       0.0
 1 C  dx2y2           0.0       0.0       0.0       0.0       0.1       0.4
 1 C  dxy             0.0       0.0       0.0       0.0       0.1       0.3
 2 C  s               0.0       0.0       0.0       0.2       0.1       0.1
 2 C  pz              0.0      15.6       1.4       7.1       0.0       0.0
 2 C  px              8.9       0.0       1.1       0.0      11.1       0.6
 2 C  py              7.6       0.3       0.7       0.0       0.1      11.3
 2 C  dz2             0.0       0.5       0.0       0.6       0.0       0.0
 2 C  dxy             0.0       0.0       0.0       0.0       0.4       0.3
 3 C  s               0.0       0.0       0.0       0.2       0.1       0.0
 3 C  pz              0.0       9.1       7.9       7.1       0.0       0.0
 3 C  px              0.7       0.0       0.2       0.1       9.7       0.1
 3 C  py             15.8       1.0       0.9       0.0       0.4      12.8
 3 C  dz2             0.0       0.3       0.3       0.6       0.0       0.0
 3 C  dyz             0.1       0.1       0.0       0.0       0.0       0.1
 3 C  dx2y2           0.0       0.0       0.0       0.0       0.4       0.2
 3 C  dxy             0.0       0.0       0.0       0.0       0.2       0.0
 4 C  s               0.0       0.0       0.0       0.2       0.0       0.1
 4 C  pz              0.0       0.9      16.2       7.1       0.0       0.0
 4 C  px             14.9       1.7       0.0       0.0      13.0       0.1
 4 C  py              1.5       0.1       0.2       0.1       0.4       9.6
 4 C  dz2             0.0       0.0       0.5       0.6       0.0       0.0
 4 C  dxz             0.1       0.1       0.0       0.0       0.1       0.0
 4 C  dx2y2           0.0       0.0       0.0       0.0       0.1       0.4
 4 C  dxy             0.0       0.0       0.0       0.0       0.1       0.3
 5 C  s               0.0       0.0       0.0       0.2       0.1       0.1
 5 C  pz              0.0      15.6       1.5       7.1       0.0       0.0
 5 C  px              8.9       0.0       1.1       0.0      11.1       0.6
 5 C  py              7.6       0.3       0.7       0.0       0.1      11.3
 5 C  dz2             0.0       0.5       0.0       0.6       0.0       0.0
 5 C  dxy             0.0       0.0       0.0       0.0       0.4       0.3
 6 H  s               0.0       0.5       0.4       0.9       7.8       1.1
 7 H  s               0.0       6.7       5.8       7.8       0.1       0.0
 8 H  s               0.0       0.6      11.9       7.8       0.0       0.1
 9 H  s               0.0       0.0       0.8       0.9       0.2       8.7
10 H  s               0.0       0.8       0.1       0.9       5.4       3.6
11 H  s               0.0      11.4       1.1       7.8       0.0       0.0
12 H  s               0.0       6.7       5.8       7.8       0.1       0.0
13 H  s               0.0       0.5       0.4       0.9       7.8       1.1
14 H  s               0.0       0.0       0.8       0.9       0.2       8.7
15 H  s               0.0       0.6      11.9       7.8       0.0       0.1
16 H  s               0.0      11.4       1.1       7.8       0.0       0.0
17 H  s               0.0       0.8       0.1       0.9       5.4       3.6

                     24        25        26        27        28        29   
                   0.03573   0.05214   0.07373   0.07375   0.10988   0.11539
                   0.00000   0.00000   0.00000   0.00000   0.00000   0.00000
                  --------  --------  --------  --------  --------  --------
 0 C  s               3.7       0.6       2.4       4.6       0.1       4.2
 0 C  pz              0.5       3.6       0.2       0.3       3.9       1.8
 0 C  px              1.3       0.3       1.2       2.5       0.7       1.5
 0 C  py              0.1       0.0       0.3       0.1       0.0       0.6
 0 C  dz2             0.0       0.3       0.0       0.1       0.0       0.3
 0 C  dxz             0.1       0.2       0.0       0.0       0.1       0.0
 0 C  dyz             0.0       0.0       0.2       0.1       0.0       0.0
 0 C  dx2y2           0.2       0.0       0.0       0.0       0.4       0.0
 0 C  dxy             0.1       0.0       0.0       0.0       0.1       0.3
 1 C  s               3.7       0.6       1.2       5.8       0.1       4.5
 1 C  pz              0.5       3.6       0.1       0.4       3.9       2.0
 1 C  px              0.1       0.0       0.3       0.2       0.1       0.6
 1 C  py              1.3       0.2       0.5       3.0       0.7       1.5
 1 C  dz2             0.0       0.3       0.0       0.1       0.0       0.3
 1 C  dxz             0.0       0.0       0.3       0.0       0.0       0.0
 1 C  dyz             0.1       0.2       0.0       0.0       0.1       0.0
 1 C  dx2y2           0.2       0.0       0.0       0.0       0.3       0.0
 1 C  dxy             0.1       0.0       0.0       0.0       0.2       0.3
 2 C  s               3.7       0.6       6.9       0.1       0.1       0.0
 2 C  pz              0.5       3.6       0.5       0.0       3.9       0.0
 2 C  px              0.6       0.1       1.7       0.2       0.3       0.8
 2 C  py              0.8       0.1       2.1       0.1       0.4       0.7
 2 C  dz2             0.0       0.3       0.1       0.0       0.0       0.0
 2 C  dxz             0.0       0.1       0.0       0.2       0.1       0.0
 2 C  dyz             0.0       0.1       0.0       0.1       0.1       0.0
 2 C  dx2y2           0.0       0.0       0.0       0.0       0.0       0.7
 2 C  dxy             0.3       0.0       0.0       0.0       0.5       0.0
 3 C  s               3.7       0.6       2.4       4.6       0.1       4.2
 3 C  pz              0.5       3.6       0.2       0.3       3.9       1.8
 3 C  px              1.3       0.3       1.2       2.5       0.7       1.5
 3 C  py              0.1       0.0       0.3       0.1       0.0       0.6
 3 C  dz2             0.0       0.3       0.0       0.1       0.0       0.3
 3 C  dxz             0.1       0.2       0.0       0.0       0.1       0.0
 3 C  dyz             0.0       0.0       0.2       0.1       0.0       0.0
 3 C  dx2y2           0.2       0.0       0.0       0.0       0.4       0.0
 3 C  dxy             0.1       0.0       0.0       0.0       0.1       0.3
 4 C  s               3.7       0.6       1.2       5.8       0.1       4.5
 4 C  pz              0.5       3.6       0.1       0.4       3.9       2.0
 4 C  px              0.1       0.0       0.3       0.2       0.1       0.6
 4 C  py              1.3       0.2       0.5       3.0       0.7       1.5
 4 C  dz2             0.0       0.3       0.0       0.1       0.0       0.3
 4 C  dxz             0.0       0.0       0.3       0.0       0.0       0.0
 4 C  dyz             0.1       0.2       0.0       0.0       0.1       0.0
 4 C  dx2y2           0.2       0.0       0.0       0.0       0.3       0.0
 4 C  dxy             0.1       0.0       0.0       0.0       0.2       0.3
 5 C  s               3.7       0.6       6.9       0.1       0.1       0.0
 5 C  pz              0.5       3.6       0.5       0.0       3.9       0.0
 5 C  px              0.6       0.1       1.7       0.2       0.3       0.8
 5 C  py              0.8       0.1       2.1       0.1       0.4       0.7
 5 C  dz2             0.0       0.3       0.1       0.0       0.0       0.0
 5 C  dxz             0.0       0.1       0.0       0.2       0.1       0.0
 5 C  dyz             0.0       0.1       0.0       0.1       0.1       0.0
 5 C  dx2y2           0.0       0.0       0.0       0.0       0.0       0.7
 5 C  dxy             0.3       0.0       0.0       0.0       0.5       0.0
 6 H  s               6.5       1.0       5.0       9.7       4.6      14.3
 7 H  s               4.3      10.7       2.3       4.4       6.7       0.2
 8 H  s               4.3      10.7       1.1       5.6       6.7       0.2
 9 H  s               6.5       1.0       2.5      12.2       4.6      15.2
10 H  s               6.5       1.0      14.5       0.1       4.6       0.0
11 H  s               4.3      10.7       6.7       0.1       6.7       0.0
12 H  s               4.3      10.7       2.3       4.4       6.7       0.2
13 H  s               6.5       1.0       5.0       9.7       4.6      14.3
14 H  s               6.5       1.0       2.5      12.2       4.6      15.2
15 H  s               4.3      10.7       1.1       5.6       6.7       0.2
16 H  s               4.3      10.7       6.7       0.1       6.6       0.0
17 H  s               6.5       1.0      14.5       0.1       4.6       0.0

                     30        31        32        33        34        35   
                   0.11542   0.11971   0.12966   0.12974   0.13809   0.13813
                   0.00000   0.00000   0.00000   0.00000   0.00000   0.00000
                  --------  --------  --------  --------  --------  --------
 0 C  s               1.6       1.2       1.1       3.4       0.4       0.9
 0 C  pz              0.7       0.1       1.3       4.0       1.0       2.2
 0 C  px              0.8       3.9       0.1       0.4       2.0       2.3
 0 C  py              0.9       0.2       0.1       0.0       2.1       1.9
 0 C  dz2             0.1       0.0       0.0       0.1       0.0       0.1
 0 C  dxz             0.0       0.7       0.0       0.2       0.0       0.0
 0 C  dyz             0.0       0.0       0.3       0.0       0.7       0.3
 0 C  dx2y2           0.2       0.0       0.0       0.0       0.0       0.6
 0 C  dxy             0.3       0.0       0.0       0.0       0.5       0.0
 1 C  s               1.3       1.2       1.1       3.4       0.3       1.1
 1 C  pz              0.6       0.1       1.3       3.9       0.6       2.6
 1 C  px              0.9       0.4       0.2       0.0       2.2       1.8
 1 C  py              0.7       3.8       0.1       0.4       1.8       2.4
 1 C  dz2             0.1       0.0       0.0       0.1       0.0       0.1
 1 C  dxz             0.0       0.1       0.3       0.0       0.7       0.2
 1 C  dyz             0.0       0.7       0.0       0.3       0.1       0.0
 1 C  dx2y2           0.3       0.0       0.0       0.0       0.0       0.6
 1 C  dxy             0.2       0.0       0.0       0.0       0.5       0.0
 2 C  s               5.8       1.2       4.5       0.0       1.4       0.0
 2 C  pz              2.5       0.1       5.3       0.0       3.2       0.0
 2 C  px              1.1       1.9       0.2       0.1       2.1       2.0
 2 C  py              1.2       2.3       0.2       0.1       2.2       2.0
 2 C  dz2             0.4       0.0       0.2       0.0       0.2       0.0
 2 C  dxz             0.0       0.4       0.1       0.2       0.0       0.5
 2 C  dyz             0.0       0.4       0.1       0.1       0.0       0.5
 2 C  dx2y2           0.0       0.0       0.0       0.1       0.0       0.5
 2 C  dxy             0.2       0.0       0.0       0.0       0.7       0.0
 3 C  s               1.6       1.2       1.1       3.4       0.4       1.0
 3 C  pz              0.7       0.1       1.3       3.9       1.0       2.3
 3 C  px              0.8       4.0       0.1       0.4       2.0       2.3
 3 C  py              0.9       0.2       0.1       0.0       2.1       1.9
 3 C  dz2             0.1       0.0       0.0       0.1       0.0       0.1
 3 C  dxz             0.0       0.7       0.0       0.2       0.0       0.0
 3 C  dyz             0.0       0.0       0.3       0.0       0.7       0.3
 3 C  dx2y2           0.2       0.0       0.0       0.0       0.0       0.6
 3 C  dxy             0.3       0.0       0.0       0.0       0.5       0.0
 4 C  s               1.3       1.2       1.2       3.4       0.3       1.1
 4 C  pz              0.6       0.1       1.3       3.9       0.7       2.5
 4 C  px              0.9       0.4       0.2       0.0       2.2       1.8
 4 C  py              0.7       3.8       0.0       0.4       1.8       2.4
 4 C  dz2             0.1       0.0       0.0       0.1       0.0       0.1
 4 C  dxz             0.0       0.1       0.3       0.0       0.7       0.2
 4 C  dyz             0.0       0.7       0.0       0.3       0.1       0.0
 4 C  dx2y2           0.3       0.0       0.0       0.0       0.0       0.6
 4 C  dxy             0.2       0.0       0.0       0.0       0.5       0.0
 5 C  s               5.8       1.1       4.6       0.0       1.4       0.0
 5 C  pz              2.5       0.1       5.3       0.0       3.2       0.0
 5 C  px              1.1       1.9       0.2       0.1       2.1       2.0
 5 C  py              1.2       2.3       0.2       0.1       2.2       2.0
 5 C  dz2             0.4       0.0       0.2       0.0       0.2       0.0
 5 C  dxz             0.0       0.4       0.1       0.2       0.0       0.5
 5 C  dyz             0.0       0.4       0.1       0.1       0.0       0.4
 5 C  dx2y2           0.0       0.0       0.0       0.1       0.0       0.5
 5 C  dxy             0.2       0.0       0.0       0.0       0.7       0.0
 6 H  s               5.4       9.2       0.1       0.2       2.4       5.7
 7 H  s               0.1       1.2       5.4      16.5       3.0       7.1
 8 H  s               0.1       1.2       5.5      16.3       2.1       8.1
 9 H  s               4.5       9.3       0.1       0.2       1.7       6.5
10 H  s              19.6       9.3       0.3       0.0       8.1       0.0
11 H  s               0.3       1.2      21.9       0.0      10.1       0.0
12 H  s               0.1       1.2       5.4      16.4       3.0       7.1
13 H  s               5.3       9.2       0.1       0.2       2.4       5.7
14 H  s               4.5       9.2       0.1       0.2       1.7       6.4
15 H  s               0.1       1.2       5.5      16.3       2.1       8.1
16 H  s               0.3       1.2      21.9       0.0      10.1       0.0
17 H  s              19.7       9.3       0.3       0.0       8.1       0.0

                     36        37        38        39        40        41   
                   0.19461   0.19747   0.19749   0.23095   0.23099   0.23714
                   0.00000   0.00000   0.00000   0.00000   0.00000   0.00000
                  --------  --------  --------  --------  --------  --------
 0 C  s               5.3       0.4       1.8       0.4       0.4       0.0
 0 C  pz              1.8       0.8       3.9       2.3       2.2       0.0
 0 C  px              5.2       1.0       8.9       1.9       0.2       0.6
 0 C  py              0.2       4.7       0.3       5.7       7.5      12.9
 0 C  dz2             0.7       0.3       1.2       0.0       0.0       0.0
 0 C  dxz             1.3       0.1       0.6       0.2       0.1       0.1
 0 C  dyz             0.1       0.0       0.0       0.1       0.2       2.3
 0 C  dx2y2           0.2       0.7       0.0       0.0       1.3       0.1
 0 C  dxy             0.0       1.6       0.7       1.8       0.5       0.6
 1 C  s               5.4       0.7       1.5       0.0       0.7       0.0
 1 C  pz              1.8       1.6       3.1       0.3       4.2       0.0
 1 C  px              0.5       4.7       0.5      11.1       1.5      12.3
 1 C  py              5.0       1.8       7.8       1.9       0.8       1.3
 1 C  dz2             0.7       0.5       1.0       0.0       0.1       0.0
 1 C  dxz             0.1       0.0       0.1       0.2       0.1       2.2
 1 C  dyz             1.2       0.2       0.5       0.1       0.1       0.2
 1 C  dx2y2           0.2       1.1       0.0       0.4       1.1       0.2
 1 C  dxy             0.1       0.8       1.1       2.0       0.1       0.5
 2 C  s               5.4       2.2       0.0       0.7       0.0       0.0
 2 C  pz              1.8       4.6       0.0       4.2       0.3       0.0
 2 C  px              2.5       5.1       2.1       2.2       6.0       7.4
 2 C  py              3.0       4.9       2.7       0.2       6.9       6.1
 2 C  dz2             0.7       1.4       0.0       0.1       0.0       0.0
 2 C  dxz             0.6       0.3       0.0       0.2       0.1       1.3
 2 C  dyz             0.7       0.4       0.0       0.1       0.2       1.1
 2 C  dx2y2           0.0       0.0       2.6       0.3       2.2       0.7
 2 C  dxy             0.3       0.3       0.0       1.0       0.2       0.0
 3 C  s               5.4       0.4       1.8       0.4       0.4       0.0
 3 C  pz              1.8       0.8       3.8       2.3       2.2       0.0
 3 C  px              5.2       0.9       8.9       1.9       0.2       0.6
 3 C  py              0.3       4.7       0.3       5.7       7.5      12.9
 3 C  dz2             0.7       0.2       1.2       0.0       0.0       0.0
 3 C  dxz             1.3       0.1       0.6       0.2       0.1       0.1
 3 C  dyz             0.1       0.0       0.0       0.1       0.2       2.3
 3 C  dx2y2           0.2       0.7       0.0       0.0       1.3       0.1
 3 C  dxy             0.0       1.6       0.7       1.8       0.5       0.6
 4 C  s               5.4       0.8       1.5       0.0       0.7       0.0
 4 C  pz              1.8       1.6       3.1       0.3       4.2       0.0
 4 C  px              0.5       4.7       0.5      11.1       1.5      12.2
 4 C  py              5.0       1.8       7.8       1.9       0.8       1.2
 4 C  dz2             0.7       0.5       1.0       0.0       0.1       0.0
 4 C  dxz             0.1       0.0       0.1       0.2       0.1       2.2
 4 C  dyz             1.2       0.3       0.4       0.1       0.1       0.2
 4 C  dx2y2           0.2       1.1       0.0       0.4       1.1       0.2
 4 C  dxy             0.1       0.8       1.1       2.0       0.1       0.5
 5 C  s               5.3       2.2       0.0       0.7       0.0       0.0
 5 C  pz              1.8       4.6       0.0       4.2       0.3       0.0
 5 C  px              2.5       5.1       2.1       2.2       6.0       7.4
 5 C  py              3.0       5.0       2.7       0.2       6.9       6.1
 5 C  dz2             0.7       1.4       0.0       0.1       0.0       0.0
 5 C  dxz             0.6       0.3       0.0       0.2       0.1       1.3
 5 C  dyz             0.7       0.4       0.0       0.1       0.2       1.1
 5 C  dx2y2           0.0       0.0       2.6       0.3       2.2       0.7
 5 C  dxy             0.3       0.3       0.0       1.0       0.2       0.0
 6 H  s               1.3       0.6       2.9       1.8       1.8       0.0
 7 H  s               0.5       0.5       2.4       2.5       2.5       0.0
 8 H  s               0.5       1.0       1.9       0.3       4.7       0.0
 9 H  s               1.2       1.2       2.3       0.2       3.4       0.0
10 H  s               1.2       3.5       0.0       3.3       0.2       0.0
11 H  s               0.5       2.8       0.0       4.7       0.3       0.0
12 H  s               0.5       0.5       2.4       2.5       2.5       0.0
13 H  s               1.2       0.6       2.9       1.8       1.8       0.0
14 H  s               1.2       1.2       2.3       0.2       3.4       0.0
15 H  s               0.5       1.0       1.9       0.3       4.7       0.0
16 H  s               0.5       2.9       0.0       4.6       0.3       0.0
17 H  s               1.3       3.5       0.0       3.3       0.2       0.0

                     42        43        44        45        46        47   
                   0.39497   0.40128   0.41295   0.41304   0.42489   0.44799
                   0.00000   0.00000   0.00000   0.00000   0.00000   0.00000
                  --------  --------  --------  --------  --------  --------
 0 C  s               0.4       1.8       0.4       0.8       0.0       0.2
 0 C  pz              2.0       0.2       2.1       3.8       0.0       1.7
 0 C  px              2.1       4.0       2.2       1.2       0.7       0.3
 0 C  py              0.1       0.2       3.7       3.5      14.0       3.9
 0 C  dz2             2.3       0.0       1.0       1.8       0.0       0.3
 0 C  dxz             0.6       0.4       0.0       0.0       0.0       0.0
 0 C  dyz             0.0       0.0       0.7       0.4       0.2       1.3
 0 C  dx2y2           0.1       2.3       0.2       0.0       0.3       0.0
 0 C  dxy             0.0       0.5       0.3       0.3       1.5       0.0
 1 C  s               0.4       1.8       0.2       1.0       0.0       0.4
 1 C  pz              2.0       0.2       0.9       5.0       0.0       4.3
 1 C  px              0.2       0.4       4.9       2.2      13.3       3.6
 1 C  py              2.0       3.8       1.9       1.6       1.3       0.8
 1 C  dz2             2.3       0.0       0.4       2.4       0.0       0.8
 1 C  dxz             0.1       0.0       0.9       0.2       0.2       1.2
 1 C  dyz             0.5       0.4       0.1       0.0       0.0       0.1
 1 C  dx2y2           0.1       1.8       0.3       0.0       0.6       0.1
 1 C  dxy             0.0       0.9       0.3       0.2       1.2       0.1
 2 C  s               0.4       1.8       1.2       0.0       0.0       1.2
 2 C  pz              2.0       0.2       5.8       0.1       0.0      11.3
 2 C  px              1.0       1.9       2.0       3.5       8.0       3.0
 2 C  py              1.2       2.3       1.2       3.8       6.6       2.3
 2 C  dz2             2.3       0.0       2.8       0.0       0.0       2.1
 2 C  dxz             0.3       0.2       0.0       0.6       0.1       0.8
 2 C  dyz             0.3       0.2       0.0       0.5       0.1       0.5
 2 C  dx2y2           0.0       0.0       0.0       0.7       1.8       0.0
 2 C  dxy             0.1       2.7       0.1       0.0       0.0       0.4
 3 C  s               0.4       1.8       0.4       0.8       0.0       0.2
 3 C  pz              2.0       0.2       2.1       3.8       0.0       1.7
 3 C  px              2.1       4.0       2.2       1.2       0.7       0.3
 3 C  py              0.1       0.2       3.7       3.5      14.0       3.9
 3 C  dz2             2.3       0.0       1.0       1.8       0.0       0.3
 3 C  dxz             0.5       0.4       0.0       0.0       0.0       0.0
 3 C  dyz             0.0       0.0       0.7       0.4       0.2       1.3
 3 C  dx2y2           0.1       2.3       0.2       0.0       0.3       0.0
 3 C  dxy             0.0       0.5       0.3       0.3       1.5       0.0
 4 C  s               0.4       1.8       0.2       1.0       0.0       0.4
 4 C  pz              2.0       0.2       0.9       5.0       0.0       4.3
 4 C  px              0.2       0.4       4.8       2.2      13.3       3.6
 4 C  py              2.0       3.8       1.9       1.7       1.3       0.8
 4 C  dz2             2.3       0.0       0.4       2.4       0.0       0.8
 4 C  dxz             0.1       0.0       0.9       0.2       0.2       1.2
 4 C  dyz             0.5       0.4       0.1       0.0       0.0       0.1
 4 C  dx2y2           0.1       1.8       0.3       0.0       0.6       0.1
 4 C  dxy             0.0       0.9       0.3       0.2       1.2       0.1
 5 C  s               0.4       1.8       1.2       0.0       0.0       1.2
 5 C  pz              2.0       0.2       5.8       0.1       0.0      11.3
 5 C  px              1.0       1.9       1.9       3.5       8.0       3.0
 5 C  py              1.2       2.3       1.2       3.8       6.6       2.3
 5 C  dz2             2.3       0.0       2.7       0.0       0.0       2.1
 5 C  dxz             0.3       0.2       0.0       0.6       0.1       0.8
 5 C  dyz             0.3       0.2       0.0       0.5       0.1       0.5
 5 C  dx2y2           0.0       0.0       0.0       0.7       1.8       0.0
 5 C  dxy             0.1       2.7       0.1       0.0       0.0       0.4
 6 H  s               3.7       7.2       0.5       1.0       0.0       0.2
 7 H  s               5.5       0.0       3.3       5.9       0.0       0.6
 8 H  s               5.5       0.0       1.4       7.8       0.0       1.7
 9 H  s               3.6       7.3       0.2       1.3       0.0       0.6
10 H  s               3.7       7.2       1.6       0.0       0.0       1.6
11 H  s               5.5       0.0       9.1       0.1       0.0       4.4
12 H  s               5.5       0.0       3.3       5.9       0.0       0.6
13 H  s               3.6       7.3       0.5       1.0       0.0       0.2
14 H  s               3.7       7.2       0.2       1.3       0.0       0.6
15 H  s               5.5       0.0       1.4       7.8       0.0       1.7
16 H  s               5.5       0.0       9.1       0.1       0.0       4.4
17 H  s               3.6       7.2       1.6       0.0       0.0       1.6

                     48        49        50        51        52        53   
                   0.44811   0.56712   0.56717   0.59302   0.61603   0.61607
                   0.00000   0.00000   0.00000   0.00000   0.00000   0.00000
                  --------  --------  --------  --------  --------  --------
 0 C  s               1.0       0.3       3.7       4.2       4.1       0.0
 0 C  pz              9.9       0.1       1.5       2.2       0.4       0.0
 0 C  px              5.0       1.9       2.9       6.8       3.0       0.3
 0 C  py              0.1      15.3       2.2       0.3       0.0      11.4
 0 C  dz2             1.9       0.0       0.0       0.0       0.0       0.0
 0 C  dxz             1.3       0.0       0.1       0.0       0.1       0.0
[...]
 5 C  dxz             3.0       0.7       0.9       3.4       5.4       0.1
 5 C  dyz             4.0       0.5       1.1       4.1       0.5       5.2
 5 C  dx2y2           1.0       8.8       0.0       0.0       0.5       1.1
 5 C  dxy             4.0       0.3       0.2       1.6       0.0       0.0
 6 H  s               0.0       0.1       0.0       1.1       0.0       1.0
 7 H  s               0.0       0.6       1.4       0.5       0.0       1.6
 8 H  s               0.4       0.2       1.4       0.5       1.3       0.3
 9 H  s               0.0       0.0       0.0       1.1       0.8       0.2
10 H  s               0.0       0.0       0.0       1.1       0.7       0.3
11 H  s               0.5       0.1       1.4       0.5       1.1       0.5
12 H  s               0.0       0.6       1.4       0.5       0.0       1.6
13 H  s               0.0       0.1       0.0       1.1       0.0       1.0
14 H  s               0.0       0.0       0.0       1.1       0.8       0.2
15 H  s               0.4       0.2       1.4       0.5       1.3       0.3
16 H  s               0.5       0.1       1.4       0.5       1.1       0.5
17 H  s               0.0       0.0       0.0       1.1       0.7       0.3

                    102       103       104       105       106       107   
                   2.51623   2.51626   2.53506   2.60306   2.60310   2.66004
                   0.00000   0.00000   0.00000   0.00000   0.00000   0.00000
                  --------  --------  --------  --------  --------  --------
 0 C  s               0.7       0.2       0.6       0.7       0.3       0.0
 0 C  pz              0.1       0.0       0.1       0.1       0.0       0.0
 0 C  px              0.2       0.1       0.0       1.3       0.1       0.1
 0 C  py              0.1       0.2       0.0       0.5       2.2       2.2
 0 C  dz2             5.1       1.7       0.1       0.8       0.3       0.0
 0 C  dxz             0.1       0.4       0.0       2.7       0.2       0.1
 0 C  dyz             2.5       7.2       0.0       0.7       4.0       3.0
 0 C  dx2y2           8.4       2.9      12.8       0.0       4.1       1.9
 0 C  dxy             1.8       0.6       2.7       6.0       8.7       9.2
 1 C  s               0.0       0.9       0.6       0.0       1.1       0.0
 1 C  pz              0.0       0.2       0.1       0.0       0.1       0.0
 1 C  px              0.3       0.0       0.0       2.4       0.2       2.1
 1 C  py              0.0       0.3       0.0       0.3       1.2       0.2
 1 C  dz2             0.0       6.8       0.1       0.0       1.2       0.0
 1 C  dxz             9.2       0.0       0.0       4.3       0.4       2.9
 1 C  dyz             0.9       0.0       0.0       0.6       2.4       0.3
 1 C  dx2y2           0.0       9.1      10.3       5.7       1.0       3.7
 1 C  dxy             0.0       4.6       5.2      11.8       0.2       7.4
 2 C  s               0.7       0.2       0.6       0.8       0.2       0.0
 2 C  pz              0.1       0.0       0.1       0.1       0.0       0.0
 2 C  px              0.1       0.3       0.0       1.5       0.6       1.3
 2 C  py              0.3       0.1       0.0       0.1       1.8       1.1
 2 C  dz2             5.1       1.7       0.1       0.9       0.3       0.0
 2 C  dxz             1.3       4.3       0.0       3.1       0.9       1.7
 2 C  dyz             1.3       3.3       0.0       0.2       3.6       1.4
 2 C  dx2y2           0.1       0.0       0.1       4.0      13.4      11.1
 2 C  dxy            10.2       3.4      15.2       0.6       0.7       0.1
 3 C  s               0.7       0.2       0.6       0.7       0.3       0.0
 3 C  pz              0.1       0.0       0.1       0.1       0.0       0.0
 3 C  px              0.2       0.1       0.0       1.3       0.1       0.1
 3 C  py              0.1       0.2       0.0       0.5       2.2       2.2
 3 C  dz2             5.1       1.7       0.1       0.8       0.3       0.0
 3 C  dxz             0.1       0.4       0.0       2.7       0.2       0.1
 3 C  dyz             2.5       7.2       0.0       0.7       4.0       3.0
 3 C  dx2y2           8.5       2.9      12.7       0.0       4.1       1.9
 3 C  dxy             1.8       0.6       2.7       6.0       8.7       9.2
 4 C  s               0.0       0.9       0.6       0.0       1.1       0.0
 4 C  pz              0.0       0.2       0.1       0.0       0.1       0.0
 4 C  px              0.3       0.0       0.0       2.4       0.2       2.1
 4 C  py              0.0       0.3       0.0       0.3       1.2       0.2
 4 C  dz2             0.0       6.8       0.1       0.0       1.2       0.0
 4 C  dxz             9.2       0.0       0.0       4.3       0.4       2.9
 4 C  dyz             0.9       0.0       0.0       0.6       2.4       0.3
 4 C  dx2y2           0.0       9.1      10.2       5.7       1.0       3.7
 4 C  dxy             0.0       4.6       5.2      11.8       0.2       7.4
 5 C  s               0.7       0.2       0.6       0.8       0.2       0.0
 5 C  pz              0.1       0.0       0.1       0.1       0.0       0.0
 5 C  px              0.1       0.3       0.0       1.5       0.6       1.3
 5 C  py              0.3       0.1       0.0       0.1       1.8       1.1
 5 C  dz2             5.1       1.7       0.1       0.9       0.3       0.0
 5 C  dxz             1.3       4.3       0.0       3.1       0.9       1.7
 5 C  dyz             1.3       3.3       0.0       0.2       3.6       1.4
 5 C  dx2y2           0.1       0.0       0.1       4.0      13.4      11.1
 5 C  dxy            10.1       3.4      15.3       0.6       0.7       0.1
 6 H  s               0.2       0.1       0.5       0.3       0.1       0.0
 7 H  s               0.5       0.2       0.0       0.0       0.0       0.0
 8 H  s               0.0       0.7       0.0       0.0       0.0       0.0
 9 H  s               0.0       0.2       0.5       0.0       0.4       0.0
10 H  s               0.2       0.1       0.5       0.3       0.1       0.0
11 H  s               0.5       0.2       0.0       0.0       0.0       0.0
12 H  s               0.5       0.2       0.0       0.0       0.0       0.0
13 H  s               0.2       0.1       0.5       0.3       0.1       0.0
14 H  s               0.0       0.2       0.5       0.0       0.4       0.0
15 H  s               0.0       0.7       0.0       0.0       0.0       0.0
16 H  s               0.5       0.2       0.0       0.0       0.0       0.0
17 H  s               0.2       0.1       0.5       0.3       0.1       0.0



                      *****************************
                      * MAYER POPULATION ANALYSIS *
                      *****************************

  NA   - Mulliken gross atomic population
  ZA   - Total nuclear charge
  QA   - Mulliken gross atomic charge
  VA   - Mayer's total valence
  BVA  - Mayer's bonded valence
  FA   - Mayer's free valence

  ATOM       NA         ZA         QA         VA         BVA        FA
  0 C      6.1564     6.0000    -0.1564     4.1458     4.1458    -0.0000
  1 C      6.1564     6.0000    -0.1564     4.1458     4.1458     0.0000
  2 C      6.1579     6.0000    -0.1579     4.1461     4.1461     0.0000
  3 C      6.1563     6.0000    -0.1563     4.1458     4.1458    -0.0000
  4 C      6.1565     6.0000    -0.1565     4.1458     4.1458     0.0000
  5 C      6.1579     6.0000    -0.1579     4.1462     4.1462     0.0000
  6 H      0.9168     1.0000     0.0832     0.9434     0.9434     0.0000
  7 H      0.9265     1.0000     0.0735     0.9533     0.9533    -0.0000
  8 H      0.9264     1.0000     0.0736     0.9533     0.9533     0.0000
  9 H      0.9168     1.0000     0.0832     0.9435     0.9435    -0.0000
 10 H      0.9166     1.0000     0.0834     0.9434     0.9434    -0.0000
 11 H      0.9262     1.0000     0.0738     0.9533     0.9533    -0.0000
 12 H      0.9265     1.0000     0.0735     0.9533     0.9533     0.0000
 13 H      0.9168     1.0000     0.0832     0.9434     0.9434    -0.0000
 14 H      0.9168     1.0000     0.0832     0.9434     0.9434     0.0000
 15 H      0.9264     1.0000     0.0736     0.9533     0.9533    -0.0000
 16 H      0.9262     1.0000     0.0738     0.9533     0.9533    -0.0000
 17 H      0.9166     1.0000     0.0834     0.9434     0.9434    -0.0000

  Mayer bond orders larger than 0.100000
B(  0-C ,  1-C ) :   1.1331 B(  0-C ,  5-C ) :   1.1332 B(  0-C ,  6-H ) :   0.9207 
B(  0-C ,  7-H ) :   0.9160 B(  1-C ,  2-C ) :   1.1332 B(  1-C ,  8-H ) :   0.9160 
B(  1-C ,  9-H ) :   0.9207 B(  2-C ,  3-C ) :   1.1332 B(  2-C , 10-H ) :   0.9207 
B(  2-C , 11-H ) :   0.9161 B(  3-C ,  4-C ) :   1.1331 B(  3-C , 12-H ) :   0.9160 
B(  3-C , 13-H ) :   0.9207 B(  4-C ,  5-C ) :   1.1332 B(  4-C , 14-H ) :   0.9207 
B(  4-C , 15-H ) :   0.9160 B(  5-C , 16-H ) :   0.9161 B(  5-C , 17-H ) :   0.9207 


-------
TIMINGS
-------

Total SCF time: 0 days 0 hours 0 min 0 sec 

Total time                  ....       0.665 sec
Sum of individual times     ....       0.657 sec  ( 98.8%)

SCF preparation             ....       0.024 sec  (  3.7%)
Fock matrix formation       ....       0.593 sec  ( 89.2%)
  Startup                   ....       0.001 sec  (  0.1% of F)
  Split-RI-J                ....       0.246 sec  ( 41.5% of F)
  XC integration            ....       0.340 sec  ( 57.4% of F)
    XC Preparation          ....       0.000 sec  (  0.0% of XC)
    Basis function eval.    ....       0.149 sec  ( 43.7% of XC)
    Density eval.           ....       0.071 sec  ( 21.0% of XC)
    XC-Functional eval.     ....       0.027 sec  (  7.8% of XC)
    XC-Potential eval.      ....       0.080 sec  ( 23.5% of XC)
Diagonalization             ....       0.000 sec  (  0.0%)
Density matrix formation    ....       0.001 sec  (  0.2%)
Total Energy calculation    ....       0.000 sec  (  0.0%)
Population analysis         ....       0.030 sec  (  4.5%)
Orbital Transformation      ....       0.001 sec  (  0.2%)
Orbital Orthonormalization  ....       0.000 sec  (  0.0%)
DIIS solution               ....       0.001 sec  (  0.2%)
  MO trafo                  ....       0.000 sec  (  0.1 % of DIIS)
  Orb grad                  ....       0.000 sec  (  0.0 % of DIIS)
  Energy W gradient         ....       0.000 sec  (  0.0 % of DIIS)
  DIIS error                ....       0.000 sec  (  9.9 % of DIIS)
  DIIS work                 ....       0.001 sec  ( 87.8 % of DIIS)
  Form Q                    ....       0.000 sec  (  0.0 % of DIIS)
  Form QpQm                 ....       0.000 sec  (  0.0 % of DIIS)
  Exp/Cayley                ....       0.000 sec  (  0.0 % of DIIS)
  Orb update                ....       0.000 sec  (  0.0 % of DIIS)
  Wake-sleep                ....       0.000 sec  (  2.2 % of DIIS)
SOSCF solution              ....       0.006 sec  (  1.0%)
  MO trafo                  ....       0.005 sec  ( 84.0 % of SOSCF)
  Orb grad                  ....       0.000 sec  (  0.6 % of SOSCF)
  Rot update                ....       0.000 sec  (  1.6 % of SOSCF)
  Step                      ....       0.001 sec  ( 12.6 % of SOSCF)
Finished LeanSCF after   0.7 sec

Maximum memory used throughout the entire LEANSCF-calculation: 11.0 MB


-------------------------------------------------------------------------------
                          DFT DISPERSION CORRECTION                            
                                                                               
                                DFTD4 V3.4.0                                   
-------------------------------------------------------------------------------
The PBE functional is recognized
Active option DFTDOPT                   ...         5   

-------------------------   ----------------
Dispersion correction           -0.014844731
-------------------------   ----------------

------------------   -----------------
gCP correction             0.076552448
------------------   -----------------

-------------------------   --------------------
FINAL SINGLE POINT ENERGY      -235.277208759852
-------------------------   --------------------


------------------------------------------------------------------------------
                              ORCA PROPERTY CALCULATIONS
------------------------------------------------------------------------------

GBWName                                 ... sp.gbw
Number of atoms                         ...     18
Number of basis functions               ...    108
Max core memory                         ...   1024 MB

Electric properties:
Dipole moment                           ... YES
Quadrupole moment                       ...  NO
Static polarizability (Dipole/Dipole)   ...  NO
Static polarizability (Dipole/Quad.)    ...  NO
Static polarizability (Quad./Quad.)     ...  NO
Static polarizability (Velocity)        ...  NO

Atomic electric properties:
Dipole moment                           ...  NO
Quadrupole moment                       ...  NO
Static polarizability                   ...  NO

Choice of electric origin               ... Center of mass
Position of electric origin             ...    -0.000000     0.000000     0.000000

General magnetic properties:
Magnetizability                         ...  NO

EPR properties:
g-Tensor (aka g-matrix)                 ...  NO
Zero-Field splitting spin-orbit         ...  NO
Zero-field splitting spin-spin          ...  NO
Hyperfine couplings                     ...  NO (   0 nuclei)
Quadrupole couplings                    ...  NO (   0 nuclei)
Contact density                         ...  NO (   0 nuclei)

NMR properties:
Chemical shifts                         ...  NO (   0 nuclei)
Spin-rotation constants                 ...  NO (   0 nuclei)
Spin-spin couplings                     ...  NO (   0 nuclei,    0 pairs)

Choice of magnetic origin               ... GIAO
Position of magnetic origin             ...     0.000000     0.000000     0.000000

Properties with geometric perturbations:
SCF Hessian                             ...  NO
IR spectrum                             ...  NO
VCD spectrum                            ...  NO
X-ray spectroscopy properties:
SCF XES/XAS/RIXS spectra                ...  NO


-------------
DIPOLE MOMENT
-------------

Method             : SCF
Type of density    : Electron Density
Multiplicity       :   1
Irrep              :   0
Energy             :  -235.3389164769230888 Eh
Relativity type    : 
Basis              : AO
                                X                 Y                 Z
Electronic contribution:      0.000086642      -0.000139819      -0.000148743
Nuclear contribution   :     -0.000090325       0.000133616       0.000193327
                        -----------------------------------------
Total Dipole Moment    :     -0.000003683      -0.000006204       0.000044584
                        -----------------------------------------
Magnitude (a.u.)       :      0.000045164
Magnitude (Debye)      :      0.000114797



--------------------
Rotational spectrum 
--------------------
 
Rotational constants in cm-1:             0.145697             0.145683             0.083745 
Rotational constants in MHz :          4367.878324          4367.478065          2510.614099 

Dipole components along the rotational axes: 
x,y,z [a.u.] :    -0.000004    -0.000006     0.000045 
x,y,z [Debye]:    -0.000009    -0.000016     0.000113 

 

Dipole moment calculation done in   0.0 sec 

Maximum memory used throughout the entire PROP-calculation: 7.1 MB

--------------------------------
SUGGESTED CITATIONS FOR THIS RUN
--------------------------------

Below you find a list of papers that are relevant to this ORCA run
We neither can nor want to force you to cite these papers, but we appreciate if you do
You receive ORCA, which is the product of decades of hard work by many enthusiastic individuals, for free
The only thing we kindly ask in return is that you cite our papers,
We deeply appreciate it, if you show your appreciation for ORCA by not just citing the generic ORCA reference.

Please note that relegating all ORCA citations to the supporting information does *not* help us.
SI sections are not indexed - citations you put there will not count into any citation statistics
But we need these citations in order to attract the funding resources that allow us to do what we are doing

Therefore, if you are a happy ORCA user, please consider citing a few of the papers listed below in the main body of your paper

In addition to the list printed below, the program has created the file sp.bibtex that contains the list in bibtex format
You can import this file easily into all common literature databanks and citation aid programs


List of essential papers. We consider these as the minimum necessary citations

  1. Neese,F.
     Software update: the ORCA program system, version 5.0
     WIRES Comput. Molec. Sci., 2022 12(1)e1606
     doi.org/10.1002/wcms.1606

List of papers to cite with high priority. The work reported in these papers was absolutely
necessary for this run to complete.
Our perspective: the developers of density functionals and basis sets usually get cited in chemistry papers
Good! But without the algorithms to do something with them, the functionals or basis sets would not do anything.
Hence, in our opinion, the algorithm design and method developments papers are equally worthy of getting cited

  1. Neese,F.
     An improvement of the resolution of the identity approximation for the formation of the Coulomb matrix
     J. Comp. Chem., 2003 24(14)1740-1747
     doi.org/10.1002/jcc.10318
  2. Neese,F.
     The SHARK Integral Generation and Digestion System
     J. Comp. Chem., 2022  1-16
     doi.org/10.1002/jcc.26942
  3. Caldeweyher,E.; Bannwarth,C.; Grimme,S.
     Extension of the D3 dispersion coefficient model
     J. Chem. Phys., 2017 147 034112
     doi.org/10.1063/1.4993215
  4. Caldeweyher,E.; Ehlert,S.; Hansen,A.; Neugebauer,H.; Spicher,S.; Bannwarth,C.; Grimme,S.
     A generally applicable atomic-charge dependent London dispersion correction
     J. Chem. Phys., 2019 150 154122
     doi.org/10.1063/1.5090222
  5. Caldeweyher,E.; Mewes,J.; Ehlert,S.; Grimme,S.
     Extension and evaluation of the D4 London-dispersion model for periodic systems
     Phys. Chem. Chem. Phys., 2020 22(16)8499-8512
     doi.org/10.1039/D0CP00502A
  6. Wittmann,L.; Gordiy,I.; Friede,M.; Helmich-Paris,B.; Grimme,S.; Hansen,A.; Bursch,M.
     Extension of the D3 and D4 London Dispersion Corrections to the full Actinides Series
     Phys. Chem. Chem. Phys., 2024 26(32)21379-21394
     doi.org/https://doi.org/10.1039/D4CP01514B 

List of suggested additional citations. These are papers that are important in the 'surrounding' of 
of this run, or papers that preceded the highly important papers. If you like your results we are grateful for a citation.

  1. Neese,F.
     The ORCA program system
     WIRES Comput. Molec. Sci., 2012 2(1)73-78
     doi.org/10.1002/wcms.81
  2. Neese,F.
     Software update: the ORCA program system, version 4.0
     WIRES Comput. Molec. Sci., 2018 8(1)1-6
     doi.org/10.1002/wcms.1327
  3. Neese,F.; Wennmohs,F.; Becker,U.; Riplinger,C.
     The ORCA quantum chemistry program package
     J. Chem. Phys., 2020 152 Art. No. L224108
     doi.org/10.1063/5.0004608

List of optional additional citations

  1. Neese,F.
     Approximate second-order SCF convergence for spin unrestricted wavefunctions
     Chem. Phys. Lett., 2000 325(1-3)93-98
     doi.org/10.1016/s0009-2614(00)00662-x

Timings for individual modules:

Sum of individual times          ...        0.962 sec (=   0.016 min)
Startup calculation              ...        0.213 sec (=   0.004 min)  22.2 %
SCF iterations                   ...        0.716 sec (=   0.012 min)  74.5 %
Property calculations            ...        0.032 sec (=   0.001 min)   3.3 %
                             ****ORCA TERMINATED NORMALLY****
TOTAL RUN TIME: 0 days 0 hours 0 minutes 1 seconds 27 msec
