20
 energy: -36.129955928912 gnorm: 0.040746209118 xtb: 6.7.1 (41059b4)
C            0.64196651245492        1.68571140092945        0.02207140705898
C            1.39686626564563        0.39502549378620       -0.26460134084090
H            1.58448184753615        0.31574672491928       -1.34915243790709
C            0.53841477944590       -0.78359366031631        0.16515494067061
H            0.39635133466942       -0.72680906388454        1.25673626527760
C           -0.81846725632586       -0.71565034033380       -0.51904122886098
H           -0.68284174051421       -0.87818161525499       -1.59745071331277
C           -1.47750882197143        0.66039998879642       -0.30028415810724
H           -2.35006653522277        0.77705816526674       -0.96359777884991
O           -0.60912077673241        1.69304477358141       -0.68052301083553
O           -1.86474170798261        0.82271025215239        1.05139965326450
O           -1.61895594280393       -1.76482389850469        0.05896721826349
O            1.24312285617509       -1.97616715774526       -0.18397112142794
O            2.61931101745290        0.43874269320125        0.45879714997972
H            1.20176647999052        2.54667651135530       -0.34879321025943
H            0.48479627538214        1.79830607904686        1.10216662825455
H           -2.07922259673729       -0.05789493442945        1.39019239117656
H           -2.35270640838677       -1.95760388808017       -0.53422298703512
H            0.71555132971566       -2.72311464708059        0.12134226329090
H            3.02020520786207       -0.43608364862386        0.38459980885607
20
 energy: -36.131516972065 gnorm: 0.019518339801 xtb: 6.7.1 (41059b4)
C            0.63448585347296        1.69361781112321        0.01327245699475
C            1.40309914177718        0.40377404141910       -0.26095365977866
H            1.60091102141798        0.31390629287444       -1.34106778786993
C            0.54540841805780       -0.78318239520879        0.17308868795658
H            0.39347591420997       -0.73761428407705        1.26232154124855
C           -0.81354502585644       -0.72225138091910       -0.52079920219213
H           -0.67717933934089       -0.88809296471908       -1.59684764022068
C           -1.46357003375357        0.65939795292003       -0.29619074883721
H           -2.34402759023382        0.77502498149275       -0.94952858520817
O           -0.60996052836573        1.69397508627792       -0.67985234500086
O           -1.84980314892056        0.79739305585247        1.04855316577227
O           -1.62695120909495       -1.74838103505107        0.05098087820337
O            1.23871825937727       -1.97309314791758       -0.16462521287927
O            2.61780316334675        0.43867863641800        0.45460095498083
H            1.18378961643257        2.55700377431554       -0.36077621036740
H            0.47145790911754        1.80519710268171        1.09032192509882
H           -2.05282500548083       -0.08818100315523        1.38184096409424
H           -2.37026450216451       -1.92637033528983       -0.53468441180275
H            0.69528256249732       -2.71796904176023        0.11789492191777
H            3.01289664315707       -0.43933391849559        0.38224004654599
20
 energy: -36.131973017451 gnorm: 0.003777787579 xtb: 6.7.1 (41059b4)
C            0.62737970235259        1.69607442110148        0.00660559905962
C            1.40684498027691        0.40642363924574       -0.25705535321452
H            1.60563241837058        0.30815806052203       -1.33612249493998
C            0.54738978206910       -0.78670826945946        0.17784634684424
H            0.38562064791943       -0.73720511778120        1.26512678676569
C           -0.81299130756844       -0.72724182566446       -0.52533837514101
H           -0.66709020580908       -0.89267225107198       -1.59947432468639
C           -1.45847586016808        0.65945647093742       -0.29366070990201
H           -2.34547494390352        0.77399431094016       -0.94156487275241
O           -0.61114714279811        1.68978358210510       -0.68026846096969
O           -1.83532630888149        0.78038289905014        1.04778933257482
O           -1.62883595513656       -1.73962594279117        0.04039397665482
O            1.24297413480723       -1.96936938288161       -0.14660459237767
O            2.61325684829718        0.44269072217227        0.45576197477381
H            1.17346998901236        2.55800325126547       -0.37267105228621
H            0.46629791691974        1.80978351614679        1.08332815753980
H           -2.02178094619870       -0.10974252184717        1.38111198542133
H           -2.39009650016200       -1.89568013750189       -0.52983029807429
H            0.68458996982297       -2.71618052868999        0.10383490344271
H            3.00696490043101       -0.43682566701604        0.39058120992341
20
 energy: -36.132061733270 gnorm: 0.003928607170 xtb: 6.7.1 (41059b4)
C            0.62567572120212        1.69681111758330        0.00381837016067
C            1.40683099881595        0.40614825232276       -0.25591392298207
H            1.60350883349631        0.30550859203151       -1.33574929814847
C            0.54639883521089       -0.78827666879243        0.17967161940337
H            0.38008438732813       -0.73267715059258        1.26657659432720
C           -0.81300850893335       -0.73048078892756       -0.52842413179033
H           -0.66136559513236       -0.89081422458732       -1.60300854810805
C           -1.45789524924918        0.65770525231060       -0.29264145714779
H           -2.34671765848574        0.77075894315920       -0.93966238933399
O           -0.61223505497030        1.68725984586875       -0.68122404247756
O           -1.83069163270731        0.77543190324873        1.04883799815237
O           -1.62687878305972       -1.74384992936923        0.03213201280239
O            1.24517875761036       -1.96867512103839       -0.13899572579090
O            2.61032819478662        0.44607581690295        0.45850349130521
H            1.17270004612585        2.55703285845753       -0.37868075607785
H            0.46871016648698        1.81363902725180        1.08133093273098
H           -2.00462436049828       -0.11638649784766        1.38565629113189
H           -2.40196991777240       -1.88120032503550       -0.52586293009065
H            0.68061356856754       -2.71674417477197        0.09355267410934
H            3.00455937083099       -0.43376749939286        0.39987295648033
20
 energy: -36.132139655503 gnorm: 0.005963054443 xtb: 6.7.1 (41059b4)
C            0.62386716377293        1.69679755912041       -0.00012138014595
C            1.40621418764061        0.40495759046515       -0.25517187505914
H            1.60129587372429        0.30172068174969       -1.33580218788734
C            0.54516110926329       -0.78969882303109        0.18212364299346
H            0.37361564458335       -0.72543600534287        1.26864791790259
C           -0.81141130491101       -0.73365426617660       -0.53247464685996
H           -0.65273783309519       -0.88469593088419       -1.60827913359916
C           -1.45933669859205        0.65371183700111       -0.29170708682681
H           -2.34988441725171        0.76538225678483       -0.93764630721142
O           -0.61528894710542        1.68386252920673       -0.68243113310339
O           -1.82826443391925        0.76920160038301        1.05070082347773
O           -1.62165414118529       -1.75305502699405        0.01855063049447
O            1.24808335390414       -1.96912157545371       -0.12738679529056
O            2.60697528263265        0.45024468519447        0.46227045155986
H            1.17217217074959        2.55462607774456       -0.38756298504444
H            0.47277507629321        1.81952332019816        1.07831063086915
H           -1.98053249235907       -0.12452912810797        1.39433585977714
H           -2.41782198893770       -1.85848317251658       -0.51927424827594
H            0.67422202134178       -2.71777101334347        0.07869966188530
H            3.00175249310397       -0.43008396721596        0.41400789900049
20
 energy: -36.132178290063 gnorm: 0.004447934580 xtb: 6.7.1 (41059b4)
C            0.62342067480808        1.69647347843925       -0.00222986884439
C            1.40566410461831        0.40422953520110       -0.25509967994644
H            1.60175355613312        0.29982687623621       -1.33554240603728
C            0.54447274287519       -0.78937321233914        0.18344468248474
H            0.37138853951295       -0.72157482011092        1.26976556301617
C           -0.80973185296412       -0.73443681596329       -0.53418992728111
H           -0.64804830967925       -0.88043038247819       -1.61065999487169
C           -1.46061646690062        0.65062629786381       -0.29137609062435
H           -2.35145924891606        0.76196258973849       -0.93662652381365
O           -0.61743440765976        1.68240727057666       -0.68272172426177
O           -1.82965523582174        0.76601524549402        1.05159922010603
O           -1.61812306255371       -1.75907394256259        0.01056387462390
O            1.24817321912130       -1.96995573635793       -0.12078433915982
O            2.60591430351470        0.45199845848475        0.46388917493801
H            1.17144920117107        2.55329975158680       -0.39279206226301
H            0.47461045969565        1.82270747207181        1.07625796830705
H           -1.96721496379213       -0.12809730561302        1.40009997800732
H           -2.42358403959495       -1.84671529785263       -0.51520635998427
H            0.66821011277642       -2.71748966177454        0.06968829508921
H            3.00001279330866       -0.42890057185902        0.42170995917144
20
 energy: -36.132207144772 gnorm: 0.001286495800 xtb: 6.7.1 (41059b4)
C            0.62309577807888        1.69600522465464       -0.00397252839454
C            1.40547368156491        0.40398093261319       -0.25501680656143
H            1.60475140937244        0.29856006398937       -1.33450122811997
C            0.54455839947062       -0.78821576146196        0.18450526121313
H            0.37112532652052       -0.71920755670068        1.27061947521189
C           -0.80732499210834       -0.73437531484397       -0.53515347864142
H           -0.64432333133050       -0.87727548153003       -1.61192724229966
C           -1.46171868248522        0.64710297245578       -0.29175363626510
H           -2.35227934027192        0.75869839313269       -0.93636012502997
O           -0.61950011996265        1.68123570446765       -0.68283024835962
O           -1.83317916844345        0.76270171915597        1.05135524016824
O           -1.61450976212797       -1.76393408412484        0.00412227499449
O            1.24740497225740       -1.97106930099963       -0.11503945651403
O            2.60579753116585        0.45309116237919        0.46522812736822
H            1.16931470335814        2.55259877514051       -0.39733942911260
H            0.47467579350145        1.82483644665441        1.07401980665271
H           -1.95491157553902       -0.13100885365466        1.40507677752518
H           -2.42745856431442       -1.83542841263794       -0.50909952307044
H            0.66017002227316       -2.71609006871130        0.05967247559860
H            2.99804003867322       -0.42870733119679        0.42818400229241
20
 energy: -36.132213264384 gnorm: 0.000749537715 xtb: 6.7.1 (41059b4)
C            0.62246820078508        1.69584737662403       -0.00464343926521
C            1.40597452407295        0.40452550080249       -0.25449113214291
H            1.60850281671030        0.29863358029379       -1.33299300191710
C            0.54547600629179       -0.78756991133042        0.18458785084035
H            0.37195940267630       -0.71959657271020        1.27062975923338
C           -0.80568836637281       -0.73469367933121       -0.53575067786624
H           -0.64293973137265       -0.87805163295443       -1.61239276055164
C           -1.46164890883142        0.64474284603821       -0.29307798038224
H           -2.35161535074623        0.75644286856055       -0.93792392234996
O           -0.62023059725347        1.68020442737808       -0.68337445324158
O           -1.83615335851782        0.76016041681870        1.04937624421590
O           -1.61211207800665       -1.76572165314711        0.00228749205830
O            1.24745328402484       -1.97149655115613       -0.11323794964187
O            2.60589041044189        0.45386353311206        0.46699853237074
H            1.16668752355175        2.55297343065378       -0.39889474201009
H            0.47273339005909        1.82498924135242        1.07283056378926
H           -1.94643209485688       -0.13299050956225        1.40695969654572
H           -2.43259558221055       -1.82568719450019       -0.50036179199627
H            0.65498405558278       -2.71442393742051        0.05114824284739
H            2.99648857362485       -0.42865235073999        0.43211320812015
20
 energy: -36.132215352475 gnorm: 0.000830839157 xtb: 6.7.1 (41059b4)
C            0.62232760380898        1.69586497790815       -0.00386167314227
C            1.40615107906822        0.40485649835104       -0.25418343192726
H            1.60909289535927        0.29963530316483       -1.33263575346918
C            0.54570462267942       -0.78775197409186        0.18386999396921
H            0.37276287595144       -0.72126099549578        1.27009721419483
C           -0.80626200198811       -0.73468746957661       -0.53544299117898
H           -0.64423377628328       -0.88059847973448       -1.61184718039008
C           -1.46153560128200        0.64531296456705       -0.29429840775005
H           -2.35084020008265        0.75696037521469       -0.94022240144068
O           -0.61955281404150        1.68028694070500       -0.68395315828850
O           -1.83737434372839        0.76118155789748        1.04768077892931
O           -1.61262766178440       -1.76426689184922        0.00546252256063
O            1.24761780734901       -1.97126203181994       -0.11620763866750
O            2.60581697066697        0.45358191648493        0.46796753984046
H            1.16666912972658        2.55344898666078       -0.39677229472710
H            0.47146221146862        1.82376703259203        1.07362149570624
H           -1.94633210867756       -0.13166744229094        1.40610803225392
H           -2.43211117369640       -1.82695453064425       -0.49687429055345
H            0.65603819003656       -2.71408674131922        0.04970940268140
H            2.99642841510231       -0.42886076794204        0.43157198005515
20
 energy: -36.132217557119 gnorm: 0.000506139391 xtb: 6.7.1 (41059b4)
C            0.62177596847382        1.69591281819434       -0.00322070663887
C            1.40639086673293        0.40524934929287       -0.25345355898748
H            1.60987780193196        0.30070431966678       -1.33191171671294
C            0.54609481193771       -0.78835371003767        0.18302441717374
H            0.37331026331794       -0.72339692476093        1.26945790100350
C           -0.80678073752889       -0.73534833440057       -0.53548184739258
H           -0.64548372193369       -0.88370137331703       -1.61176215094896
C           -1.46146183716091        0.64557838078746       -0.29602306017549
H           -2.34995055541645        0.75695282578188       -0.94344969016353
O           -0.61888551588103        1.67990536208838       -0.68518177560182
O           -1.83903635375946        0.76196852431135        1.04523642284511
O           -1.61268604358510       -1.76347482037688        0.00848015543426
O            1.24857451956611       -1.97094568631119       -0.11933888437111
O            2.60520705497164        0.45382262052276        0.47006320765563
H            1.16658912295484        2.55394255944878       -0.39457590557876
H            0.46958216745098        1.82288292674388        1.07430758144231
H           -1.94280667444249       -0.13084807770066        1.40597383107190
H           -2.43473159742233       -1.82481807397911       -0.49081782668344
H            0.65720776013772       -2.71417696818554        0.04612870494566
H            2.99641481930781       -0.42835648898728        0.43233464033897
20
 energy: -36.132217218950 gnorm: 0.001270105853 xtb: 6.7.1 (41059b4)
C            0.62123978961219        1.69596646139028       -0.00260245052507
C            1.40662482198907        0.40563494583069       -0.25274393137248
H            1.61063538867833        0.30174041438911       -1.33120900182703
C            0.54647443195443       -0.78893857235112        0.18220572913043
H            0.37382634252054       -0.72546159663176        1.26883848515495
C           -0.80728551926454       -0.73599276388460       -0.53552764461352
H           -0.64668822323339       -0.88672375279261       -1.61168723205239
C           -1.46138385528645        0.64583717974556       -0.29769780929413
H           -2.34908883777041        0.75694167256073       -0.94657981241540
O           -0.61823930404462        1.67953461514485       -0.68637382634992
O           -1.84062260376201        0.76271953338150        1.04286812237432
O           -1.61273825155031       -1.76270748728687        0.01140520104334
O            1.24951155903265       -1.97063695126061       -0.12236947394096
O            2.60461408276321        0.45406066512703        0.47210370313257
H            1.16650787922364        2.55442772756913       -0.39245306956598
H            0.46776693324550        1.82202948330829        1.07497311359411
H           -1.93937220150018       -0.13007531804156        1.40583960178078
H           -2.43729915306743       -1.82273100572498       -0.48492843880063
H            0.65833190900532       -2.71425589441830        0.04264052377481
H            2.99638693110755       -0.42787012727312        0.43308794942827
20
 energy: -36.132218840207 gnorm: 0.000416911618 xtb: 6.7.1 (41059b4)
C            0.62139146678964        1.69561704038353       -0.00245814937287
C            1.40652555615933        0.40537643854374       -0.25285043010398
H            1.61074118307689        0.30173513230284       -1.33126633571013
C            0.54643400016198       -0.78884354065154        0.18213545306579
H            0.37453345428840       -0.72564822620526        1.26880259580136
C           -0.80711602095004       -0.73583779414707       -0.53514734463265
H           -0.64702961239101       -0.88590507902879       -1.61138053261755
C           -1.46170514666537        0.64564738998549       -0.29753045734896
H           -2.34905422636149        0.75696235876393       -0.94647938508268
O           -0.61823838868984        1.67953684770044       -0.68632868403072
O           -1.84176869333183        0.76335043608891        1.04291172205852
O           -1.61274677192029       -1.76299824014552        0.01131061963615
O            1.24915568621431       -1.97077853592354       -0.12261653740777
O            2.60474808510222        0.45392627469785        0.47173310259355
H            1.16674456453470        2.55409010382830       -0.39225154323458
H            0.46755620541521        1.82194852672043        1.07495158272015
H           -1.94048661658628       -0.12899491031316        1.40609240399842
H           -2.43633985146808       -1.82329521069999       -0.48574169346973
H            0.65874090155757       -2.71470782518049        0.04331190828615
H            2.99711634471708       -0.42768195793845        0.43259144350761
20
 energy: -36.132219335128 gnorm: 0.000194253817 xtb: 6.7.1 (41059b4)
C            0.62119046298874        1.69533617805438       -0.00211971383415
C            1.40649245854945        0.40531792534221       -0.25265550416588
H            1.61111951542979        0.30206375415053       -1.33100784859834
C            0.54648911085906       -0.78900323849827        0.18185856811940
H            0.37515664260990       -0.72662295124227        1.26865342264486
C           -0.80717508101983       -0.73581884274003       -0.53483097918824
H           -0.64760052140452       -0.88632072606428       -1.61103795191766
C           -1.46198258006085        0.64566062357856       -0.29817134355758
H           -2.34870908036843        0.75691799526136       -0.94777214922065
O           -0.61800543829400        1.67952520139184       -0.68678020490426
O           -1.84333772187241        0.76396581945652        1.04187879685264
O           -1.61288412012664       -1.76258567587388        0.01234118544796
O            1.24914114111175       -1.97074780271708       -0.12383186093899
O            2.60454976667565        0.45382654086561        0.47211004796675
H            1.16672383705448        2.55404671637663       -0.39113335992317
H            0.46644865539895        1.82121119441399        1.07516009534751
H           -1.93923556963428       -0.12809752648143        1.40630390302737
H           -2.43657925351981       -1.82264132655433       -0.48424714136853
H            0.65952632989420       -2.71523448270586        0.04290168808809
H            2.99787356538189       -0.42730014723257        0.43217008877895
20
 energy: -36.132219507561 gnorm: 0.000181022882 xtb: 6.7.1 (41059b4)
C            0.62101201793161        1.69516953789178       -0.00174119001746
C            1.40649593585349        0.40532848769987       -0.25249595609728
H            1.61129141170314        0.30233785517943       -1.33083265150090
C            0.54648493177347       -0.78916976405447        0.18151474836039
H            0.37550757708899       -0.72733091094468        1.26840438950874
C           -0.80735040422410       -0.73598863377721       -0.53483795496381
H           -0.64800760126958       -0.88700939368869       -1.61101601875470
C           -1.46208870567946        0.64561534245898       -0.29871294189555
H           -2.34832102800996        0.75695215921549       -0.94888479821941
O           -0.61774615613202        1.67943144557547       -0.68710054000428
O           -1.84453950155635        0.76438361513839        1.04094902597052
O           -1.61304501582755       -1.76240998052508        0.01298122908816
O            1.24913489600093       -1.97070556760104       -0.12487575827088
O            2.60437163600525        0.45387601305576        0.47251159151281
H            1.16668293746303        2.55409697934582       -0.39006552737339
H            0.46561696760189        1.82056820987989        1.07550389649611
H           -1.93772439660592       -0.12738709232846        1.40656857056985
H           -2.43732524104601       -1.82187590698965       -0.48281871567797
H            0.66030020920093       -2.71550696427020        0.04292693440787
H            2.99845164938134       -0.42687620247976        0.43181140551727
20
 energy: -36.132219580305 gnorm: 0.000103934444 xtb: 6.7.1 (41059b4)
C            0.62085953884525        1.69510690029670       -0.00158773053308
C            1.40645742593278        0.40533280196028       -0.25239578549745
H            1.61126524386106        0.30246091378444       -1.33073904579224
C            0.54645608871886       -0.78926686582290        0.18146402802152
H            0.37545597212275       -0.72758689650542        1.26837552187748
C           -0.80744591668015       -0.73596936527697       -0.53486770263030
H           -0.64807905564371       -0.88723545659759       -1.61101247386118
C           -1.46223953165464        0.64565548378065       -0.29908405430684
H           -2.34825905480310        0.75705174699628       -0.94954751284928
O           -0.61769370460819        1.67944571757005       -0.68725594020347
O           -1.84512902932125        0.76441424102506        1.04042070385879
O           -1.61311533152873       -1.76224178355435        0.01318668477464
O            1.24917432589510       -1.97069328491065       -0.12514105775803
O            2.60424681215636        0.45382888862116        0.47271259890532
H            1.16663092259717        2.55413204776043       -0.38954715434786
H            0.46523267502858        1.82024005871174        1.07566621015946
H           -1.93621436726928       -0.12728671571400        1.40680050930664
H           -2.43760400832813       -1.82147288123424       -0.48223036670125
H            0.66049595354628       -2.71568603571263        0.04309657104168
H            2.99870716078609       -0.42673028639642        0.43147573519155
