14
 energy: -2734.533405008303 gnorm: 0.046424039980 xtb: 6.7.1 (41059b4)
C           -1.26247546905944       -0.00015222220007       -0.00012336330005
C           -0.57307920775395       -1.21484335113833       -0.00674579930299
C            0.82428732066526       -1.21098644693662       -0.01570152520696
C            1.51924577647322        0.00017591060008        0.00005338880002
C            0.82399906946514        1.21114940393669        0.01551542920688
C           -0.57338424325408        1.21469770083826        0.00637370210282
Cl          -1.41264267112598        2.70471225299853        0.04784554922120
Cl           1.68278645534569        2.68706334779071        0.04371071031937
Cl           3.22449470542886        0.00036750260016        0.00039594870018
Cl           1.68342800534597       -2.68667137719054       -0.04389257901945
Cl          -1.41202338692571       -2.70503767559867       -0.04861917072154
N           -2.72328534190676       -0.00030908120014        0.00039428460017
O           -3.26572559294713        0.70032799541033       -0.81287484996021
O           -3.26481611474673       -0.70104999621065        0.81424113386081
14
 energy: -2734.536071866341 gnorm: 0.015002822212 xtb: 6.7.1 (41059b4)
C           -1.26217582263421       -0.00013944163570       -0.00007401957594
C           -0.57317287172085       -1.21858843605666        0.00008666070909
C            0.82716781652470       -1.21479598211129       -0.01398819998992
C            1.52442514378349        0.00017671484295        0.00004142617615
C            0.82689114016239        1.21497394674304        0.01382422042247
C           -0.57346401359891        1.21846910458248       -0.00039196358375
Cl          -1.40387913558816        2.72054517624589        0.07804117423724
Cl           1.68773550741061        2.69857940295150        0.04836424035828
Cl           3.23793051018330        0.00036799049674        0.00032109688570
Cl           1.68835059724545       -2.69819003760196       -0.04856992301460
Cl          -1.40331208231953       -2.72080671734385       -0.07870721480348
N           -2.73636024082879       -0.00032118424458        0.00039753443151
O           -3.28510197316238        0.64975022120839       -0.87186916173789
O           -3.28422254609505       -0.65057754947850        0.87309586000215
14
 energy: -2734.536806573490 gnorm: 0.028227986140 xtb: 6.7.1 (41059b4)
C           -1.25459589945613       -0.00014364841037       -0.00000594420868
C           -0.57249755184301       -1.21968052778235       -0.00903769703269
C            0.83038574669077       -1.21770519947646       -0.01563984244709
C            1.52760602579898        0.00017820866020        0.00001467535207
C            0.83010633712686        1.21789445869748        0.01551159123916
C           -0.57279372746905        1.21955764406214        0.00886395475954
Cl          -1.42916419224353        2.71387079953303        0.10015586447174
Cl           1.70150428612022        2.70387135313936        0.05478582267333
Cl           3.24887511131092        0.00037114759641        0.00018597447403
Cl           1.70210537986229       -2.70348493362259       -0.05501824070582
Cl          -1.42854529907629       -2.71416380724150       -0.10061246102809
N           -2.73749270881333       -0.00035056717739        0.00032857682628
O           -3.28769898469019        0.58886764773444       -0.92975247073310
O           -3.28697991851189       -0.58964019741011        0.93079079208816
14
 energy: -2734.537251043434 gnorm: 0.018792053455 xtb: 6.7.1 (41059b4)
C           -1.25161019879386       -0.00013411133547        0.00000360606626
C           -0.57132620995195       -1.21856765231561       -0.01836712932553
C            0.83027401197715       -1.21737700184768       -0.01853014509581
C            1.52775265313834        0.00017760540845       -0.00000459791937
C            0.83000011354186        1.21757131505987        0.01840509062689
C           -0.57161158124907        1.21845788112486        0.01822593855641
Cl          -1.43170145266909        2.71172921997422        0.10369001479669
Cl           1.69531663293195        2.70860365359757        0.04994380598339
Cl           3.25076371894573        0.00036415646543        0.00012506736859
Cl           1.69592473459778       -2.70821078193178       -0.05016022826004
Cl          -1.43111653843872       -2.71200201506802       -0.10400328869430
N           -2.73528420441257       -0.00032963818797        0.00032797421766
O           -3.28362202350750        0.57717060301234       -0.93211152657681
O           -3.28294477864092       -0.57801084050749        0.93302571179002
14
 energy: -2734.538080112248 gnorm: 0.012571495367 xtb: 6.7.1 (41059b4)
C           -1.24339853460178       -0.00011944008018       -0.00000346308593
C           -0.56850607727453       -1.21544839263973       -0.03812519936798
C            0.83009065855222       -1.21590320185826       -0.02859194667741
C            1.52658735020632        0.00017914519353       -0.00006879958745
C            0.82984669244475        1.21612365084946        0.02847376700314
C           -0.56874687594401        1.21535431544656        0.03808091283077
Cl          -1.44462930889616        2.70251558764068        0.12699023098995
Cl           1.68744670178569        2.71570709110634        0.04675765512436
Cl           3.25428718513718        0.00036315924004       -0.00006280314647
Cl           1.68800741964910       -2.71530842510438       -0.04688322757813
Cl          -1.44403577573839       -2.70280118439900       -0.12689524526908
N           -2.73081656680011       -0.00033671169306        0.00029325722375
O           -3.27295002380346        0.50131626899823       -0.97297036819141
O           -3.27236535470292       -0.50220015039969        0.97357413148140
14
 energy: -2734.538595964605 gnorm: 0.012441539500 xtb: 6.7.1 (41059b4)
C           -1.24025686175213       -0.00023163448976       -0.00007630583370
C           -0.56768235735201       -1.21402943704910       -0.04694786688209
C            0.83021426324571       -1.21515962452632       -0.03390170073289
C            1.52510862739987        0.00017139949194       -0.00008862279927
C            0.82987808349990        1.21531669602336        0.03379117064332
C           -0.56800378658296        1.21375316403213        0.04689286510557
Cl          -1.45573442126816        2.69355430549102        0.14248521955246
Cl           1.68859840509639        2.71359154826880        0.05544305816062
Cl           3.25303795720515        0.00041509588352       -0.00014074578542
Cl           1.68938145163355       -2.71318671900328       -0.05547568721370
Cl          -1.45494100143573       -2.69410202115288       -0.14231383514695
N           -2.72822180240089       -0.00047013105054        0.00005400293311
O           -3.26541465110018        0.43012269519605       -1.00781591236198
O           -3.26514398253274       -0.43030454359558        1.00866235442901
14
 energy: -2734.539116814767 gnorm: 0.008540072032 xtb: 6.7.1 (41059b4)
C           -1.23954069368742        0.00012791820779        0.00038140142811
C           -0.56770155271377       -1.21303359960004       -0.05204335335998
C            0.83065639720369       -1.21525965172346       -0.04109617558450
C            1.52476431383297        0.00017855393961       -0.00019475755100
C            0.83055569251426        1.21556660918488        0.04099981634943
C           -0.56777663982326        1.21330015475615        0.05251482593010
Cl          -1.46383067649733        2.68479397622804        0.15238627010107
Cl           1.68963088301420        2.70907020227584        0.07635247121394
Cl           3.24959726125662        0.00028482270430       -0.00050584756898
Cl           1.68987480761502       -2.70870116809274       -0.07659739672586
Cl          -1.46376249099628       -2.68455816410530       -0.15148212367216
N           -2.72529411970324        0.00035187749882        0.00093739138043
O           -3.25845142978399        0.33764137282667       -1.04290146902568
O           -3.25789890076310       -0.34032348700507        1.04181628749011
14
 energy: -2734.539312668456 gnorm: 0.015534185904 xtb: 6.7.1 (41059b4)
C           -1.23936492387793       -0.00209306204324       -0.00219214967215
C           -0.56695557300441       -1.21514976551315       -0.05613022673633
C            0.83247881123495       -1.21705139865115       -0.04805540485302
C            1.52658458942186        0.00011924933702        0.00022837653495
C            0.83082992281557        1.21630964832349        0.04789531845838
C           -0.56860746770066        1.21206855327199        0.05383739904118
Cl          -1.46900928827158        2.67873658035282        0.14996426466734
Cl           1.68638388338357        2.70823119731921        0.10054688746816
Cl           3.24869165492330        0.00132201427925        0.00097957849672
Cl           1.68999661412987       -2.70781029713546       -0.09932258000272
Cl          -1.46494380685271       -2.68318104482645       -0.15220510140748
N           -2.72301508418811       -0.00378355876311       -0.00398423808318
O           -3.25514052731977        0.27326858968237       -1.05836540360105
O           -3.25710390051696       -0.26154877484722        1.06737027702641
14
 energy: -2734.539407775718 gnorm: 0.023017281528 xtb: 6.7.1 (41059b4)
C           -1.23953569950767        0.00245453384540        0.00318744391731
C           -0.56893543623534       -1.21309524316390       -0.05564109220921
C            0.83266175842046       -1.21826799202030       -0.05950807403642
C            1.53015326965154        0.00033195746850       -0.00053478272589
C            0.83421985859991        1.21989064347759        0.05978973907948
C           -0.56743194464277        1.21696518866870        0.05952666263496
Cl          -1.46797542874679        2.68025404800671        0.14411200639608
Cl           1.68819472829497        2.70696714408038        0.14065701427958
Cl           3.24772695595554       -0.00095009348584       -0.00224107510057
Cl           1.68457445531553       -2.70657002249081       -0.14263063487887
Cl          -1.47165419019389       -2.67527162488089       -0.14028615388628
N           -2.71954354677189        0.00290453944170        0.00428625788414
O           -3.25715941810059        0.14913545929857       -1.09058040083777
O           -3.25446717615493       -0.16531237223005        1.08043040373138
14
 energy: -2734.538292078816 gnorm: 0.048843393861 xtb: 6.7.1 (41059b4)
C           -1.24187978577084        0.00044385016287        0.00107917443810
C           -0.56923865452115       -1.21529249064683       -0.05052735283926
C            0.83241159202651       -1.21794497903918       -0.05489673537746
C            1.52877094067128        0.00018733444949       -0.00024230491284
C            0.83255306552825        1.21838781846876        0.05486439985578
C           -0.56908468371457        1.21600581708550        0.05164233076249
Cl          -1.46363531822630        2.68393085257342        0.13053611467051
Cl           1.69117395069968        2.70365866424168        0.13177822024163
Cl           3.24643040892976        0.00008891242439       -0.00088933108680
Cl           1.69096525271301       -2.70325753697061       -0.13248205338334
Cl          -1.46404411233371       -2.68313228211921       -0.12908266927678
N           -2.72163507968891        0.00146926861301        0.00212569600355
O           -3.26125537823203        0.21164861647951       -1.04933060037675
O           -3.26070627574544       -0.21675695161201        1.04599308704794
14
 energy: -2734.539493930045 gnorm: 0.016693962497 xtb: 6.7.1 (41059b4)
C           -1.23665023461107       -0.00340409912142       -0.00311823248060
C           -0.56615671140566       -1.21653922794085       -0.06051092746575
C            0.83297944995149       -1.21739122120054       -0.05570299191055
C            1.52729329158702       -0.00004197351469        0.00029413145751
C            0.83039445915778        1.21570210120312        0.05522011243462
C           -0.56862895668091        1.21130528295407        0.05658248491316
Cl          -1.47042873152448        2.68016802621657        0.14310957174648
Cl           1.68433342584675        2.71048339524159        0.12172578252544
Cl           3.25140646885448        0.00207064736090        0.00153946434198
Cl           1.69049100176205       -2.71006953829064       -0.11988784038547
Cl          -1.46456649827753       -2.68728479475981       -0.14606144758284
N           -2.72145877118639       -0.00272749441981       -0.00353266045388
O           -3.25721724315324        0.21994886599483       -1.06607125120275
O           -3.26096459556935       -0.20278319789342        1.07698085156962
14
 energy: -2734.539645616185 gnorm: 0.011186211635 xtb: 6.7.1 (41059b4)
C           -1.23748038155287        0.00080038003520        0.00140808661415
C           -0.56779917117837       -1.21359406183531       -0.05862375836815
C            0.83242788695333       -1.21718623712923       -0.06116947090764
C            1.52886622338698        0.00024327830335       -0.00032588803853
C            0.83281960530504        1.21792610344871        0.06131996315124
C           -0.56742983136396        1.21500409177481        0.06058750429990
Cl          -1.46871423213005        2.68192883974824        0.14252354958900
Cl           1.68760658052002        2.70901346606295        0.14025796818634
Cl           3.25037200663688       -0.00007568460673       -0.00122213851478
Cl           1.68662357598460       -2.70862405106259       -0.14122907235749
Cl          -1.47008412412657       -2.68000632753210       -0.14040832030387
N           -2.72008807588029        0.00069686084969        0.00161055556941
O           -3.25883664237614        0.15263143351005       -1.08580520008579
O           -3.25745532555904       -0.15932203395600        1.08164347306600
14
 energy: -2734.539701578909 gnorm: 0.002806832995 xtb: 6.7.1 (41059b4)
C           -1.23732378816180       -0.00036310776732        0.00015660860856
C           -0.56732962852738       -1.21435402544237       -0.05949027242734
C            0.83255198175217       -1.21702623774956       -0.06087186943645
C            1.52834484650178        0.00016080680381       -0.00013744687092
C            0.83211025202094        1.21708325346019        0.06081395457191
C           -0.56775907501490        1.21391023501510        0.05974168339179
Cl          -1.46909976872412        2.68179631637907        0.14122781238133
Cl           1.68722862267054        2.70911456970746        0.13831495444164
Cl           3.25077659373069        0.00051749744350       -0.00041380439123
Cl           1.68819224603820       -2.70875039195395       -0.13849048186891
Cl          -1.46830064757320       -2.68249183168671       -0.14060289579237
N           -2.72057906475312       -0.00013184028322        0.00030399351339
O           -3.25897902887622        0.16248782642336       -1.07943581225579
O           -3.25900574413217       -0.16251697093080        1.07945080721472
14
 energy: -2734.539728266345 gnorm: 0.003216627377 xtb: 6.7.1 (41059b4)
C           -1.23699395090212       -0.00070259233683       -0.00027265556885
C           -0.56708009543488       -1.21443918026172       -0.06139656064423
C            0.83271259747880       -1.21687405592843       -0.06339181358034
C            1.52833437018893        0.00013161436798       -0.00006996580864
C            0.83203480988377        1.21672764916842        0.06324505633633
C           -0.56773048201963        1.21344144707917        0.06101606544959
Cl          -1.47019109408361        2.68112939261896        0.14080629644883
Cl           1.68715183851982        2.70892610194925        0.14458981484208
Cl           3.25100914382980        0.00066639534493       -0.00009419523257
Cl           1.68871593079465       -2.70854587053446       -0.14446892457883
Cl          -1.46872874619368       -2.68262668413445       -0.14074809260218
N           -2.72035881337234       -0.00042969789246       -0.00011434135311
O           -3.25884029185003        0.14051598317773       -1.08203552319611
O           -3.25920682485043       -0.13848479582815        1.08350198100100
14
 energy: -2734.539760124089 gnorm: 0.003519016010 xtb: 6.7.1 (41059b4)
C           -1.23648381658215       -0.00032235743338       -0.00013619264721
C           -0.56690658579431       -1.21366059157445       -0.06486747760497
C            0.83249893481948       -1.21612350316189       -0.06793248226782
C            1.52815808873711        0.00016129193884       -0.00005842844039
C            0.83209517299161        1.21621086077592        0.06781848327787
C           -0.56729450463167        1.21326250708851        0.06466500832521
Cl          -1.47047289536810        2.68156561825916        0.14218713993177
Cl           1.68725544454084        2.70906930840230        0.15509213367737
Cl           3.25171367293719        0.00045273526884       -0.00002883139467
Cl           1.68815768579835       -2.70869043141225       -0.15506436032345
Cl          -1.46956353761289       -2.68231026661592       -0.14227488205955
N           -2.72032342027404       -0.00061906907793       -0.00006707487627
O           -3.25918340609330        0.09276711394620       -1.08775391191957
O           -3.25882120094269       -0.09232817108037        1.08898781912549
14
 energy: -2734.539769780763 gnorm: 0.000934938795 xtb: 6.7.1 (41059b4)
C           -1.23663259919146       -0.00005855530991        0.00001230729876
C           -0.56693654186165       -1.21325347901277       -0.06599899780180
C            0.83232379011405       -1.21581471513262       -0.06852690120790
C            1.52805070934222        0.00017343155296       -0.00005797280724
C            0.83211113067052        1.21604649506410        0.06841895161002
C           -0.56714344131789        1.21325132479841        0.06593904485011
Cl          -1.46976515279628        2.68226290572153        0.14432047285975
Cl           1.68738682997812        2.70936808750965        0.15492376970628
Cl           3.25211305099486        0.00031133941332       -0.00004158642886
Cl           1.68785681997192       -2.70898485071665       -0.15500595648624
Cl          -1.46924239752540       -2.68248511917246       -0.14436472857508
N           -2.72084772834700       -0.00043536122064        0.00021955398064
O           -3.25957173721173        0.08233549377800       -1.08749269904961
O           -3.25887286790033       -0.08328200231795        1.08822158145613
14
 energy: -2734.539773447641 gnorm: 0.000909670525 xtb: 6.7.1 (41059b4)
C           -1.23681691479039       -0.00009198474714       -0.00003624373658
C           -0.56701882021278       -1.21320221788839       -0.06805180964293
C            0.83234608662787       -1.21589999098594       -0.06953421904504
C            1.52805535487083        0.00016309535527       -0.00003731667097
C            0.83211237934746        1.21608984243085        0.06938815668437
C           -0.56724986500992        1.21312164000827        0.06786305164713
Cl          -1.46999211820414        2.68184012943092        0.14834147509354
Cl           1.68747361059206        2.70927898066165        0.15571437698011
Cl           3.25210720317214        0.00034281218158        0.00005313760694
Cl           1.68801493288167       -2.70891149364857       -0.15582567971889
Cl          -1.46938433630291       -2.68214907124944       -0.14851823534217
N           -2.72108038279045       -0.00013523733947        0.00045525501398
O           -3.25912992455726        0.06311592835477       -1.08925339015265
O           -3.25860683818668       -0.06412760808947        1.09000806576822
14
 energy: -2734.539774024147 gnorm: 0.000523991124 xtb: 6.7.1 (41059b4)
C           -1.23691663833272       -0.00017802858370        0.00005053419240
C           -0.56704497753336       -1.21329956046441       -0.06807270664350
C            0.83240782622084       -1.21607513320805       -0.06864488021381
C            1.52811106729195        0.00016812183581       -0.00005982559599
C            0.83211099733162        1.21624035034584        0.06854873644175
C           -0.56733880679896        1.21312045993154        0.06811651521500
Cl          -1.46976214470344        2.68163701032986        0.15035805386377
Cl           1.68733491870076        2.70930657243581        0.15311129297449
Cl           3.25191350518976        0.00037263413828       -0.00005609789488
Cl           1.68804090418829       -2.70890806516360       -0.15333243302061
Cl          -1.46919737232836       -2.68197295277050       -0.15037465832227
N           -2.72118650385044       -0.00031872064366        0.00020889107012
O           -3.25896851278921        0.06574779619728       -1.08858051678250
O           -3.25867395823835       -0.06640556126716        1.08929366550682
14
 energy: -2734.539774324151 gnorm: 0.000148333626 xtb: 6.7.1 (41059b4)
C           -1.23680775313012       -0.00012977573027        0.00010880882560
C           -0.56703999910699       -1.21325156038676       -0.06832698737388
C            0.83238387527506       -1.21605237345695       -0.06879775902869
C            1.52810011821596        0.00017894079936       -0.00005821676000
C            0.83212351180455        1.21625978554631        0.06872313607281
C           -0.56730605196637        1.21315110454523        0.06844281675110
Cl          -1.46980439056644        2.68157252012945        0.15085947255386
Cl           1.68737761211865        2.70930392370955        0.15332461735311
Cl           3.25189412406161        0.00037115862463       -0.00012949978935
Cl           1.68792649070743       -2.70892946533801       -0.15357373353455
Cl          -1.46923633595341       -2.68185327574666       -0.15074083833780
N           -2.72110612866565       -0.00036782688281        0.00016478438662
O           -3.25899105941043        0.06307817393508       -1.08898398069922
O           -3.25868363611459       -0.06389642823286        1.08955393226409
14
 energy: -2734.539774301863 gnorm: 0.000080837682 xtb: 6.7.1 (41059b4)
C           -1.23674589244540       -0.00013657274159        0.00008331825141
C           -0.56704871738514       -1.21324020887940       -0.06877635882760
C            0.83237259526023       -1.21603284854013       -0.06902992924383
C            1.52808798615231        0.00017415626468       -0.00007575378271
C            0.83210686950169        1.21622992934135        0.06894243198509
C           -0.56731107619735        1.21310965190707        0.06882717031474
Cl          -1.46983047290625        2.68147588934672        0.15165705402374
Cl           1.68734626143907        2.70932345570225        0.15345913737530
Cl           3.25188742575223        0.00034411847835       -0.00015743142546
Cl           1.68796753800103       -2.70891343263395       -0.15365073283209
Cl          -1.46921739539087       -2.68182581768556       -0.15147314467512
N           -2.72105123456452       -0.00027835276434        0.00023377503840
O           -3.25896144063567        0.05944099815185       -1.08924516010706
O           -3.25877197557981       -0.06023609252624        1.08977214029455
14
 energy: -2734.539773175713 gnorm: 0.000080837682 xtb: 6.7.1 (41059b4)
C           -1.23674589244540       -0.00013657274159        0.00008331825141
C           -0.56704871738514       -1.21324020887940       -0.06877635882760
C            0.83237259526023       -1.21603284854013       -0.06902992924383
C            1.52808798615231        0.00017415626468       -0.00007575378271
C            0.83210686950169        1.21622992934135        0.06894243198509
C           -0.56731107619735        1.21310965190707        0.06882717031474
Cl          -1.46983047290625        2.68147588934672        0.15165705402374
Cl           1.68734626143907        2.70932345570225        0.15345913737530
Cl           3.25188742575223        0.00034411847835       -0.00015743142546
Cl           1.68796753800103       -2.70891343263395       -0.15365073283209
Cl          -1.46921739539087       -2.68182581768556       -0.15147314467512
N           -2.72105123456452       -0.00027835276434        0.00023377503840
O           -3.25896144063567        0.05944099815185       -1.08924516010706
O           -3.25877197557981       -0.06023609252624        1.08977214029455
