
                                 *****************
                                 * O   R   C   A *
                                 *****************

                                            #,                                       
                                            ###                                      
                                            ####                                     
                                            #####                                    
                                            ######                                   
                                           ########,                                 
                                     ,,################,,,,,                         
                               ,,#################################,,                 
                          ,,##########################################,,             
                       ,#########################################, ''#####,          
                    ,#############################################,,   '####,        
                  ,##################################################,,,,####,       
                ,###########''''           ''''###############################       
              ,#####''   ,,,,##########,,,,          '''####'''          '####       
            ,##' ,,,,###########################,,,                        '##       
           ' ,,###''''                  '''############,,,                           
         ,,##''                                '''############,,,,        ,,,,,,###''
      ,#''                                            '''#######################'''  
     '                                                          ''''####''''         
             ,#######,   #######,   ,#######,      ##                                
            ,#'     '#,  ##    ##  ,#'     '#,    #''#        ,####,   ,####,        
            ##       ##  ##   ,#'  ##            #'  '#       #'       #'  '#        
            ##       ##  #######   ##           ,######,      #####,   #    #        
            '#,     ,#'  ##    ##  '#,     ,#' ,#      #,     #,   #   #,  ,#        
             '#######'   ##     ##  '#######'  #'      '#     '####' # '####'        



                #########################################################
                #                        -***-                          #
                #          Department of theory and spectroscopy        #
                #                                                       #
                #                      Frank Neese                      #
                #                                                       #
                #     Directorship, Architecture, Infrastructure        #
                #                    SHARK, DRIVERS                     #
                #        Core code/Algorithms in most modules           #
                #                                                       #
                #        Max Planck Institute fuer Kohlenforschung      #
                #                Kaiser Wilhelm Platz 1                 #
                #                 D-45470 Muelheim/Ruhr                 #
                #                      Germany                          #
                #                                                       #
                #                  All rights reserved                  #
                #                        -***-                          #
                #########################################################


                         Program Version 6.0.1  -  RELEASE   -


 With contributions from (in alphabetic order):
[Max-Planck-Institut fuer Kohlenforschung]                               
  Daniel Aravena         : Magnetic Suceptibility                        
  Michael Atanasov       : Ab Initio Ligand Field Theory (pilot matlab implementation)
  Alexander A. Auer      : GIAO ZORA, VPT2 properties, NMR spectrum      
  Ute Becker             : All parallelization in ORCA, NUMFREQ, NUMCALC 
  Giovanni Bistoni       : ED, misc. LED, open-shell LED, HFLD           
  Martin Brehm           : Molecular dynamics                            
  Dmytro Bykov           : pre 5.0 version of the SCF Hessian            
  Marcos Casanova-Páez   : Triplet and SCS-CIS(D). UHF-(DLPNO)-IP/EA/STEOM-CCSD. UHF-CVS-IP/STEOM-CCSD   
  Vijay G. Chilkuri      : MRCI spin determinant printing, contributions to CSF-ICE 
  Pauline Colinet        : FMM embedding                                 
  Dipayan Datta          : RHF DLPNO-CCSD density                        
  Achintya Kumar Dutta   : EOM-CC, STEOM-CC                              
  Nicolas Foglia         : Exact transition moments, OPA infrastructure, MCD improvements    
  Dmitry Ganyushin       : Spin-Orbit,Spin-Spin,Magnetic field MRCI      
  Miquel Garcia-Rates    : C-PCM and meta-GGA Hessian, CCSD/C-PCM, Gaussian charge scheme 
  Tiago L. C. Gouveia    : GS-ROHF, GS-ROCIS                             
  Yang Guo               : DLPNO-NEVPT2, F12-NEVPT2, CIM, IAO-localization        
  Andreas Hansen         : Spin unrestricted coupled pair/coupled cluster methods 
  Ingolf Harden          : AUTO-CI MPn and infrastructure                
  Benjamin Helmich-Paris : MC-RPA, TRAH-(SCF,CASSCF), AVAS, COSX integrals, SCF dyn. polar. 
  Lee Huntington         : MR-EOM, pCC                                   
  Robert Izsak           : Overlap fitted RIJCOSX, COSX-SCS-MP3, EOM     
  Riya Kayal             : Wick's Theorem for AUTO-CI, AUTO-CI UHF-CCSDT 
  Emily Kempfer          : AUTO-CI, RHF CISDT and CCSDT                  
  Christian Kollmar      : KDIIS, OOCD, Brueckner-CCSD(T), CCSD density, CASPT2, CASPT2-K, improved NEVPT2 
  Axel Koslowski         : Symmetry handling                             
  Simone Kossmann        : meta-GGA functionals, TD-DFT gradient, OOMP2, (MP2 Hessian; deprecated post 5.0) 
  Lucas Lang             : DCDCAS                                        
  Marvin Lechner         : AUTO-CI (C++ implementation), FIC-MRCC        
  Spencer Leger          : CASSCF response                               
  Dagmar Lenk            : GEPOL surface, SMD, ORCA-2-JSON               
  Dimitrios Liakos       : Extrapolation schemes; Compound Job, initial MDCI parallelization 
  Dimitrios Manganas     : Further ROCIS development; embedding schemes. LFT, Crystal Embedding 
  Dimitrios Pantazis     : SARC Basis sets                               
  Anastasios Papadopoulos: AUTO-CI, single reference methods and gradients 
  Taras Petrenko         : pre 6.0 DFT Hessian and TD-DFT gradient, (ASA, deprecated), ECA, 1-Electron XAS/XES, NRVS 
  Peter Pinski           : DLPNO-MP2, DLPNO-MP2 Gradient                 
  Christoph Reimann      : Effective Core Potentials                     
  Marius Retegan         : Local ZFS, SOC                                
  Christoph Riplinger    : Optimizer, TS searches, QM/MM, DLPNO-CCSD(T), (RO)-DLPNO pert. Triples 
  Michael Roemelt        : Original ROCIS implementation                 
  Masaaki Saitow         : Open-shell DLPNO-CCSD energy and density      
  Barbara Sandhoefer     : DKH picture change effects                    
  Kantharuban Sivalingam : CASSCF convergence/infrastructure, NEVPT2 and variants, FIC-MRCI 
  Bernardo de Souza      : ESD, SOC TD-DFT                               
  Georgi L. Stoychev     : AutoAux, RI-MP2 NMR, DLPNO-MP2 response, X2C  
  Van Anh Tran           : RI-MP2 g-tensors                              
  Willem Van den Heuvel  : Paramagnetic NMR                              
  Zikuan Wang            : NOTCH, Electric field optimization            
  Frank Wennmohs         : Technical directorship and infrastructure     
  Hang Xu                : AUTO-CI-Response properties                   
                                                                         
[FACCTs GmbH]                                                            
  Markus Bursch, Miquel Garcia-Rates, Christoph Riplinger, Bernardo de Souza, Georgi L. Stoychev 
                                                                 
  APM, Basis sets (HGBS, AHGBS, def-TZVP (Ac-Lr), def2-XVPD (La-Lu)), CI-OPT, improved COSX, DLPNO-Multilevel,           
  DOCKER, DRACO, updates on ESD, GOAT, IRC, LR-CPCM, MBIS, meta-GGA TD-DFT gradient, ML-optimized integration grids, 
  MM, NACMEs, nearIR, NEB, NEB-TS, NL-DFT gradient (VV10), 2- and 3-layer-ONIOM, interface openCOSMO-RS, QMMM,   
  Crystal-QMMM, SF, symmetry and pop. for TD-DFT, r2SCAN hybrids, SOLVATOR                                   
                                                                         
[Other institutions]                                                     
  V. Asgeirsson          : NEB                                           
  Christoph Bannwarth    : sTDA-DFT, sTD-DFT, PBEh-3c, B97-3c, D3        
  Sebastian Ehlert       : rSCAN, r2SCAN, r2SCAN-3c, D4, dhf basis sets  
  Marvin Friede          : D4 for Fr, Ra, Ac-Lr                          
  Lars Goerigk           : TD-DFT with DH, B97 family of functionals     
  Stefan Grimme          : VdW corrections, initial TS optimization, DFT functionals, gCP, sTDA/sTD-DF 
  Waldemar Hujo          : DFT-NL                                        
  H. Jonsson             : NEB                                           
  Holger Kruse           : gCP                                           
  Marcel Mueller         : wB97X-3c, vDZP basis set                      
  Hagen Neugebauer       : wr2SCAN                                       
  Tobias Risthaus        : range-separated hybrid DFT                    
  Lukas Wittmann         : regularized MP2, r2SCAN double-hybrids, wr2SCAN        
                                                                         
We gratefully acknowledge several colleagues who have allowed us to      
interface, adapt or use parts of their codes:                            
  Ed Valeev, F. Pavosevic, A. Kumar             : LibInt (2-el integral package), F12 methods 
  Garnet Chan, S. Sharma, J. Yang, R. Olivares  : DMRG                   
  Ulf Ekstrom                                   : XCFun DFT Library      
  Mihaly Kallay                                 : mrcc  (arbitrary order and MRCC methods)
  Frank Weinhold                                : gennbo (NPA and NBO analysis)           
  Simon Mueller                                 : openCOSMO-RS                            
  Christopher J. Cramer and Donald G. Truhlar   : smd solvation model                     
  S Lehtola, MJT Oliveira, MAL Marques          : LibXC Library                           
  Liviu Ungur et al                             : ANISO software                          


 Your calculation uses the libint2 library for the computation of 2-el integrals
 For citations please refer to: http://libint.valeyev.net

 Your ORCA version has been built with support for libXC version: 6.2.2
 For citations please refer to: https://libxc.gitlab.io

 This ORCA versions uses:
   CBLAS   interface :  Fast vector & matrix operations
   LAPACKE interface :  Fast linear algebra routines
   SCALAPACK package :  Parallel linear algebra routines
   Shared memory     :  Shared parallel matrices
   BLAS/LAPACK       :  OpenBLAS 0.3.27  USE64BITINT DYNAMIC_ARCH NO_AFFINITY Zen SINGLE_THREADED
        Core in use  :  Zen
   Copyright (c) 2011-2014, The OpenBLAS Project


Your calculation utilizes the geometrical counterpoise correction gCP
Please cite in your paper:
H.Kruse, S. Grimme J.Chem.Phys., 136, (2012), 154101 
   

Your calculation utilizes the atom-pairwise dispersion correction
based on EEQ partial charges (D4)


================================================================================

----- Orbital basis set information -----
Your calculation utilizes the basis: def2-SV(P)
   F. Weigend and R. Ahlrichs, Phys. Chem. Chem. Phys. 7, 3297 (2005).

----- AuxJ basis set information -----
Your calculation utilizes the auxiliary basis: def2/J
   F. Weigend, Phys. Chem. Chem. Phys. 8, 1057 (2006).

================================================================================
                                        WARNINGS
                       Please study these warnings very carefully!
================================================================================


================================================================================
                                       INPUT FILE
================================================================================
NAME = sp.inp
|  1> ! pbe def2-sv(p) def2/J RI DEFGRID1 loosescf d4 GCP(DFT/SV(P)) printgap
|  2> %output
|  3>     printlevel normal
|  4> end
|  5> * xyz 0 1
|  6> C -2.415175551 -0.0574843474 -1.487e-05
|  7> C -1.8545287214 -1.3238328503 6.52984e-05
|  8> C -0.4778504081 -1.4685620905 1.9456e-06
|  9> C 0.3234519251 -0.3431103814 -7.5671e-05
| 10> C -0.2248403568 0.9406598985 4.3185e-06
| 11> C -1.6110294649 1.0658790289 -9.70562e-05
| 12> O 0.5422652342 2.049218994 8.88944e-05
| 13> Cl 2.0623738587 -0.5015057931 -1.20472e-05
| 14> H -3.4881328934 0.0575760746 -3.1109e-05
| 15> H -2.4833066713 -2.2001962929 0.0003904473
| 16> H -0.025877093 -2.4482047258 8.01221e-05
| 17> H -2.0309788649 2.0588276642 -0.0001434626
| 18> H 1.4753357273 1.7819926906 9.94245e-05
| 19> *
| 20> 
| 21>                          ****END OF INPUT****
================================================================================

                       ****************************
                       * Single Point Calculation *
                       ****************************

---------------------------------
CARTESIAN COORDINATES (ANGSTROEM)
---------------------------------
  C     -2.415176   -0.057484   -0.000015
  C     -1.854529   -1.323833    0.000065
  C     -0.477850   -1.468562    0.000002
  C      0.323452   -0.343110   -0.000076
  C     -0.224840    0.940660    0.000004
  C     -1.611029    1.065879   -0.000097
  O      0.542265    2.049219    0.000089
  Cl     2.062374   -0.501506   -0.000012
  H     -3.488133    0.057576   -0.000031
  H     -2.483307   -2.200196    0.000390
  H     -0.025877   -2.448205    0.000080
  H     -2.030979    2.058828   -0.000143
  H      1.475336    1.781993    0.000099

----------------------------
CARTESIAN COORDINATES (A.U.)
----------------------------
  NO LB      ZA    FRAG     MASS         X           Y           Z
   0 C     6.0000    0    12.011   -4.564020   -0.108630   -0.000028
   1 C     6.0000    0    12.011   -3.504551   -2.501682    0.000123
   2 C     6.0000    0    12.011   -0.903006   -2.775180    0.000004
   3 C     6.0000    0    12.011    0.611236   -0.648385   -0.000143
   4 C     6.0000    0    12.011   -0.424887    1.777590    0.000008
   5 C     6.0000    0    12.011   -3.044404    2.014219   -0.000183
   6 O     8.0000    0    15.999    1.024733    3.872463    0.000168
   7 Cl   17.0000    0    35.453    3.897322   -0.947709   -0.000023
   8 H     1.0000    0     1.008   -6.591616    0.108803   -0.000059
   9 H     1.0000    0     1.008   -4.692770   -4.157768    0.000738
  10 H     1.0000    0     1.008   -0.048901   -4.626436    0.000151
  11 H     1.0000    0     1.008   -3.837994    3.890620   -0.000271
  12 H     1.0000    0     1.008    2.787980    3.367478    0.000188

--------------------------------
INTERNAL COORDINATES (ANGSTROEM)
--------------------------------
 C      0   0   0     0.000000000000     0.00000000     0.00000000
 C      1   0   0     1.384905558067     0.00000000     0.00000000
 C      2   1   0     1.384265052399   119.88169218     0.00000000
 C      3   2   1     1.381566858582   119.44879375     0.00000000
 C      4   3   2     1.395955072466   121.42268371     0.00000000
 C      1   2   3     1.381519529271   120.52320531     0.00000000
 O      5   4   3     1.348092824368   122.19026920   179.99204132
 Cl     4   3   2     1.746121015752   120.24560290   179.99451253
 H      1   2   3     1.079109058244   120.00109172   179.99598931
 H      2   1   3     1.078598488562   120.46084179   179.98684289
 H      3   2   1     1.078878851666   120.76839098   179.99893895
 H      6   1   2     1.078102264657   121.47843681   180.00103575
 H      7   5   4     0.970582527369   108.70120551     0.00000000

---------------------------
INTERNAL COORDINATES (A.U.)
---------------------------
 C      0   0   0     0.000000000000     0.00000000     0.00000000
 C      1   0   0     2.617092226092     0.00000000     0.00000000
 C      2   1   0     2.615881845792   119.88169218     0.00000000
 C      3   2   1     2.610782998422   119.44879375     0.00000000
 C      4   3   2     2.637972782219   121.42268371     0.00000000
 C      1   2   3     2.610693558986   120.52320531     0.00000000
 O      5   4   3     2.547526241160   122.19026920   179.99204132
 Cl     4   3   2     3.299690516456   120.24560290   179.99451253
 H      1   2   3     2.039220588715   120.00109172   179.99598931
 H      2   1   3     2.038255751843   120.46084179   179.98684289
 H      3   2   1     2.038785561328   120.76839098   179.99893895
 H      6   1   2     2.037318024562   121.47843681   180.00103575
 H      7   5   4     1.834135167096   108.70120551     0.00000000

---------------------
BASIS SET INFORMATION
---------------------
There are 4 groups of distinct atoms

 Group   1 Type C   : 7s4p1d contracted to 3s2p1d pattern {511/31/1}
 Group   2 Type O   : 7s4p1d contracted to 3s2p1d pattern {511/31/1}
 Group   3 Type Cl  : 10s7p1d contracted to 4s3p1d pattern {5311/511/1}
 Group   4 Type H   : 4s contracted to 2s pattern {31}

Atom   0C    basis set group =>   1
Atom   1C    basis set group =>   1
Atom   2C    basis set group =>   1
Atom   3C    basis set group =>   1
Atom   4C    basis set group =>   1
Atom   5C    basis set group =>   1
Atom   6O    basis set group =>   2
Atom   7Cl   basis set group =>   3
Atom   8H    basis set group =>   4
Atom   9H    basis set group =>   4
Atom  10H    basis set group =>   4
Atom  11H    basis set group =>   4
Atom  12H    basis set group =>   4
---------------------------------
AUXILIARY/J BASIS SET INFORMATION
---------------------------------
There are 4 groups of distinct atoms

 Group   1 Type C   : 12s5p4d2f1g contracted to 6s4p3d1f1g pattern {711111/2111/211/2/1}
 Group   2 Type O   : 12s5p4d2f1g contracted to 6s4p3d1f1g pattern {711111/2111/211/2/1}
 Group   3 Type Cl  : 14s5p5d2f1g contracted to 8s4p3d1f1g pattern {71111111/2111/311/2/1}
 Group   4 Type H   : 5s2p1d contracted to 3s1p1d pattern {311/2/1}

Atom   0C    basis set group =>   1
Atom   1C    basis set group =>   1
Atom   2C    basis set group =>   1
Atom   3C    basis set group =>   1
Atom   4C    basis set group =>   1
Atom   5C    basis set group =>   1
Atom   6O    basis set group =>   2
Atom   7Cl   basis set group =>   3
Atom   8H    basis set group =>   4
Atom   9H    basis set group =>   4
Atom  10H    basis set group =>   4
Atom  11H    basis set group =>   4
Atom  12H    basis set group =>   4

Checking for AutoStart:
The File: sp.gbw exists
Trying to determine its content:
     ... Fine, the file contains calculation information
     ... Fine, the calculation information was read
     ... Fine, the file contains a basis set
     ... Fine, the basis set was read
     ... Fine, the file contains a geometry
     ... Fine, the geometry was read
     ... The file does not contain orbitals - skipping AutoStart
------------------------------------------------------------------------------
                             ORCA STARTUP CALCULATIONS
                           -- RI-GTO INTEGRALS CHOSEN --
------------------------------------------------------------------------------
------------------------------------------------------------------------------
                   ___                                                        
                  /   \      - P O W E R E D   B Y -                         
                 /     \                                                     
                 |  |  |   _    _      __       _____    __    __             
                 |  |  |  | |  | |    /  \     |  _  \  |  |  /  |          
                  \  \/   | |  | |   /    \    | | | |  |  | /  /          
                 / \  \   | |__| |  /  /\  \   | |_| |  |  |/  /          
                |  |  |   |  __  | /  /__\  \  |    /   |      \           
                |  |  |   | |  | | |   __   |  |    \   |  |\   \          
                \     /   | |  | | |  |  |  |  | |\  \  |  | \   \       
                 \___/    |_|  |_| |__|  |__|  |_| \__\ |__|  \__/        
                                                                              
                      - O R C A' S   B I G   F R I E N D -                    
                                      &                                       
                       - I N T E G R A L  F E E D E R -                       
                                                                              
 v1 FN, 2020, v2 2021, v3 2022-2024                                           
------------------------------------------------------------------------------


----------------------
SHARK INTEGRAL PACKAGE
----------------------

Number of atoms                             ...     13
Number of basis functions                   ...    126
Number of shells                            ...     60
Maximum angular momentum                    ...      2
Integral batch strategy                     ... SHARK/LIBINT Hybrid
RI-J (if used) integral strategy            ... SPLIT-RIJ (Revised 2003 algorithm where possible)
Printlevel                                  ...      1
Contraction scheme used                     ... SEGMENTED contraction
Prescreening option                         ... SCHWARTZ
   Thresh                                   ... 1.000e-09
   Tcut                                     ... 1.000e-10
   Tpresel                                  ... 1.000e-10 
Coulomb Range Separation                    ... NOT USED
Exchange Range Separation                   ... NOT USED
Multipole approximations                    ... NOT USED
Finite Nucleus Model                        ... NOT USED
CABS basis                                  ... NOT available
Auxiliary Coulomb fitting basis             ... AVAILABLE
   # of basis functions in Aux-J            ...    449
   # of shells in Aux-J                     ...    147
   Maximum angular momentum in Aux-J        ...      4
Auxiliary J/K fitting basis                 ... NOT available
Auxiliary Correlation fitting basis         ... NOT available
Auxiliary 'external' fitting basis          ... NOT available

Checking pre-screening integrals            ... done (  0.0 sec) Dimension = 60
Check shell pair data                       ... done (  0.0 sec)
Shell pair information
Shell pair cut-off parameter TPreSel        ...   1.0e-10
Total number of shell pairs                 ...      1830
Shell pairs after pre-screening             ...      1724
Total number of primitive shell pairs       ...      7632
Primitive shell pairs kept                  ...      5101
          la=0 lb=0:    577 shell pairs
          la=1 lb=0:    567 shell pairs
          la=1 lb=1:    150 shell pairs
          la=2 lb=0:    262 shell pairs
          la=2 lb=1:    132 shell pairs
          la=2 lb=2:     36 shell pairs

Calculating one electron integrals          ... done (  0.0 sec)
Calculating RI/J V-Matrix + Cholesky decomp.... done (  0.0 sec)
Calculating Nuclear repulsion               ... done (  0.0 sec) ENN=    407.994847079036 Eh

Diagonalization of the overlap matrix:
Smallest eigenvalue                        ... 2.276e-04
Time for diagonalization                   ...    0.001 sec
Threshold for overlap eigenvalues          ... 1.000e-07
Number of eigenvalues below threshold      ... 0
Time for construction of square roots      ...    0.000 sec
Total time needed                          ...    0.002 sec

-------------------
DFT GRID GENERATION
-------------------

General Integration Accuracy     IntAcc      ... 4.159
Radial Grid Type                 RadialGrid  ... OptM3 with GC (2021)
Angular Grid (max. ang.)         AngularGrid ... 3 (Lebedev-194)
Angular grid pruning method      GridPruning ... 4 (adaptive)
Weight generation scheme         WeightScheme... mBecke (2022)
Basis function cutoff            BFCut       ... 1.0000e-10
Integration weight cutoff        WCut        ... 1.0000e-14
Partially contracted basis set               ... off
Rotationally invariant grid construction     ... off
Angular grids for H and He will be reduced by one unit

Total number of grid points                  ...    34239
Total number of batches                      ...      539
Average number of points per batch           ...       63
Average number of grid points per atom       ...     2634
Initializing property integral containers    ... done (  0.0 sec)

SHARK setup successfully completed in   0.2 seconds

Maximum memory used throughout the entire STARTUP-calculation: 17.9 MB
-------------------------------------------------------------------------------
                                 ORCA GUESS
                   Start orbitals & Density for SCF / CASSCF
-------------------------------------------------------------------------------

------------
SCF SETTINGS
------------
Hamiltonian:
 Density Functional     Method          .... DFT(GTOs)
 Exchange Functional    Exchange        .... PBE
   PBE kappa parameter   XKappa         ....  0.804000
   PBE mue parameter    XMuePBE         ....  0.219520
 Correlation Functional Correlation     .... PBE
   PBE beta parameter  CBetaPBE         ....  0.066725
 LDA part of GGA corr.  LDAOpt          .... PW91-LDA
 Gradients option       PostSCFGGA      .... off
   NL short-range parameter             ....  6.400000
 RI-approximation to the Coulomb term is turned on
   Number of AuxJ basis functions       .... 449


General Settings:
 Integral files         IntName         .... sp
 Hartree-Fock type      HFTyp           .... RHF
 Total Charge           Charge          ....    0
 Multiplicity           Mult            ....    1
 Number of Electrons    NEL             ....   66
 Basis Dimension        Dim             ....  126
 Nuclear Repulsion      ENuc            ....    407.9948470790 Eh

Convergence Acceleration:
 AO-DIIS                CNVDIIS         .... on
   Start iteration      DIISMaxIt       ....    12
   Startup error        DIISStart       ....  0.200000
   # of expansion vecs  DIISMaxEq       ....     5
   Bias factor          DIISBfac        ....   1.050
   Max. coefficient     DIISMaxC        ....  10.000
 MO-DIIS                CNVKDIIS        .... off
 Trust-Rad. Augm. Hess. CNVTRAH         .... auto
   Auto Start mean grad. ratio tolernc. ....  1.125000
   Auto Start start iteration           ....    50
   Auto Start num. interpolation iter.  ....    10
   Max. Number of Micro iterations      ....    24
   Max. Number of Macro iterations      .... Maxiter - #DIIS iter
   Number of Davidson start vectors     ....     2
   Converg. threshold    (grad. norm)   ....   1.000e-04
   Grad. Scal. Fac. for Micro threshold ....   0.100
   Minimum threshold for Micro iter.    ....   1.000e-02
   NR start threshold (gradient norm)   ....   1.000e-04
   Initial trust radius                 ....   0.400
   Minimum AH scaling param. (alpha)    ....   1.000
   Maximum AH scaling param. (alpha)    .... 1000.000
   Quad. conv. algorithm                .... NR
   White noise on init. David. guess    .... on
   Maximum white noise                  ....   0.010
   Pseudo random numbers                .... off
   Inactive MOs                         .... canonical
   Orbital update algorithm             .... Taylor
   Preconditioner                       .... Diag
   Full preconditioner red. dimension   ....   250
 SOSCF                  CNVSOSCF        .... on
   Start iteration      SOSCFMaxIt      ....   150
   Startup grad/error   SOSCFStart      ....  0.003300
   Hessian update       SOSCFHessUp     .... L-BFGS
 Level Shifting         CNVShift        .... on
   Level shift para.    LevelShift      ....    0.2500
   Turn off err/grad.   ShiftErr        ....    0.0010
 Zerner damping         CNVZerner       .... off
 Static damping         CNVDamp         .... on
   Fraction old density DampFac         ....    0.7000
   Max. Damping (<1)    DampMax         ....    0.9800
   Min. Damping (>=0)   DampMin         ....    0.0000
   Turn off err/grad.   DampErr         ....    0.1000

SCF Procedure:
 Maximum # iterations   MaxIter         ....   125
 SCF integral mode      SCFMode         .... Direct
   Integral package                     .... SHARK and LIBINT hybrid scheme
 Reset frequency        DirectResetFreq ....    20
 Integral Threshold     Thresh          ....  1.000e-09 Eh
 Primitive CutOff       TCut            ....  1.000e-10 Eh

Convergence Tolerance:
 Convergence Check Mode ConvCheckMode   .... Total+1el-Energy
 Convergence forced     ConvForced      .... 0
 Energy Change          TolE            ....  1.000e-05 Eh
 1-El. energy change                    ....  1.000e-02 Eh
 Orbital Gradient       TolG            ....  1.000e-04
 Orbital Rotation angle TolX            ....  1.000e-04
 DIIS Error             TolErr          ....  5.000e-04

------------------------------
INITIAL GUESS: MODEL POTENTIAL
------------------------------
Loading Hartree-Fock densities                     ... done
Calculating cut-offs                               ... done
Initializing the effective Hamiltonian             ... done
Setting up the integral package (SHARK)            ... done
Starting the Coulomb interaction                   ... done (   0.0 sec)
Making the grid                                    ... done (   0.1 sec)
Mapping shells                                     ... done
Starting the XC term evaluation                    ... done (   0.1 sec)
  promolecular density results
     # of electrons  =     65.995294709
     EX              =    -67.736342492
     EC              =     -2.308064374
     EX+EC           =    -70.044406865
Transforming the Hamiltonian                       ... done (   0.0 sec)
Diagonalizing the Hamiltonian                      ... done (   0.0 sec)
Back transforming the eigenvectors                 ... done (   0.0 sec)
Now organizing SCF variables                       ... done
                      ------------------
                      INITIAL GUESS DONE (   0.2 sec)
                      ------------------
             **** ENERGY FILE WAS UPDATED (sp.en.tmp) ****
Finished Guess after   0.2 sec
Maximum memory used throughout the entire GUESS-calculation: 13.7 MB

-------------------------------------------------------------------------------------------
                                      ORCA LEAN-SCF
                              memory conserving SCF solver
-------------------------------------------------------------------------------------------

----------------------------------------D-I-I-S--------------------------------------------
Iteration    Energy (Eh)           Delta-E    RMSDP     MaxDP     DIISErr   Damp  Time(sec)
-------------------------------------------------------------------------------------------
               ***  Starting incremental Fock matrix formation  ***
    1    -765.9738854544017386     0.00e+00  4.43e-03  5.91e-02  2.02e-01  0.700   0.2
    2    -766.0502546317817405    -7.64e-02  3.02e-03  3.58e-02  8.37e-02  0.700   0.2
                               ***Turning on AO-DIIS***
    3    -766.0758293349236965    -2.56e-02  1.13e-03  1.51e-02  1.79e-02  0.700   0.2
    4    -766.0909826886619385    -1.52e-02  1.90e-03  3.33e-02  1.15e-02  0.000   0.2
    5    -766.1260838160477533    -3.51e-02  5.75e-04  1.00e-02  1.26e-02  0.000   0.2
                              *** Initializing SOSCF ***
---------------------------------------S-O-S-C-F--------------------------------------
Iteration    Energy (Eh)           Delta-E    RMSDP     MaxDP     MaxGrad    Time(sec)
--------------------------------------------------------------------------------------
    6    -766.1265208580597346    -4.37e-04  1.72e-04  2.35e-03  2.66e-03     0.2
               *** Restarting incremental Fock matrix formation ***
    7    -766.1265627718806854    -4.19e-05  1.30e-04  1.79e-03  2.41e-04     0.2
    8    -766.1265602679469566     2.50e-06  6.48e-05  1.09e-03  7.59e-04     0.2
                 **** Energy Check signals convergence ****

               *****************************************************
               *                     SUCCESS                       *
               *           SCF CONVERGED AFTER   8 CYCLES          *
               *****************************************************

             **** ENERGY FILE WAS UPDATED (sp.en.tmp) ****

----------------
TOTAL SCF ENERGY
----------------

Total Energy       :       -766.12656026794696 Eh          -20847.36356 eV

Components:
Nuclear Repulsion  :        407.99484707903582 Eh           11102.10421 eV
Electronic Energy  :      -1174.12140734698278 Eh          -31949.46777 eV
One Electron Energy:      -1859.64442639871140 Eh          -50603.49747 eV
Two Electron Energy:        685.52301905172862 Eh           18654.02970 eV

Virial components:
Potential Energy   :      -1528.91353975443963 Eh          -41603.85252 eV
Kinetic Energy     :        762.78697948649267 Eh           20756.48895 eV
Virial Ratio       :          2.00437813029229

DFT components:
N(Alpha)           :       32.999937758410 electrons
N(Beta)            :       32.999937758410 electrons
N(Total)           :       65.999875516819 electrons
E(X)               :      -68.383065491274 Eh       
E(C)               :       -2.319549776096 Eh       
E(XC)              :      -70.702615267370 Eh       

---------------
SCF CONVERGENCE
---------------

  Last Energy change         ...   -2.5039e-06  Tolerance :   1.0000e-05
  Last MAX-Density change    ...    1.0859e-03  Tolerance :   1.0000e-03
  Last RMS-Density change    ...    6.4829e-05  Tolerance :   1.0000e-04
  Last DIIS Error            ...    2.6562e-03  Tolerance :   5.0000e-04
  Last Orbital Gradient      ...    7.5852e-04  Tolerance :   1.0000e-04
  Last Orbital Rotation      ...    1.4839e-03  Tolerance :   1.0000e-04


----------------
ORBITAL ENERGIES
----------------

  NO   OCC          E(Eh)            E(eV) 
   0   2.0000    -100.657729     -2739.0361 
   1   2.0000     -18.787670      -511.2385 
   2   2.0000      -9.965409      -271.1726 
   3   2.0000      -9.950594      -270.7694 
   4   2.0000      -9.906836      -269.5787 
   5   2.0000      -9.901325      -269.4288 
   6   2.0000      -9.897570      -269.3266 
   7   2.0000      -9.897530      -269.3255 
   8   2.0000      -9.192992      -250.1540 
   9   2.0000      -7.024060      -191.1344 
  10   2.0000      -7.013129      -190.8370 
  11   2.0000      -7.012662      -190.8242 
  12   2.0000      -0.976096       -26.5609 
  13   2.0000      -0.815165       -22.1818 
  14   2.0000      -0.767429       -20.8828 
  15   2.0000      -0.679545       -18.4914 
  16   2.0000      -0.661874       -18.0105 
  17   2.0000      -0.565740       -15.3946 
  18   2.0000      -0.555857       -15.1256 
  19   2.0000      -0.503086       -13.6897 
  20   2.0000      -0.460068       -12.5191 
  21   2.0000      -0.430057       -11.7024 
  22   2.0000      -0.405091       -11.0231 
  23   2.0000      -0.391441       -10.6517 
  24   2.0000      -0.385807       -10.4983 
  25   2.0000      -0.349745        -9.5170 
  26   2.0000      -0.336519        -9.1571 
  27   2.0000      -0.318672        -8.6715 
  28   2.0000      -0.308847        -8.4042 
  29   2.0000      -0.300303        -8.1716 
  30   2.0000      -0.288352        -7.8465 
  31   2.0000      -0.229505        -6.2451 
  32   2.0000      -0.201935        -5.4949 
  33   0.0000      -0.044452        -1.2096 
  34   0.0000      -0.028470        -0.7747 
  35   0.0000      -0.000619        -0.0168 
  36   0.0000       0.045425         1.2361 
  37   0.0000       0.059192         1.6107 
  38   0.0000       0.084548         2.3007 
  39   0.0000       0.110453         3.0056 
  40   0.0000       0.115712         3.1487 
  41   0.0000       0.129495         3.5237 
  42   0.0000       0.196205         5.3390 
  43   0.0000       0.235067         6.3965 
*Only the first 10 virtual orbitals were printed.

                    ********************************
                    * MULLIKEN POPULATION ANALYSIS *
                    ********************************

-----------------------
MULLIKEN ATOMIC CHARGES
-----------------------
   0 C :   -0.030589
   1 C :   -0.061173
   2 C :   -0.098028
   3 C :    0.034010
   4 C :    0.191068
   5 C :   -0.155844
   6 O :   -0.312248
   7 Cl:   -0.093733
   8 H :    0.059365
   9 H :    0.057159
  10 H :    0.049168
  11 H :    0.053771
  12 H :    0.307075
Sum of atomic charges:   -0.0000000

--------------------------------
MULLIKEN REDUCED ORBITAL CHARGES
--------------------------------
  0 C s       :     3.179783  s :     3.179783
      pz      :     0.989979  p :     2.815021
      px      :     0.849598
      py      :     0.975443
      dz2     :     0.003127  d :     0.035785
      dxz     :     0.002061
      dyz     :     0.007453
      dx2y2   :     0.013689
      dxy     :     0.009456

  1 C s       :     3.181287  s :     3.181287
      pz      :     1.025724  p :     2.844982
      px      :     0.926638
      py      :     0.892620
      dz2     :     0.003173  d :     0.034904
      dxz     :     0.005088
      dyz     :     0.003560
      dx2y2   :     0.009871
      dxy     :     0.013212

  2 C s       :     3.301871  s :     3.301871
      pz      :     0.998740  p :     2.761075
      px      :     0.891544
      py      :     0.870791
      dz2     :     0.003286  d :     0.035083
      dxz     :     0.006704
      dyz     :     0.003225
      dx2y2   :     0.009222
      dxy     :     0.012646

  3 C s       :     2.938788  s :     2.938788
      pz      :     1.135709  p :     2.978764
      px      :     0.794495
      py      :     1.048559
      dz2     :     0.003676  d :     0.048438
      dxz     :     0.007235
      dyz     :     0.007023
      dx2y2   :     0.017241
      dxy     :     0.013264

  4 C s       :     2.945950  s :     2.945950
      pz      :     0.981774  p :     2.789079
      px      :     0.892406
      py      :     0.914899
      dz2     :     0.005132  d :     0.073903
      dxz     :     0.010807
      dyz     :     0.014508
      dx2y2   :     0.020734
      dxy     :     0.022723

  5 C s       :     3.305274  s :     3.305274
      pz      :     1.043291  p :     2.817995
      px      :     0.984790
      py      :     0.789913
      dz2     :     0.003268  d :     0.032575
      dxz     :     0.005549
      dyz     :     0.002855
      dx2y2   :     0.012307
      dxy     :     0.008595

  6 O s       :     3.738235  s :     3.738235
      pz      :     1.807941  p :     4.557191
      px      :     1.233275
      py      :     1.515975
      dz2     :     0.002785  d :     0.016821
      dxz     :     0.000546
      dyz     :     0.002722
      dx2y2   :     0.005703
      dxy     :     0.005064

  7 Cls       :     5.950168  s :     5.950168
      pz      :     3.926389  p :    11.105568
      px      :     3.269985
      py      :     3.909193
      dz2     :     0.005046  d :     0.037997
      dxz     :     0.010899
      dyz     :     0.000216
      dx2y2   :     0.015233
      dxy     :     0.006604

  8 H s       :     0.940635  s :     0.940635

  9 H s       :     0.942841  s :     0.942841

 10 H s       :     0.950832  s :     0.950832

 11 H s       :     0.946229  s :     0.946229

 12 H s       :     0.692925  s :     0.692925


------------------------
MULLIKEN OVERLAP CHARGES
------------------------
B(  0-C ,  1-C ) :   0.1608 B(  0-C ,  2-C ) :   0.3801 B(  0-C ,  3-C ) :  -0.4583 
B(  0-C ,  4-C ) :   0.4487 B(  0-C ,  5-C ) :   0.2145 B(  0-C ,  8-H ) :   0.9030 
B(  0-C ,  9-H ) :  -0.1804 B(  0-C , 11-H ) :  -0.1926 B(  1-C ,  2-C ) :   0.2557 
B(  1-C ,  3-C ) :   0.4254 B(  1-C ,  4-C ) :  -0.4575 B(  1-C ,  5-C ) :   0.4023 
B(  1-C ,  8-H ) :  -0.1825 B(  1-C ,  9-H ) :   0.8908 B(  1-C , 10-H ) :  -0.1668 
B(  2-C ,  3-C ) :   0.2883 B(  2-C ,  4-C ) :   0.3866 B(  2-C ,  5-C ) :  -0.3410 
B(  2-C ,  7-Cl) :  -0.0915 B(  2-C ,  9-H ) :  -0.1773 B(  2-C , 10-H ) :   0.8778 
B(  3-C ,  4-C ) :  -0.0874 B(  3-C ,  5-C ) :   0.1765 B(  3-C ,  6-O ) :  -0.2056 
B(  3-C ,  7-Cl) :   0.4137 B(  3-C , 10-H ) :  -0.1817 B(  3-C , 11-H ) :   0.0567 
B(  3-C , 12-H ) :  -0.0581 B(  4-C ,  5-C ) :   0.3229 B(  4-C ,  6-O ) :   0.9422 
B(  4-C ,  7-Cl) :  -0.1145 B(  4-C , 11-H ) :  -0.1543 B(  4-C , 12-H ) :  -0.0566 
B(  5-C ,  6-O ) :  -0.1574 B(  5-C ,  8-H ) :  -0.1859 B(  5-C , 11-H ) :   0.8510 
B(  6-O , 12-H ) :   0.5173 B(  7-Cl, 12-H ) :   0.0975 


                     *******************************
                     * LOEWDIN POPULATION ANALYSIS *
                     *******************************

----------------------
LOEWDIN ATOMIC CHARGES
----------------------
   0 C :   -0.116535
   1 C :   -0.142367
   2 C :   -0.134015
   3 C :   -0.172403
   4 C :    0.004581
   5 C :   -0.143186
   6 O :   -0.224795
   7 Cl:    0.131784
   8 H :    0.127734
   9 H :    0.126919
  10 H :    0.131778
  11 H :    0.135395
  12 H :    0.275110

-------------------------------
LOEWDIN REDUCED ORBITAL CHARGES
-------------------------------
  0 C s       :     2.888140  s :     2.888140
      pz      :     0.980581  p :     3.134567
      px      :     1.065939
      py      :     1.088047
      dz2     :     0.007064  d :     0.093828
      dxz     :     0.003389
      dyz     :     0.016487
      dx2y2   :     0.037877
      dxy     :     0.029011

  1 C s       :     2.886549  s :     2.886549
      pz      :     1.019054  p :     3.163723
      px      :     1.071529
      py      :     1.073140
      dz2     :     0.007186  d :     0.092095
      dxz     :     0.010787
      dyz     :     0.007041
      dx2y2   :     0.030270
      dxy     :     0.036812

  2 C s       :     2.894532  s :     2.894532
      pz      :     0.996390  p :     3.146526
      px      :     1.088848
      py      :     1.061288
      dz2     :     0.007513  d :     0.092957
      dxz     :     0.014735
      dyz     :     0.006329
      dx2y2   :     0.027843
      dxy     :     0.036537

  3 C s       :     2.903647  s :     2.903647
      pz      :     1.112446  p :     3.148322
      px      :     0.920581
      py      :     1.115295
      dz2     :     0.008698  d :     0.120433
      dxz     :     0.014270
      dyz     :     0.014531
      dx2y2   :     0.044413
      dxy     :     0.038522

  4 C s       :     2.837908  s :     2.837908
      pz      :     0.975713  p :     2.980457
      px      :     1.041205
      py      :     0.963539
      dz2     :     0.011888  d :     0.177054
      dxz     :     0.021662
      dyz     :     0.029712
      dx2y2   :     0.054723
      dxy     :     0.059068

  5 C s       :     2.892473  s :     2.892473
      pz      :     1.031557  p :     3.163295
      px      :     1.057470
      py      :     1.074268
      dz2     :     0.007372  d :     0.087419
      dxz     :     0.011812
      dyz     :     0.005148
      dx2y2   :     0.035565
      dxy     :     0.027521

  6 O s       :     3.503623  s :     3.503623
      pz      :     1.801851  p :     4.691630
      px      :     1.310089
      py      :     1.579691
      dz2     :     0.004467  d :     0.029543
      dxz     :     0.001221
      dyz     :     0.003430
      dx2y2   :     0.010607
      dxy     :     0.009818

  7 Cls       :     5.758928  s :     5.758928
      pz      :     3.909553  p :    11.065471
      px      :     3.280135
      py      :     3.875784
      dz2     :     0.005822  d :     0.043817
      dxz     :     0.012098
      dyz     :     0.000205
      dx2y2   :     0.018459
      dxy     :     0.007234

  8 H s       :     0.872266  s :     0.872266

  9 H s       :     0.873081  s :     0.873081

 10 H s       :     0.868222  s :     0.868222

 11 H s       :     0.864605  s :     0.864605

 12 H s       :     0.724890  s :     0.724890


---------------------------------
LOEWDIN BOND ORDERS (THRESH 0.050000)
---------------------------------
B(  0-C ,  1-C ) :   1.4858 B(  0-C ,  2-C ) :   0.0869 B(  0-C ,  3-C ) :   0.1037 
B(  0-C ,  4-C ) :   0.0899 B(  0-C ,  5-C ) :   1.5186 B(  0-C ,  8-H ) :   0.8870 
B(  1-C ,  2-C ) :   1.4969 B(  1-C ,  3-C ) :   0.0950 B(  1-C ,  4-C ) :   0.0981 
B(  1-C ,  5-C ) :   0.0884 B(  1-C ,  9-H ) :   0.8869 B(  2-C ,  3-C ) :   1.4713 
B(  2-C ,  4-C ) :   0.0912 B(  2-C ,  5-C ) :   0.1138 B(  2-C ,  7-Cl) :   0.1034 
B(  2-C , 10-H ) :   0.8807 B(  3-C ,  4-C ) :   1.3598 B(  3-C ,  5-C ) :   0.0907 
B(  3-C ,  6-O ) :   0.1132 B(  3-C ,  7-Cl) :   1.2116 B(  4-C ,  5-C ) :   1.4000 
B(  4-C ,  6-O ) :   1.3693 B(  4-C ,  7-Cl) :   0.0988 B(  5-C ,  6-O ) :   0.1085 
B(  5-C , 11-H ) :   0.8795 B(  6-O , 12-H ) :   0.8426 B(  7-Cl, 12-H ) :   0.0860 


------------------------------------------
LOEWDIN REDUCED ORBITAL POPULATIONS PER MO
-------------------------------------------
THRESHOLD FOR PRINTING IS 0.1%%
                      0         1         2         3         4         5   
                 -100.65773 -18.78767  -9.96541  -9.95059  -9.90684  -9.90133
                   2.00000   2.00000   2.00000   2.00000   2.00000   2.00000
                  --------  --------  --------  --------  --------  --------
 0 C  s               0.0       0.0       0.0       0.0       0.0      99.3
 1 C  s               0.0       0.0       0.0       0.0       0.0       0.1
 1 C  px              0.0       0.0       0.0       0.0       0.1       0.0
 1 C  py              0.0       0.0       0.0       0.0       0.0       0.1
 2 C  s               0.0       0.0       0.0       0.0      99.5       0.0
 2 C  py              0.0       0.0       0.0       0.1       0.0       0.0
 3 C  s               0.0       0.0       0.0      99.6       0.0       0.0
 3 C  py              0.0       0.0       0.1       0.0       0.1       0.0
 4 C  s               0.0       0.0      99.5       0.0       0.0       0.0
 4 C  py              0.0       0.0       0.0       0.1       0.0       0.0
 5 C  s               0.0       0.0       0.0       0.0       0.0       0.1
 5 C  px              0.0       0.0       0.1       0.0       0.0       0.0
 5 C  py              0.0       0.0       0.0       0.0       0.0       0.1
 6 O  s               0.0      99.9       0.0       0.0       0.0       0.0
 6 O  py              0.0       0.0       0.1       0.0       0.0       0.0
 7 Cl s             100.0       0.0       0.0       0.0       0.0       0.0

                      6         7         8         9        10        11   
                  -9.89757  -9.89753  -9.19299  -7.02406  -7.01313  -7.01266
                   2.00000   2.00000   2.00000   2.00000   2.00000   2.00000
                  --------  --------  --------  --------  --------  --------
 0 C  s               0.2       0.1       0.0       0.0       0.0       0.0
 0 C  py              0.1       0.1       0.0       0.0       0.0       0.0
 1 C  s               0.8      98.6       0.0       0.0       0.0       0.0
 2 C  px              0.0       0.1       0.0       0.0       0.0       0.0
 3 C  px              0.0       0.0       0.1       0.0       0.0       0.0
 4 C  px              0.1       0.0       0.0       0.0       0.0       0.0
 5 C  s              98.6       0.8       0.0       0.0       0.0       0.0
 7 Cl s               0.0       0.0      99.8       0.0       0.0       0.0
 7 Cl pz              0.0       0.0       0.0       0.0       0.0     100.0
 7 Cl px              0.0       0.0       0.0      98.9       1.1       0.0
 7 Cl py              0.0       0.0       0.0       1.1      98.9       0.0

                     12        13        14        15        16        17   
                  -0.97610  -0.81517  -0.76743  -0.67955  -0.66187  -0.56574
                   2.00000   2.00000   2.00000   2.00000   2.00000   2.00000
                  --------  --------  --------  --------  --------  --------
 0 C  s               0.1       1.9      12.6       0.6      17.4       4.1
 0 C  px              0.1       0.7       2.1       0.1       0.1       0.4
 0 C  py              0.0       0.0       0.0       8.4       0.3       0.1
 0 C  dz2             0.0       0.0       0.2       0.0       0.1       0.0
 0 C  dxy             0.0       0.0       0.0       0.3       0.0       0.0
 1 C  s               0.0       2.8      10.7      10.6       6.5       1.7
 1 C  px              0.0       0.8       0.3       2.9       4.1       2.2
 1 C  py              0.0       0.3       1.8       1.1       2.0       4.6
 1 C  dz2             0.0       0.0       0.1       0.1       0.0       0.0
 1 C  dx2y2           0.0       0.0       0.0       0.1       0.2       0.1
 2 C  s               0.1       7.6       5.2      16.6       2.7       3.5
 2 C  px              0.0       0.5       2.5       1.1       4.1       1.6
 2 C  py              0.1       2.2       0.5       0.2       1.4       4.7
 2 C  dz2             0.0       0.1       0.1       0.1       0.0       0.0
 2 C  dx2y2           0.0       0.0       0.0       0.1       0.1       0.1
 2 C  dxy             0.0       0.0       0.0       0.0       0.1       0.0
 3 C  s               1.4      21.1       0.2       0.3      10.6       5.4
 3 C  px              0.0       2.3      12.2       0.7       4.5       0.1
 3 C  py              1.6       0.2       0.0       7.8       0.3       3.3
 3 C  dz2             0.0       0.3       0.0       0.0       0.0       0.0
 3 C  dx2y2           0.0       0.1       0.2       0.0       0.3       0.0
 3 C  dxy             0.0       0.0       0.0       0.3       0.0       0.0
 4 C  s              11.8       3.0       4.1       7.8       6.6       0.4
 4 C  px              4.1       0.0       4.4       5.2       0.4       4.3
 4 C  py              5.3       5.9       0.4       0.1       3.6      15.3
 4 C  dz2             0.4       0.0       0.0       0.0       0.0       0.0
 4 C  dx2y2           0.0       0.0       0.0       0.1       0.1       0.0
 4 C  dxy             0.7       0.2       0.0       0.1       0.1       0.1
 5 C  s               0.9       1.8      10.9      15.8       1.3       1.2
 5 C  px              1.4       0.2       0.1       0.9       7.1       3.3
 5 C  py              0.0       0.7       2.1       0.1       1.2       5.5
 5 C  dz2             0.0       0.0       0.1       0.1       0.0       0.0
 5 C  dx2y2           0.0       0.0       0.0       0.1       0.1       0.1
 5 C  dxy             0.0       0.0       0.0       0.0       0.2       0.0
 6 O  s              56.4       2.6       0.2       1.6       1.1       0.0
 6 O  px              0.1       0.1       0.7       3.9       1.7      18.3
 6 O  py              3.7       0.1       0.1       0.5       0.8       0.1
 6 O  dxy             0.0       0.0       0.0       0.1       0.0       0.2
 7 Cl s               0.3      39.4      22.5       1.2      11.2       4.2
 7 Cl px              0.1       2.3       0.2       0.1       1.4       2.3
 7 Cl py              0.0       0.0       0.0       0.0       0.0       0.7
 7 Cl dx2y2           0.0       0.2       0.0       0.0       0.0       0.0
 8 H  s               0.0       0.2       1.7       0.1       4.3       1.8
 9 H  s               0.0       0.3       1.4       2.3       1.6       1.1
10 H  s               0.0       1.2       0.5       3.6       0.5       2.7
11 H  s               0.2       0.2       1.4       3.4       0.4       1.4
12 H  s              11.1       0.4       0.5       1.6       1.2       4.8

                     18        19        20        21        22        23   
                  -0.55586  -0.50309  -0.46007  -0.43006  -0.40509  -0.39144
                   2.00000   2.00000   2.00000   2.00000   2.00000   2.00000
                  --------  --------  --------  --------  --------  --------
 0 C  s               0.0       5.4       0.6       0.9       0.4       0.6
 0 C  px              0.1       9.6       2.6       0.0      13.3       9.0
 0 C  py             13.4       0.0       3.1       9.2       0.6       0.1
 0 C  dx2y2           0.0       0.0       0.0       0.1       0.2       0.0
 0 C  dxy             0.2       0.0       0.1       0.0       0.0       0.1
 1 C  s               7.5       0.7       1.0       1.6       1.1       0.1
 1 C  px              3.9       3.6       0.3      13.1       6.8       0.6
 1 C  py              0.1       0.7      17.9       0.2       1.5       0.7
 1 C  dx2y2           0.0       0.0       0.0       0.1       0.0       0.4
 1 C  dxy             0.0       0.1       0.0       0.1       0.0       0.1
 2 C  s               5.1       0.3       0.2       2.0       0.4       0.1
 2 C  px              7.0       9.4       0.9       3.3       7.9       1.7
 2 C  py              0.1       0.1      12.1       3.5       4.3      16.8
 2 C  dx2y2           0.1       0.0       0.0       0.0       0.5       0.0
 2 C  dxy             0.0       0.0       0.0       0.3       0.0       0.3
 3 C  s               0.0       2.1       0.2       1.7       0.2       1.0
 3 C  px              0.2       2.5       4.6       1.4       6.5       8.4
 3 C  py             14.5       4.2       6.3       4.6       0.1       0.1
 3 C  dx2y2           0.0       0.1       0.0       0.2       0.5       0.0
 3 C  dxy             0.1       0.1       0.1       0.0       0.1       0.2
 4 C  s               4.5       0.1       0.2       0.2       2.6       0.2
 4 C  px              4.4       5.5       1.3       9.5       3.0       1.9
 4 C  py              0.4       5.0       1.4       0.4       1.7       0.2
 4 C  dx2y2           0.1       0.3       0.2       0.1       0.0       0.5
 4 C  dxy             0.0       0.1       0.4       0.3       0.0       0.1
 5 C  s               7.2       1.1       2.8       0.5       0.4       0.1
 5 C  px              3.7       4.3       2.7       6.8       6.9       4.1
 5 C  py              0.4       0.3       5.4       5.7       0.4      16.9
 5 C  dx2y2           0.0       0.0       0.0       0.0       0.5       0.0
 5 C  dxy             0.0       0.2       0.1       0.2       0.0       0.2
 6 O  s               1.4       0.1       1.8       0.7       0.0       0.0
 6 O  px              6.4      16.4       4.4       1.2       1.6       0.1
 6 O  py              4.3       1.8       1.6       9.4       0.3       0.0
 6 O  dx2y2           0.1       0.1       0.0       0.1       0.0       0.0
 6 O  dxy             0.1       0.1       0.0       0.0       0.0       0.0
 7 Cl s               0.0       3.2       1.9       1.4       1.5       1.0
 7 Cl px              0.0       6.7       5.1       9.6      16.1      10.2
 7 Cl py              0.5       0.5       2.2       0.7       0.7       0.0
 7 Cl dx2y2           0.0       0.2       0.0       0.2       0.2       0.0
 8 H  s               0.0       8.1       0.4       0.7       8.3       3.1
 9 H  s               4.1       0.1       7.4       5.5       1.2       0.2
10 H  s               3.2       1.1       3.0       2.4       6.9       9.7
11 H  s               3.9       0.0       6.4       1.6       2.3      10.9
12 H  s               2.7       5.9       1.1       0.4       0.6       0.0

                     24        25        26        27        28        29   
                  -0.38581  -0.34974  -0.33652  -0.31867  -0.30885  -0.30030
                   2.00000   2.00000   2.00000   2.00000   2.00000   2.00000
                  --------  --------  --------  --------  --------  --------
 0 C  s               0.0       0.0       0.2       0.0       0.1       0.0
 0 C  pz              3.3       0.0       0.0       0.4       0.0      23.1
 0 C  px              0.0       0.8       9.6       0.0       4.6       0.0
 0 C  py              0.0      12.5       2.8       0.0       3.1       0.0
 0 C  dx2y2           0.0       0.1       0.7       0.0       0.6       0.0
 0 C  dxy             0.0       0.2       0.4       0.0       0.0       0.0
 1 C  s               0.0       0.1       0.2       0.0       0.0       0.0
 1 C  pz              3.0       0.0       0.0       3.2       0.0      22.2
 1 C  px              0.0       0.8       9.9       0.0       2.9       0.0
 1 C  py              0.0      13.3       4.8       0.0       4.1       0.0
 1 C  dyz             0.0       0.0       0.0       0.0       0.0       0.1
 1 C  dx2y2           0.0       0.0       0.4       0.0       0.2       0.0
 1 C  dxy             0.0       0.3       0.9       0.0       0.1       0.0
 2 C  s               0.0       0.3       0.5       0.0       0.2       0.0
 2 C  pz              6.2       0.0       0.0       8.3       0.0       7.9
 2 C  px              0.0       2.4       7.4       0.0       2.1       0.0
 2 C  py              0.0       0.4       1.4       0.0       4.4       0.0
 2 C  dxz             0.0       0.0       0.0       0.0       0.0       0.2
 2 C  dx2y2           0.0       0.0       0.0       0.0       0.4       0.0
 2 C  dxy             0.0       0.3       0.3       0.0       0.3       0.0
 3 C  s               0.0       0.7       0.1       0.0       0.5       0.0
 3 C  pz             20.3       0.0       0.0      10.3       0.0       0.4
 3 C  px              0.0       0.0       2.0       0.0       0.4       0.0
 3 C  py              0.0       0.5       2.5       0.0       6.9       0.0
 3 C  dxz             0.0       0.0       0.0       0.1       0.0       0.3
 3 C  dyz             0.1       0.0       0.0       0.2       0.0       0.0
 3 C  dx2y2           0.0       0.1       0.4       0.0       0.3       0.0
 3 C  dxy             0.0       0.1       0.0       0.0       0.0       0.0
 4 C  s               0.0       0.1       0.1       0.0       0.2       0.0
 4 C  pz             28.2       0.0       0.0       5.9       0.0       0.0
 4 C  px              0.0       0.2       2.9       0.0       4.2       0.0
 4 C  py              0.0       1.6       0.4       0.0       5.2       0.0
 4 C  dxz             0.0       0.0       0.0       0.0       0.0       0.3
 4 C  dyz             0.0       0.0       0.0       0.6       0.0       0.1
 4 C  dx2y2           0.0       0.5       0.0       0.0       0.8       0.0
 4 C  dxy             0.0       0.0       0.6       0.0       0.4       0.0
 5 C  s               0.0       0.2       0.5       0.0       0.1       0.0
 5 C  pz              7.9       0.0       0.0       0.9       0.0       9.3
 5 C  px              0.0       0.5       5.5       0.0       5.2       0.0
 5 C  py              0.0       8.7       3.2       0.0       2.3       0.0
 5 C  dxz             0.1       0.0       0.0       0.1       0.0       0.1
 5 C  dyz             0.0       0.0       0.0       0.0       0.0       0.1
 5 C  dx2y2           0.0       0.2       0.1       0.0       0.6       0.0
 5 C  dxy             0.0       0.1       0.0       0.0       0.2       0.0
 6 O  s               0.0       6.2       0.2       0.0       2.8       0.0
 6 O  pz             22.1       0.0       0.0      33.9       0.0       7.8
 6 O  px              0.0       5.3       0.1       0.0       3.5       0.0
 6 O  py              0.0      26.7       9.2       0.0      19.9       0.0
 6 O  dyz             0.1       0.0       0.0       0.0       0.0       0.0
 7 Cl s               0.0       0.0       0.1       0.0       0.0       0.0
 7 Cl pz              8.3       0.0       0.0      35.7       0.0      27.8
 7 Cl px              0.0       0.7       4.7       0.0       3.6       0.0
 7 Cl py              0.0       1.5       6.1       0.0       0.5       0.0
 7 Cl dxz             0.1       0.0       0.0       0.1       0.0       0.0
 8 H  s               0.0       1.0       8.7       0.0       4.9       0.0
 9 H  s               0.0       4.2      12.4       0.0       0.3       0.0
10 H  s               0.0       2.0       0.2       0.0       6.2       0.0
11 H  s               0.0       4.7       0.1       0.0       5.6       0.0
12 H  s               0.0       2.5       0.3       0.0       2.0       0.0

                     30        31        32        33        34        35   
                  -0.28835  -0.22950  -0.20194  -0.04445  -0.02847  -0.00062
                   2.00000   2.00000   2.00000   0.00000   0.00000   0.00000
                  --------  --------  --------  --------  --------  --------
 0 C  s               0.0       0.0       0.0       0.0       0.0       1.0
 0 C  pz              0.0      17.3       5.0      20.3      11.6       0.0
 0 C  px              0.2       0.0       0.0       0.0       0.0       0.1
 0 C  py              0.5       0.0       0.0       0.0       0.0       0.0
 0 C  dxz             0.0       0.0       0.0       0.3       0.1       0.0
 0 C  dyz             0.0       0.3       0.5       0.5       1.0       0.0
 1 C  s               0.1       0.0       0.0       0.0       0.0       1.3
 1 C  pz              0.0       1.4      21.1       0.4      30.4       0.0
 1 C  px              1.1       0.0       0.0       0.0       0.0       0.1
 1 C  py              0.6       0.0       0.0       0.0       0.0       0.6
 1 C  dxz             0.0       0.5       0.0       1.1       0.1       0.0
 1 C  dyz             0.0       0.2       0.0       0.5       0.3       0.0
 1 C  dxy             0.1       0.0       0.0       0.0       0.0       0.5
 2 C  s               0.3       0.0       0.0       0.0       0.0       0.6
 2 C  pz              0.0      26.7       0.7      26.0       6.6       0.0
 2 C  px              2.4       0.0       0.0       0.0       0.0       0.1
 2 C  py              0.8       0.0       0.0       0.0       0.0       1.9
 2 C  dxz             0.0       0.0       0.5       0.1       1.3       0.0
 2 C  dyz             0.0       0.1       0.1       0.5       0.0       0.0
 2 C  dx2y2           0.0       0.0       0.0       0.0       0.0       1.4
 2 C  dxy             0.1       0.0       0.0       0.0       0.0       0.6
 3 C  s               0.0       0.0       0.0       0.0       0.0       7.9
 3 C  pz              0.0      10.2      14.4      19.8       6.0       0.0
 3 C  px              0.1       0.0       0.0       0.0       0.0      22.1
 3 C  py              2.4       0.0       0.0       0.0       0.0       0.4
 3 C  dz2             0.0       0.0       0.0       0.0       0.0       0.7
 3 C  dxz             0.0       0.2       0.1       0.2       0.0       0.0
 3 C  dyz             0.0       0.2       0.2       0.5       1.3       0.0
 3 C  dx2y2           0.0       0.0       0.0       0.0       0.0       1.4
 3 C  dxy             0.8       0.0       0.0       0.0       0.0       0.1
 4 C  s               0.5       0.0       0.0       0.0       0.0       0.5
 4 C  pz              0.0       0.2      14.4       0.1      28.5       0.0
 4 C  px              0.5       0.0       0.0       0.0       0.0       0.5
 4 C  py              1.2       0.0       0.0       0.0       0.0       1.4
 4 C  dxz             0.0       0.5       0.2       1.1       0.0       0.0
 4 C  dyz             0.0       0.1       0.8       0.6       0.0       0.0
 4 C  dx2y2           0.0       0.0       0.0       0.0       0.0       0.7
 4 C  dxy             0.0       0.0       0.0       0.0       0.0       1.6
 5 C  s               0.1       0.0       0.0       0.0       0.0       0.9
 5 C  pz              0.0      24.8       8.5      24.6       3.4       0.0
 5 C  px              0.0       0.0       0.0       0.0       0.0       0.2
 5 C  py              0.9       0.0       0.0       0.0       0.0       0.2
 5 C  dxz             0.0       0.1       0.3       0.1       1.4       0.0
 5 C  dyz             0.0       0.1       0.0       0.5       0.1       0.0
 5 C  dxy             0.1       0.0       0.0       0.0       0.0       0.5
 6 O  s               0.0       0.0       0.0       0.0       0.0       0.4
 6 O  pz              0.0       1.7      24.6       0.0       6.7       0.0
 6 O  px              1.6       0.0       0.0       0.0       0.0       0.5
 6 O  py              0.1       0.0       0.0       0.0       0.0       1.1
 6 O  dxz             0.0       0.0       0.0       0.0       0.1       0.0
 6 O  dyz             0.0       0.0       0.0       0.0       0.1       0.0
 7 Cl s               0.0       0.0       0.0       0.0       0.0       3.8
 7 Cl pz              0.0      15.4       8.2       2.1       0.7       0.0
 7 Cl px              1.0       0.0       0.0       0.0       0.0      24.9
 7 Cl py             80.3       0.0       0.0       0.0       0.0       0.4
 7 Cl dz2             0.0       0.0       0.0       0.0       0.0       1.5
 7 Cl dxz             0.0       0.1       0.2       0.8       0.3       0.0
 7 Cl dx2y2           0.0       0.0       0.0       0.0       0.0       5.6
 7 Cl dxy             0.0       0.0       0.0       0.0       0.0       0.2
 8 H  s               0.1       0.0       0.0       0.0       0.0       1.4
 9 H  s               1.3       0.0       0.0       0.0       0.0       3.3
10 H  s               0.2       0.0       0.0       0.0       0.0       6.7
11 H  s               0.7       0.0       0.0       0.0       0.0       2.6
12 H  s               1.2       0.0       0.0       0.0       0.0       0.0

                     36        37        38        39        40        41   
                   0.04542   0.05919   0.08455   0.11045   0.11571   0.12950
                   0.00000   0.00000   0.00000   0.00000   0.00000   0.00000
                  --------  --------  --------  --------  --------  --------
 0 C  s               0.6       2.9       1.0       0.0       1.0       8.1
 0 C  pz              0.0       0.0       0.0      15.5       0.0       0.0
 0 C  px              0.1       7.9       1.6       0.0       1.5       3.6
 0 C  py              0.3       0.1       0.3       0.0       0.1       0.1
 0 C  dz2             0.0       0.0       0.0       0.0       0.0       0.5
 0 C  dxz             0.0       0.0       0.0       0.7       0.0       0.0
 0 C  dx2y2           0.1       1.2       0.0       0.0       0.0       0.5
 0 C  dxy             0.1       0.1       0.1       0.0       0.0       0.0
 1 C  s               0.1       2.4       1.7       0.0       2.5       6.6
 1 C  pz              0.0       0.0       0.0      14.7       0.0       0.0
 1 C  px              0.0       3.3       1.5       0.0       0.3       1.4
 1 C  py              0.0       3.2       2.4       0.0       2.7       1.1
 1 C  dz2             0.0       0.0       0.0       0.0       0.1       0.5
 1 C  dxz             0.0       0.0       0.0       0.2       0.0       0.0
 1 C  dyz             0.0       0.0       0.0       0.4       0.0       0.0
 1 C  dx2y2           0.0       0.4       0.0       0.0       0.2       0.0
 1 C  dxy             0.0       0.6       0.1       0.0       0.0       0.4
 2 C  s               0.1       1.4       2.4       0.0       7.9       1.2
 2 C  pz              0.0       0.0       0.0      13.5       0.0       0.0
 2 C  px              0.1       0.4       1.6       0.0       1.0       0.1
 2 C  py              0.4       0.6       5.6       0.0       3.3       1.0
 2 C  dz2             0.0       0.0       0.0       0.0       0.4       0.1
 2 C  dxz             0.0       0.0       0.0       0.1       0.0       0.0
 2 C  dyz             0.0       0.0       0.0       0.6       0.0       0.0
 2 C  dx2y2           0.0       0.1       0.1       0.0       0.1       0.2
 2 C  dxy             0.0       0.2       0.1       0.0       0.2       0.0
 3 C  s               0.4       0.8       0.7       0.0       1.0       0.1
 3 C  pz              0.0       0.0       0.0      13.5       0.0       0.0
 3 C  px              0.7       5.3       0.2       0.0       0.5       0.1
 3 C  py              0.0       0.1       0.8       0.0       0.5       0.0
 3 C  dz2             0.0       0.1       0.1       0.0       0.2       0.0
 3 C  dxz             0.0       0.0       0.0       0.6       0.0       0.0
 3 C  dx2y2           0.1       0.0       0.2       0.0       0.2       0.0
 3 C  dxy             0.0       0.0       0.3       0.0       0.2       0.0
 4 C  s               0.5       0.5       0.2       0.0       0.1       0.0
 4 C  pz              0.0       0.0       0.0      18.3       0.0       0.0
 4 C  px              0.2       0.2       0.3       0.0       0.8       0.2
 4 C  py              1.5       0.4       0.9       0.0       0.1       0.1
 4 C  dz2             0.2       0.0       0.1       0.0       0.0       0.0
 4 C  dx2y2           0.3       0.1       0.0       0.0       0.0       0.0
 4 C  dxy             0.6       0.0       0.7       0.0       0.3       0.0
 5 C  s               0.3       1.2       2.9       0.0       3.4       2.9
 5 C  pz              0.0       0.0       0.0      16.6       0.0       0.0
 5 C  px              0.5       1.5       0.6       0.0       1.2       1.2
 5 C  py              0.1       1.8       6.6       0.0       2.6       1.3
 5 C  dz2             0.0       0.0       0.0       0.0       0.1       0.1
 5 C  dxz             0.0       0.0       0.0       0.2       0.0       0.0
 5 C  dyz             0.0       0.0       0.0       0.6       0.0       0.0
 5 C  dx2y2           0.1       0.6       0.0       0.0       0.0       0.0
 5 C  dxy             0.4       0.0       0.4       0.0       0.0       0.2
 6 O  s              11.0       0.2       0.1       0.0       0.1       0.1
 6 O  pz              0.0       0.0       0.0       2.1       0.0       0.0
 6 O  px              8.3       0.1       0.5       0.0       0.1       0.2
 6 O  py              1.7       0.0       0.1       0.0       0.6       0.1
 6 O  dyz             0.0       0.0       0.0       0.2       0.0       0.0
 6 O  dx2y2           0.1       0.0       0.0       0.0       0.0       0.0
 7 Cl s               1.6       1.3       0.1       0.0       0.5       0.1
 7 Cl pz              0.0       0.0       0.0       0.6       0.0       0.0
 7 Cl px              0.3       4.1       0.4       0.0       1.0       0.0
 7 Cl py              2.9       0.1       0.1       0.0       0.5       0.1
 7 Cl dz2             0.0       0.5       0.0       0.0       0.1       0.0
 7 Cl dxz             0.0       0.0       0.0       1.3       0.0       0.0
 7 Cl dx2y2           1.7       1.1       0.2       0.0       0.5       0.0
 7 Cl dxy             0.0       0.1       0.1       0.0       0.2       0.0
 8 H  s               1.4      24.5       5.6       0.0       5.7      27.6
 9 H  s               0.1      17.7      11.4       0.0      12.7      20.7
10 H  s               0.8       3.7      22.6       0.0      27.9       5.3
11 H  s               0.4       8.0      23.7       0.0      16.9      13.9
12 H  s              61.9       1.0       1.2       0.0       0.4       0.1

                     42        43        44        45        46        47   
                   0.19621   0.23507   0.25415   0.25783   0.27254   0.31122
                   0.00000   0.00000   0.00000   0.00000   0.00000   0.00000
                  --------  --------  --------  --------  --------  --------
 0 C  s               0.2       0.6       0.0      11.0       1.8       7.2
 0 C  px              0.0       0.5       0.4       4.9       2.1       1.9
 0 C  py              2.5       3.1       5.0       0.2       9.3       0.5
 0 C  dz2             0.0       0.2       0.0       2.5       0.2       0.5
 0 C  dx2y2           0.1       0.3       0.1       2.9       0.5       0.4
 0 C  dxy             0.9       2.0       2.0       0.3       5.0       0.7
 1 C  s               2.2       3.4       5.3       0.1       0.2      11.4
 1 C  px              0.1       2.6       0.3      10.0       2.9       1.3
 1 C  py              0.8       2.2       2.4       4.8       1.4       0.6
 1 C  dz2             0.3       0.6       1.0       0.0       0.0       2.3
 1 C  dx2y2           0.0       0.5       0.0       8.1       0.8       0.4
 1 C  dxy             1.0       0.0       2.3       0.3       0.0       0.5
 2 C  s               0.6       4.3       1.1       6.9       1.2      14.9
 2 C  px              3.6       1.9       6.7       3.5       4.2       1.6
 2 C  py              3.2       1.3       3.3       1.2       1.1       3.9
 2 C  dz2             0.2       1.1       0.2       1.9       0.1       1.0
 2 C  dx2y2           1.2       2.4       1.0       0.6       2.2       0.2
 2 C  dxy             1.5       0.0       4.1       0.7       0.3       0.8
 3 C  s               7.7       0.8       8.6       2.8       7.0      18.0
 3 C  px              0.1       0.5       1.5       2.2       2.7       0.1
 3 C  py              0.9       7.0       7.2       0.8       1.0       1.2
 3 C  dz2             0.8       0.3       1.8       0.3       2.0       2.3
 3 C  dx2y2           1.7       0.6       0.1       0.8       1.5       0.1
 3 C  dxy             0.9       7.3       1.1       0.4       0.0       0.1
 4 C  s              11.1      12.1      18.3       0.6       0.3      11.0
 4 C  px              6.8       1.9       0.4       4.5       4.1       0.6
 4 C  py              7.3       3.7       0.5       1.5       7.1       0.8
 4 C  dz2             4.4       1.6       4.0       0.1       0.0       0.0
 4 C  dx2y2           1.6       0.4       0.0       0.0       3.5       0.1
 4 C  dxy             1.4       1.4       0.3       0.2       1.6       0.4
 5 C  s               2.2       2.8       4.8       0.9      10.7       4.3
 5 C  px              0.3       7.7       3.6       8.6       0.5       0.2
 5 C  py              0.0       1.2       0.7       2.5       3.7       1.8
 5 C  dz2             0.0       0.8       0.9       0.0       2.9       0.3
 5 C  dx2y2           0.5       2.7       0.0       4.4       0.9       0.2
 5 C  dxy             0.9       1.9       0.2       1.1       3.1       0.1
 6 O  s               3.6       0.3       0.8       0.1       0.4       0.5
 6 O  px              9.6       0.1       1.3       0.2       2.3       0.7
 6 O  py              7.0       0.1       0.2       0.1       0.3       1.0
 6 O  dz2             0.0       0.0       0.2       0.0       0.1       0.1
 6 O  dx2y2           0.4       0.0       0.0       0.1       0.8       0.1
 6 O  dxy             0.6       0.2       0.1       0.0       0.2       0.5
 7 Cl s               0.2       0.0       0.1       0.1       1.2       3.1
 7 Cl px              0.4       0.1       0.1       0.4       0.1       0.1
 7 Cl py              0.5       1.1       0.0       0.1       0.1       0.1
 7 Cl dz2             0.1       0.1       0.7       0.0       0.7       0.4
 7 Cl dx2y2           1.0       0.5       0.1       0.7       0.5       0.3
 7 Cl dxy             0.0       9.2       1.7       1.4       0.5       0.0
 8 H  s               0.0       0.4       1.7       2.0       1.8       0.3
 9 H  s               0.4       3.1       1.8       0.6       0.2       0.2
10 H  s               0.4       0.4       0.9       0.3       2.4       0.5
11 H  s               4.3       1.5       0.2       2.1       0.6       0.2
12 H  s               4.5       1.2       1.2       0.1       2.0       0.2

                     48        49        50        51        52        53   
                   0.35571   0.36699   0.39731   0.41085   0.42182   0.43561
                   0.00000   0.00000   0.00000   0.00000   0.00000   0.00000
                  --------  --------  --------  --------  --------  --------
 0 C  s               8.0      14.0       0.1       0.1       0.0       9.7
 0 C  pz              0.0       0.0       0.0       0.0      14.7       0.0
 0 C  px              1.3       0.3       0.6       0.9       0.0       0.0
 0 C  py              1.9       0.4      12.7       1.3       0.0       2.9
 0 C  dz2             0.1       3.9       0.1       0.0       0.0       5.7
 0 C  dx2y2           0.3       0.5       0.2       2.1       0.0       0.0
 0 C  dxy             0.6       0.4       0.5       0.0       0.0       0.0
 1 C  s               1.5      16.1       0.2       2.7       0.0       9.5
 1 C  pz              0.0       0.0       0.0       0.0      15.2       0.0
 1 C  px              0.9       0.5      11.6       0.3       0.0       2.2
 1 C  py              1.4       0.6       4.6       2.6       0.0       2.1
 1 C  dz2             0.3       1.8       0.1       0.4       0.0       6.0
 1 C  dx2y2           0.3       0.2       2.8       0.0       0.0       0.0
 1 C  dxy             0.7       1.0       0.1       2.6       0.0       0.0
 2 C  s               9.6       4.2       0.2       1.5       0.0       3.9
 2 C  pz              0.0       0.0       0.0       0.0      17.3       0.0
 2 C  px              0.4       2.7       9.3       1.0       0.0       8.9
 2 C  py              0.1       1.5       1.5       0.9       0.0       1.3
 2 C  dz2             3.5       1.6       0.2       0.5       0.0       0.0
 2 C  dx2y2           0.2       0.1       0.1       0.8       0.0       0.0
 2 C  dxy             0.5       1.0       0.1       1.0       0.0       0.4
 3 C  s               9.4       5.1       0.9       1.2       0.0       0.7
 3 C  pz              0.0       0.0       0.0       0.0      19.1       0.0
 3 C  px              1.6       0.6       0.7      12.2       0.0       0.3
 3 C  py              1.0       0.2       8.1       0.3       0.0       0.8
 3 C  dz2             0.6       1.1       0.3       0.2       0.0       0.0
 3 C  dx2y2           0.6       0.0       0.0       0.9       0.0       0.1
 3 C  dxy             0.0       0.0       3.0       0.2       0.0       0.1
 4 C  s               6.3       7.0       0.3       2.1       0.0       0.6
 4 C  pz              0.0       0.0       0.0       0.0      17.3       0.0
 4 C  px              0.4       1.1       1.7       3.0       0.0       1.1
 4 C  py              1.8       0.3       2.2       1.2       0.0       1.7
 4 C  dz2             0.0       0.0       0.0       1.4       0.0       0.0
 4 C  dx2y2           0.3       0.0       1.5       0.0       0.0       0.2
 4 C  dxy             0.0       0.1       0.5       0.6       0.0       0.0
 5 C  s              15.5       1.2       0.3       3.0       0.0       5.1
 5 C  pz              0.0       0.0       0.0       0.0      15.2       0.0
 5 C  px              0.1       1.5      10.2       2.5       0.0       5.4
 5 C  py              0.3       0.0       3.0       0.3       0.0       1.9
 5 C  dz2             3.8       0.0       0.2       0.7       0.0       0.0
 5 C  dx2y2           0.3       0.4       0.4       1.7       0.0       0.3
 5 C  dxy             0.0       0.0       2.9       0.3       0.0       0.1
 6 O  s               0.0       0.1       0.2       0.2       0.0       0.2
 6 O  pz              0.0       0.0       0.0       0.0       0.3       0.0
 6 O  px              0.5       0.1       1.6       0.6       0.0       0.0
 6 O  py              0.9       0.4       0.5       0.4       0.0       0.2
 6 O  dz2             0.1       0.2       0.1       0.0       0.0       0.0
 6 O  dx2y2           0.1       0.0       0.3       0.1       0.0       0.0
 6 O  dxy             0.5       0.2       0.0       0.4       0.0       0.1
 7 Cl s               1.3       3.5       0.5      13.8       0.0       3.0
 7 Cl pz              0.0       0.0       0.0       0.0       0.4       0.0
 7 Cl px              0.0       0.0       0.0       0.1       0.0       0.3
[...]
 4 C  py              1.2       0.0       0.1       0.0       1.7       0.7
 4 C  dz2             0.4       0.0       2.8       0.0       0.2       0.1
 4 C  dxz             0.0       0.0       0.0      10.3       0.0       0.0
 4 C  dyz             0.0       0.0       0.0       5.5       0.0       0.0
 4 C  dx2y2           1.1       0.0       1.2       0.0       0.6       2.6
 4 C  dxy             0.0       0.0      20.7       0.0       0.6       0.4
 5 C  s               0.0       0.0       0.0       0.0       2.1       1.6
 5 C  px              1.1       0.0       1.5       0.0       0.8       1.0
 5 C  py              0.5       0.0       0.3       0.0       1.7       0.1
 5 C  dz2             0.0       0.0       0.6       0.0       1.1       2.0
 5 C  dxz             0.0       1.6       0.0      11.6       0.0       0.0
 5 C  dyz             0.0       1.0       0.0       2.3       0.0       0.0
 5 C  dx2y2           0.6       0.0       2.4       0.0       2.5      20.1
 5 C  dxy             4.1       0.0       4.6       0.0      14.1       0.5
 6 O  s               0.2       0.0       0.4       0.0       0.1       0.0
 6 O  px              0.1       0.0       0.8       0.0       0.2       0.0
 6 O  py              0.1       0.0       0.4       0.0       0.0       0.0
 6 O  dz2             1.8       0.0       0.2       0.0       0.0       0.0
 6 O  dxz             0.0      47.6       0.0      16.1       0.0       0.0
 6 O  dyz             0.0      20.7       0.0       7.8       0.0       0.0
 6 O  dx2y2          11.9       0.0       2.0       0.0       0.0       0.3
 6 O  dxy             2.3       0.0       3.8       0.0       0.1       0.0
 7 Cl s               0.4       0.0       0.0       0.0       0.0       0.3
 7 Cl px              0.2       0.0       0.1       0.0       0.0       0.2
 7 Cl dz2             0.1       0.0       0.0       0.0       0.0       0.1
 7 Cl dx2y2           0.1       0.0       0.1       0.0       0.0       0.3
 7 Cl dxy             0.1       0.0       0.0       0.0       0.3       0.0
 8 H  s               0.4       0.0       0.3       0.0       0.0       0.5
 9 H  s               0.5       0.0       1.0       0.0       0.1       0.0
10 H  s               0.3       0.0       0.2       0.0       0.2       0.6
11 H  s               0.1       0.0       0.2       0.0       0.1       0.5
12 H  s               0.0       0.0       0.6       0.0       0.0       0.1

                    120       121       122       123       124       125   
                   2.78057   2.85325   2.86345   3.12506   3.17980   3.43196
                   0.00000   0.00000   0.00000   0.00000   0.00000   0.00000
                  --------  --------  --------  --------  --------  --------
 0 C  s               0.6       0.0       0.0       0.0       1.5       0.4
 0 C  px              0.1       0.0       0.0       0.0       0.2       0.0
 0 C  py              3.3       0.0       0.1       0.8       0.1       0.0
 0 C  dz2             0.2       0.0       0.0       0.0       0.9       0.2
 0 C  dx2y2           3.4       0.0       0.6       1.3       8.8       4.9
 0 C  dxy            14.5       0.0       1.6       0.9       1.5       0.1
 1 C  s               0.0       0.0       0.2       0.1       0.8       0.5
 1 C  px              3.9       0.0       0.3       0.1       0.1       0.0
 1 C  py              2.3       0.0       0.0       0.2       0.0       0.0
 1 C  dz2             0.0       0.0       0.1       0.1       0.5       0.2
 1 C  dx2y2          19.6       0.0       2.1       0.3       1.6       0.3
 1 C  dxy             2.1       0.0       0.6       2.7       9.0       3.5
 2 C  s               0.8       0.0       0.0       0.6       0.8       0.3
 2 C  px              2.7       0.0       0.6       0.4       0.2       0.0
 2 C  py              0.1       0.0       0.1       0.4       0.0       0.0
 2 C  dz2             0.2       0.0       0.0       0.3       0.7       0.1
 2 C  dx2y2          11.8       0.0       2.0       0.0       3.7       2.0
 2 C  dxy             3.4       0.0       0.0       4.4       3.6       2.4
 3 C  s               0.2       0.0       0.2       0.2       0.9       0.4
 3 C  px              0.3       0.0       0.2       0.0       0.1       0.0
 3 C  py              0.5       0.0       0.3       1.8       0.1       0.1
 3 C  dz2             0.0       0.0       0.0       0.1       0.8       0.1
 3 C  dxz             0.0       0.9       0.0       0.0       0.0       0.0
 3 C  dyz             0.0       0.2       0.0       0.0       0.0       0.0
 3 C  dx2y2           2.3       0.0       0.0       0.9       4.1       6.1
 3 C  dxy             1.3       0.0       0.8       7.7       0.4       0.5
 4 C  s               0.0       0.0       0.2       0.5       3.9       0.7
 4 C  pz              0.0       0.4       0.0       0.0       0.0       0.0
 4 C  px              1.0       0.0       0.0       0.3       0.6       1.0
 4 C  py              0.5       0.0       0.3       0.6       0.6       2.0
 4 C  dz2             0.2       0.0       1.8       0.2       2.7       0.3
 4 C  dxz             0.0       6.0       0.0       0.0       0.0       0.0
 4 C  dyz             0.0      12.6       0.0       0.0       0.0       0.0
 4 C  dx2y2           1.1       0.0       0.6      23.1       2.9       2.0
 4 C  dxy             0.1       0.0       0.0       1.6       1.7      16.2
 5 C  s               0.4       0.0       0.1       0.3       0.8       0.4
 5 C  px              0.4       0.0       0.5       1.5       0.3       0.1
 5 C  py              0.7       0.0       0.1       0.0       0.2       0.0
 5 C  dz2             0.0       0.0       0.1       0.1       0.7       0.1
 5 C  dxz             0.0       0.3       0.0       0.0       0.0       0.0
 5 C  dyz             0.0       0.5       0.0       0.0       0.0       0.0
 5 C  dx2y2           4.2       0.0       0.3       4.7       1.2       2.8
 5 C  dxy             0.0       0.0       0.4       2.2       6.3       4.4
 6 O  s               0.1       0.0       2.4       0.1       2.7       2.3
 6 O  pz              0.0       1.0       0.0       0.0       0.0       0.0
 6 O  px              0.4       0.0       2.0       0.0       1.3       1.8
 6 O  py              0.1       0.0       0.9       0.4       0.6       1.4
 6 O  dz2             4.8       0.0      55.9       0.5       9.7       5.2
 6 O  dxz             0.0      22.9       0.0       0.0       0.0       0.0
 6 O  dyz             0.0      54.9       0.0       0.0       0.0       0.0
 6 O  dx2y2           7.1       0.0       7.7      39.4       0.6       5.9
 6 O  dxy             5.1       0.0       9.7       0.2      21.0      29.6
 8 H  s               0.1       0.0       0.1       0.0       0.4       0.2
 9 H  s               0.0       0.0       0.1       0.1       0.4       0.1
10 H  s               0.0       0.0       0.0       0.1       0.3       0.2
11 H  s               0.1       0.0       0.0       0.0       0.2       0.3
12 H  s               0.1       0.0       6.7       0.5       0.0       0.6



                      *****************************
                      * MAYER POPULATION ANALYSIS *
                      *****************************

  NA   - Mulliken gross atomic population
  ZA   - Total nuclear charge
  QA   - Mulliken gross atomic charge
  VA   - Mayer's total valence
  BVA  - Mayer's bonded valence
  FA   - Mayer's free valence

  ATOM       NA         ZA         QA         VA         BVA        FA
  0 C      6.0306     6.0000    -0.0306     3.7787     3.7787     0.0000
  1 C      6.0612     6.0000    -0.0612     3.7867     3.7867    -0.0000
  2 C      6.0980     6.0000    -0.0980     3.9188     3.9188    -0.0000
  3 C      5.9660     6.0000     0.0340     3.7996     3.7996     0.0000
  4 C      5.8089     6.0000     0.1911     4.1292     4.1292     0.0000
  5 C      6.1558     6.0000    -0.1558     3.8420     3.8420     0.0000
  6 O      8.3122     8.0000    -0.3122     2.1888     2.1888    -0.0000
  7 Cl    17.0937    17.0000    -0.0937     1.2049     1.2049     0.0000
  8 H      0.9406     1.0000     0.0594     0.9503     0.9503     0.0000
  9 H      0.9428     1.0000     0.0572     0.9506     0.9506    -0.0000
 10 H      0.9508     1.0000     0.0492     0.9690     0.9690     0.0000
 11 H      0.9462     1.0000     0.0538     0.9669     0.9669     0.0000
 12 H      0.6929     1.0000     0.3071     0.9162     0.9162    -0.0000

  Mayer bond orders larger than 0.100000
B(  0-C ,  1-C ) :   1.3544 B(  0-C ,  5-C ) :   1.3696 B(  0-C ,  8-H ) :   0.9678 
B(  1-C ,  2-C ) :   1.3564 B(  1-C ,  9-H ) :   0.9642 B(  2-C ,  3-C ) :   1.4078 
B(  2-C , 10-H ) :   0.9663 B(  3-C ,  4-C ) :   1.3148 B(  3-C ,  7-Cl) :   0.9479 
B(  4-C ,  5-C ) :   1.3608 B(  4-C ,  6-O ) :   1.2676 B(  5-C , 11-H ) :   0.9640 
B(  6-O , 12-H ) :   0.8054 

-------
TIMINGS
-------

Total SCF time: 0 days 0 hours 0 min 1 sec 

Total time                  ....       1.717 sec
Sum of individual times     ....       1.700 sec  ( 99.0%)

SCF preparation             ....       0.027 sec  (  1.6%)
Fock matrix formation       ....       1.604 sec  ( 93.4%)
  Startup                   ....       0.001 sec  (  0.1% of F)
  Split-RI-J                ....       0.719 sec  ( 44.8% of F)
  XC integration            ....       0.876 sec  ( 54.6% of F)
    XC Preparation          ....       0.000 sec  (  0.0% of XC)
    Basis function eval.    ....       0.367 sec  ( 41.9% of XC)
    Density eval.           ....       0.180 sec  ( 20.6% of XC)
    XC-Functional eval.     ....       0.071 sec  (  8.1% of XC)
    XC-Potential eval.      ....       0.215 sec  ( 24.5% of XC)
Diagonalization             ....       0.000 sec  (  0.0%)
Density matrix formation    ....       0.010 sec  (  0.6%)
Total Energy calculation    ....       0.001 sec  (  0.0%)
Population analysis         ....       0.035 sec  (  2.0%)
Orbital Transformation      ....       0.003 sec  (  0.2%)
Orbital Orthonormalization  ....       0.000 sec  (  0.0%)
DIIS solution               ....       0.016 sec  (  0.9%)
  MO trafo                  ....       0.000 sec  (  0.0 % of DIIS)
  Orb grad                  ....       0.000 sec  (  0.0 % of DIIS)
  Energy W gradient         ....       0.000 sec  (  0.0 % of DIIS)
  DIIS error                ....       0.001 sec  (  9.1 % of DIIS)
  DIIS work                 ....       0.013 sec  ( 78.6 % of DIIS)
  Form Q                    ....       0.000 sec  (  0.0 % of DIIS)
  Form QpQm                 ....       0.000 sec  (  0.0 % of DIIS)
  Exp/Cayley                ....       0.000 sec  (  0.0 % of DIIS)
  Orb update                ....       0.000 sec  (  0.0 % of DIIS)
  Wake-sleep                ....       0.000 sec  (  1.5 % of DIIS)
SOSCF solution              ....       0.004 sec  (  0.3%)
  MO trafo                  ....       0.003 sec  ( 66.8 % of SOSCF)
  Orb grad                  ....       0.000 sec  (  1.1 % of SOSCF)
  Rot update                ....       0.000 sec  (  3.0 % of SOSCF)
  Step                      ....       0.001 sec  ( 28.2 % of SOSCF)
Finished LeanSCF after   1.7 sec

Maximum memory used throughout the entire LEANSCF-calculation: 11.5 MB


-------------------------------------------------------------------------------
                          DFT DISPERSION CORRECTION                            
                                                                               
                                DFTD4 V3.4.0                                   
-------------------------------------------------------------------------------
The PBE functional is recognized
Active option DFTDOPT                   ...         5   

-------------------------   ----------------
Dispersion correction           -0.014765554
-------------------------   ----------------

------------------   -----------------
gCP correction             0.052607548
------------------   -----------------

-------------------------   --------------------
FINAL SINGLE POINT ENERGY      -766.088718273907
-------------------------   --------------------


------------------------------------------------------------------------------
                              ORCA PROPERTY CALCULATIONS
------------------------------------------------------------------------------

GBWName                                 ... sp.gbw
Number of atoms                         ...     13
Number of basis functions               ...    126
Max core memory                         ...   1024 MB

Electric properties:
Dipole moment                           ... YES
Quadrupole moment                       ...  NO
Static polarizability (Dipole/Dipole)   ...  NO
Static polarizability (Dipole/Quad.)    ...  NO
Static polarizability (Quad./Quad.)     ...  NO
Static polarizability (Velocity)        ...  NO

Atomic electric properties:
Dipole moment                           ...  NO
Quadrupole moment                       ...  NO
Static polarizability                   ...  NO

Choice of electric origin               ... Center of mass
Position of electric origin             ...    -0.000013    -0.000013     0.000000

General magnetic properties:
Magnetizability                         ...  NO

EPR properties:
g-Tensor (aka g-matrix)                 ...  NO
Zero-Field splitting spin-orbit         ...  NO
Zero-field splitting spin-spin          ...  NO
Hyperfine couplings                     ...  NO (   0 nuclei)
Quadrupole couplings                    ...  NO (   0 nuclei)
Contact density                         ...  NO (   0 nuclei)

NMR properties:
Chemical shifts                         ...  NO (   0 nuclei)
Spin-rotation constants                 ...  NO (   0 nuclei)
Spin-spin couplings                     ...  NO (   0 nuclei,    0 pairs)

Choice of magnetic origin               ... GIAO
Position of magnetic origin             ...     0.000000     0.000000     0.000000

Properties with geometric perturbations:
SCF Hessian                             ...  NO
IR spectrum                             ...  NO
VCD spectrum                            ...  NO
X-ray spectroscopy properties:
SCF XES/XAS/RIXS spectra                ...  NO


-------------
DIPOLE MOMENT
-------------

Method             : SCF
Type of density    : Electron Density
Multiplicity       :   1
Irrep              :   0
Energy             :  -766.1265602679469566 Eh
Relativity type    : 
Basis              : AO
                                X                 Y                 Z
Electronic contribution:      8.861457349      -0.215566961      -0.000295939
Nuclear contribution   :     -8.907923348      -0.000181890       0.000388460
                        -----------------------------------------
Total Dipole Moment    :     -0.046465999      -0.215748850       0.000092522
                        -----------------------------------------
Magnitude (a.u.)       :      0.220695863
Magnitude (Debye)      :      0.560964303



--------------------
Rotational spectrum 
--------------------
 
Rotational constants in cm-1:             0.100835             0.051476             0.034079 
Rotational constants in MHz :          3022.963553          1543.223126          1021.663721 

Dipole components along the rotational axes: 
x,y,z [a.u.] :    -0.046466    -0.215749     0.000093 
x,y,z [Debye]:    -0.118107    -0.548390     0.000235 

 

Dipole moment calculation done in   0.0 sec 

Maximum memory used throughout the entire PROP-calculation: 7.6 MB

--------------------------------
SUGGESTED CITATIONS FOR THIS RUN
--------------------------------

Below you find a list of papers that are relevant to this ORCA run
We neither can nor want to force you to cite these papers, but we appreciate if you do
You receive ORCA, which is the product of decades of hard work by many enthusiastic individuals, for free
The only thing we kindly ask in return is that you cite our papers,
We deeply appreciate it, if you show your appreciation for ORCA by not just citing the generic ORCA reference.

Please note that relegating all ORCA citations to the supporting information does *not* help us.
SI sections are not indexed - citations you put there will not count into any citation statistics
But we need these citations in order to attract the funding resources that allow us to do what we are doing

Therefore, if you are a happy ORCA user, please consider citing a few of the papers listed below in the main body of your paper

In addition to the list printed below, the program has created the file sp.bibtex that contains the list in bibtex format
You can import this file easily into all common literature databanks and citation aid programs


List of essential papers. We consider these as the minimum necessary citations

  1. Neese,F.
     Software update: the ORCA program system, version 5.0
     WIRES Comput. Molec. Sci., 2022 12(1)e1606
     doi.org/10.1002/wcms.1606

List of papers to cite with high priority. The work reported in these papers was absolutely
necessary for this run to complete.
Our perspective: the developers of density functionals and basis sets usually get cited in chemistry papers
Good! But without the algorithms to do something with them, the functionals or basis sets would not do anything.
Hence, in our opinion, the algorithm design and method developments papers are equally worthy of getting cited

  1. Neese,F.
     An improvement of the resolution of the identity approximation for the formation of the Coulomb matrix
     J. Comp. Chem., 2003 24(14)1740-1747
     doi.org/10.1002/jcc.10318
  2. Neese,F.
     The SHARK Integral Generation and Digestion System
     J. Comp. Chem., 2022  1-16
     doi.org/10.1002/jcc.26942
  3. Caldeweyher,E.; Bannwarth,C.; Grimme,S.
     Extension of the D3 dispersion coefficient model
     J. Chem. Phys., 2017 147 034112
     doi.org/10.1063/1.4993215
  4. Caldeweyher,E.; Ehlert,S.; Hansen,A.; Neugebauer,H.; Spicher,S.; Bannwarth,C.; Grimme,S.
     A generally applicable atomic-charge dependent London dispersion correction
     J. Chem. Phys., 2019 150 154122
     doi.org/10.1063/1.5090222
  5. Caldeweyher,E.; Mewes,J.; Ehlert,S.; Grimme,S.
     Extension and evaluation of the D4 London-dispersion model for periodic systems
     Phys. Chem. Chem. Phys., 2020 22(16)8499-8512
     doi.org/10.1039/D0CP00502A
  6. Wittmann,L.; Gordiy,I.; Friede,M.; Helmich-Paris,B.; Grimme,S.; Hansen,A.; Bursch,M.
     Extension of the D3 and D4 London Dispersion Corrections to the full Actinides Series
     Phys. Chem. Chem. Phys., 2024 26(32)21379-21394
     doi.org/https://doi.org/10.1039/D4CP01514B 

List of suggested additional citations. These are papers that are important in the 'surrounding' of 
of this run, or papers that preceded the highly important papers. If you like your results we are grateful for a citation.

  1. Neese,F.
     The ORCA program system
     WIRES Comput. Molec. Sci., 2012 2(1)73-78
     doi.org/10.1002/wcms.81
  2. Neese,F.
     Software update: the ORCA program system, version 4.0
     WIRES Comput. Molec. Sci., 2018 8(1)1-6
     doi.org/10.1002/wcms.1327
  3. Neese,F.; Wennmohs,F.; Becker,U.; Riplinger,C.
     The ORCA quantum chemistry program package
     J. Chem. Phys., 2020 152 Art. No. L224108
     doi.org/10.1063/5.0004608

List of optional additional citations

  1. Neese,F.
     Approximate second-order SCF convergence for spin unrestricted wavefunctions
     Chem. Phys. Lett., 2000 325(1-3)93-98
     doi.org/10.1016/s0009-2614(00)00662-x

Timings for individual modules:

Sum of individual times          ...        2.218 sec (=   0.037 min)
Startup calculation              ...        0.216 sec (=   0.004 min)   9.7 %
SCF iterations                   ...        1.964 sec (=   0.033 min)  88.6 %
Property calculations            ...        0.037 sec (=   0.001 min)   1.7 %
                             ****ORCA TERMINATED NORMALLY****
TOTAL RUN TIME: 0 days 0 hours 0 minutes 2 seconds 298 msec
