
                                 *****************
                                 * O   R   C   A *
                                 *****************

                                            #,                                       
                                            ###                                      
                                            ####                                     
                                            #####                                    
                                            ######                                   
                                           ########,                                 
                                     ,,################,,,,,                         
                               ,,#################################,,                 
                          ,,##########################################,,             
                       ,#########################################, ''#####,          
                    ,#############################################,,   '####,        
                  ,##################################################,,,,####,       
                ,###########''''           ''''###############################       
              ,#####''   ,,,,##########,,,,          '''####'''          '####       
            ,##' ,,,,###########################,,,                        '##       
           ' ,,###''''                  '''############,,,                           
         ,,##''                                '''############,,,,        ,,,,,,###''
      ,#''                                            '''#######################'''  
     '                                                          ''''####''''         
             ,#######,   #######,   ,#######,      ##                                
            ,#'     '#,  ##    ##  ,#'     '#,    #''#        ,####,   ,####,        
            ##       ##  ##   ,#'  ##            #'  '#       #'       #'  '#        
            ##       ##  #######   ##           ,######,      #####,   #    #        
            '#,     ,#'  ##    ##  '#,     ,#' ,#      #,     #,   #   #,  ,#        
             '#######'   ##     ##  '#######'  #'      '#     '####' # '####'        



                #########################################################
                #                        -***-                          #
                #          Department of theory and spectroscopy        #
                #                                                       #
                #                      Frank Neese                      #
                #                                                       #
                #     Directorship, Architecture, Infrastructure        #
                #                    SHARK, DRIVERS                     #
                #        Core code/Algorithms in most modules           #
                #                                                       #
                #        Max Planck Institute fuer Kohlenforschung      #
                #                Kaiser Wilhelm Platz 1                 #
                #                 D-45470 Muelheim/Ruhr                 #
                #                      Germany                          #
                #                                                       #
                #                  All rights reserved                  #
                #                        -***-                          #
                #########################################################


                         Program Version 6.0.1  -  RELEASE   -


 With contributions from (in alphabetic order):
[Max-Planck-Institut fuer Kohlenforschung]                               
  Daniel Aravena         : Magnetic Suceptibility                        
  Michael Atanasov       : Ab Initio Ligand Field Theory (pilot matlab implementation)
  Alexander A. Auer      : GIAO ZORA, VPT2 properties, NMR spectrum      
  Ute Becker             : All parallelization in ORCA, NUMFREQ, NUMCALC 
  Giovanni Bistoni       : ED, misc. LED, open-shell LED, HFLD           
  Martin Brehm           : Molecular dynamics                            
  Dmytro Bykov           : pre 5.0 version of the SCF Hessian            
  Marcos Casanova-Páez   : Triplet and SCS-CIS(D). UHF-(DLPNO)-IP/EA/STEOM-CCSD. UHF-CVS-IP/STEOM-CCSD   
  Vijay G. Chilkuri      : MRCI spin determinant printing, contributions to CSF-ICE 
  Pauline Colinet        : FMM embedding                                 
  Dipayan Datta          : RHF DLPNO-CCSD density                        
  Achintya Kumar Dutta   : EOM-CC, STEOM-CC                              
  Nicolas Foglia         : Exact transition moments, OPA infrastructure, MCD improvements    
  Dmitry Ganyushin       : Spin-Orbit,Spin-Spin,Magnetic field MRCI      
  Miquel Garcia-Rates    : C-PCM and meta-GGA Hessian, CCSD/C-PCM, Gaussian charge scheme 
  Tiago L. C. Gouveia    : GS-ROHF, GS-ROCIS                             
  Yang Guo               : DLPNO-NEVPT2, F12-NEVPT2, CIM, IAO-localization        
  Andreas Hansen         : Spin unrestricted coupled pair/coupled cluster methods 
  Ingolf Harden          : AUTO-CI MPn and infrastructure                
  Benjamin Helmich-Paris : MC-RPA, TRAH-(SCF,CASSCF), AVAS, COSX integrals, SCF dyn. polar. 
  Lee Huntington         : MR-EOM, pCC                                   
  Robert Izsak           : Overlap fitted RIJCOSX, COSX-SCS-MP3, EOM     
  Riya Kayal             : Wick's Theorem for AUTO-CI, AUTO-CI UHF-CCSDT 
  Emily Kempfer          : AUTO-CI, RHF CISDT and CCSDT                  
  Christian Kollmar      : KDIIS, OOCD, Brueckner-CCSD(T), CCSD density, CASPT2, CASPT2-K, improved NEVPT2 
  Axel Koslowski         : Symmetry handling                             
  Simone Kossmann        : meta-GGA functionals, TD-DFT gradient, OOMP2, (MP2 Hessian; deprecated post 5.0) 
  Lucas Lang             : DCDCAS                                        
  Marvin Lechner         : AUTO-CI (C++ implementation), FIC-MRCC        
  Spencer Leger          : CASSCF response                               
  Dagmar Lenk            : GEPOL surface, SMD, ORCA-2-JSON               
  Dimitrios Liakos       : Extrapolation schemes; Compound Job, initial MDCI parallelization 
  Dimitrios Manganas     : Further ROCIS development; embedding schemes. LFT, Crystal Embedding 
  Dimitrios Pantazis     : SARC Basis sets                               
  Anastasios Papadopoulos: AUTO-CI, single reference methods and gradients 
  Taras Petrenko         : pre 6.0 DFT Hessian and TD-DFT gradient, (ASA, deprecated), ECA, 1-Electron XAS/XES, NRVS 
  Peter Pinski           : DLPNO-MP2, DLPNO-MP2 Gradient                 
  Christoph Reimann      : Effective Core Potentials                     
  Marius Retegan         : Local ZFS, SOC                                
  Christoph Riplinger    : Optimizer, TS searches, QM/MM, DLPNO-CCSD(T), (RO)-DLPNO pert. Triples 
  Michael Roemelt        : Original ROCIS implementation                 
  Masaaki Saitow         : Open-shell DLPNO-CCSD energy and density      
  Barbara Sandhoefer     : DKH picture change effects                    
  Kantharuban Sivalingam : CASSCF convergence/infrastructure, NEVPT2 and variants, FIC-MRCI 
  Bernardo de Souza      : ESD, SOC TD-DFT                               
  Georgi L. Stoychev     : AutoAux, RI-MP2 NMR, DLPNO-MP2 response, X2C  
  Van Anh Tran           : RI-MP2 g-tensors                              
  Willem Van den Heuvel  : Paramagnetic NMR                              
  Zikuan Wang            : NOTCH, Electric field optimization            
  Frank Wennmohs         : Technical directorship and infrastructure     
  Hang Xu                : AUTO-CI-Response properties                   
                                                                         
[FACCTs GmbH]                                                            
  Markus Bursch, Miquel Garcia-Rates, Christoph Riplinger, Bernardo de Souza, Georgi L. Stoychev 
                                                                 
  APM, Basis sets (HGBS, AHGBS, def-TZVP (Ac-Lr), def2-XVPD (La-Lu)), CI-OPT, improved COSX, DLPNO-Multilevel,           
  DOCKER, DRACO, updates on ESD, GOAT, IRC, LR-CPCM, MBIS, meta-GGA TD-DFT gradient, ML-optimized integration grids, 
  MM, NACMEs, nearIR, NEB, NEB-TS, NL-DFT gradient (VV10), 2- and 3-layer-ONIOM, interface openCOSMO-RS, QMMM,   
  Crystal-QMMM, SF, symmetry and pop. for TD-DFT, r2SCAN hybrids, SOLVATOR                                   
                                                                         
[Other institutions]                                                     
  V. Asgeirsson          : NEB                                           
  Christoph Bannwarth    : sTDA-DFT, sTD-DFT, PBEh-3c, B97-3c, D3        
  Sebastian Ehlert       : rSCAN, r2SCAN, r2SCAN-3c, D4, dhf basis sets  
  Marvin Friede          : D4 for Fr, Ra, Ac-Lr                          
  Lars Goerigk           : TD-DFT with DH, B97 family of functionals     
  Stefan Grimme          : VdW corrections, initial TS optimization, DFT functionals, gCP, sTDA/sTD-DF 
  Waldemar Hujo          : DFT-NL                                        
  H. Jonsson             : NEB                                           
  Holger Kruse           : gCP                                           
  Marcel Mueller         : wB97X-3c, vDZP basis set                      
  Hagen Neugebauer       : wr2SCAN                                       
  Tobias Risthaus        : range-separated hybrid DFT                    
  Lukas Wittmann         : regularized MP2, r2SCAN double-hybrids, wr2SCAN        
                                                                         
We gratefully acknowledge several colleagues who have allowed us to      
interface, adapt or use parts of their codes:                            
  Ed Valeev, F. Pavosevic, A. Kumar             : LibInt (2-el integral package), F12 methods 
  Garnet Chan, S. Sharma, J. Yang, R. Olivares  : DMRG                   
  Ulf Ekstrom                                   : XCFun DFT Library      
  Mihaly Kallay                                 : mrcc  (arbitrary order and MRCC methods)
  Frank Weinhold                                : gennbo (NPA and NBO analysis)           
  Simon Mueller                                 : openCOSMO-RS                            
  Christopher J. Cramer and Donald G. Truhlar   : smd solvation model                     
  S Lehtola, MJT Oliveira, MAL Marques          : LibXC Library                           
  Liviu Ungur et al                             : ANISO software                          


 Your calculation uses the libint2 library for the computation of 2-el integrals
 For citations please refer to: http://libint.valeyev.net

 Your ORCA version has been built with support for libXC version: 6.2.2
 For citations please refer to: https://libxc.gitlab.io

 This ORCA versions uses:
   CBLAS   interface :  Fast vector & matrix operations
   LAPACKE interface :  Fast linear algebra routines
   SCALAPACK package :  Parallel linear algebra routines
   Shared memory     :  Shared parallel matrices
   BLAS/LAPACK       :  OpenBLAS 0.3.27  USE64BITINT DYNAMIC_ARCH NO_AFFINITY Zen SINGLE_THREADED
        Core in use  :  Zen
   Copyright (c) 2011-2014, The OpenBLAS Project


Your calculation utilizes the geometrical counterpoise correction gCP
Please cite in your paper:
H.Kruse, S. Grimme J.Chem.Phys., 136, (2012), 154101 
   

Your calculation utilizes the DFT-NL dispersion correction.
Cite in your paper:
Vydrov, O. A.; Van Voorhis, T. J. Chem. Phys. 2010, 133, 244103
Hujo, W.; Grimme, S. J. Chem. Theory Comput. 2011, 7, 3866 
   

================================================================================

----- Orbital basis set information -----
Your calculation utilizes the basis: def2-TZVP
   F. Weigend and R. Ahlrichs, Phys. Chem. Chem. Phys. 7, 3297 (2005).

----- AuxJ basis set information -----
Your calculation utilizes the auxiliary basis: def2/J
   F. Weigend, Phys. Chem. Chem. Phys. 8, 1057 (2006).

================================================================================
                                        WARNINGS
                       Please study these warnings very carefully!
================================================================================

WARNING: Old DensityContainer found on disk!
         Will remove this file - 
         If you want to keep old densities, please start your calculation with a different basename. 


================================================================================
                                       INPUT FILE
================================================================================
NAME = sp.inp
|  1> ! wb97x-v def2-tzvp def2/J RIJCOSX DEFGRID2 scfconv7 GCP(DFT/TZ) printgap
|  2> %output
|  3>     printlevel normal
|  4> end
|  5> * xyz 0 1
|  6> C -1.7244355250721715 0.41031039119861795 0.024388708461092035
|  7> C -0.6175021507306675 -0.6322248008924943 -0.04358312242666721
|  8> S 0.9927130230044938 0.22822517241059578 -0.3472188421829663
|  9> H -1.790089590989301 0.9773075000187348 -0.9089145669358958
| 10> H -2.6880957153452667 -0.08017610432098098 0.19273963368538305
| 11> H -1.5536534486338827 1.1153237269483658 0.8429654438613938
| 12> H -0.8018015544004201 -1.33720282387337 -0.8586102277184712
| 13> H -0.5511006921455143 -1.186997911317101 0.8962086624300124
| 14> H 1.7609078662356679 -0.8749575486125588 -0.38722369140597984
| 15> *
| 16> 
| 17>                          ****END OF INPUT****
================================================================================

                       ****************************
                       * Single Point Calculation *
                       ****************************

---------------------------------
CARTESIAN COORDINATES (ANGSTROEM)
---------------------------------
  C     -1.724436    0.410310    0.024389
  C     -0.617502   -0.632225   -0.043583
  S      0.992713    0.228225   -0.347219
  H     -1.790090    0.977308   -0.908915
  H     -2.688096   -0.080176    0.192740
  H     -1.553653    1.115324    0.842965
  H     -0.801802   -1.337203   -0.858610
  H     -0.551101   -1.186998    0.896209
  H      1.760908   -0.874958   -0.387224

----------------------------
CARTESIAN COORDINATES (A.U.)
----------------------------
  NO LB      ZA    FRAG     MASS         X           Y           Z
   0 C     6.0000    0    12.011   -3.258711    0.775374    0.046088
   1 C     6.0000    0    12.011   -1.166910   -1.194732   -0.082360
   2 S    16.0000    0    32.060    1.875956    0.431283   -0.656149
   3 H     1.0000    0     1.008   -3.382779    1.846844   -1.717600
   4 H     1.0000    0     1.008   -5.079765   -0.151511    0.364225
   5 H     1.0000    0     1.008   -2.935980    2.107656    1.592974
   6 H     1.0000    0     1.008   -1.515185   -2.526947   -1.622538
   7 H     1.0000    0     1.008   -1.041429   -2.243101    1.693589
   8 H     1.0000    0     1.008    3.327634   -1.653430   -0.731747

--------------------------------
INTERNAL COORDINATES (ANGSTROEM)
--------------------------------
 C      0   0   0     0.000000000000     0.00000000     0.00000000
 C      1   0   0     1.522104231573     0.00000000     0.00000000
 S      2   1   0     1.850773274228   108.76015526     0.00000000
 H      1   2   3     1.094006938574   111.13270810    59.77106441
 H      1   2   3     1.094330845142   109.89400047   179.38168814
 H      1   2   3     1.093745031054   111.18400218   299.06878892
 H      2   1   3     1.093265505465   110.63197099   240.41685685
 H      2   1   3     1.093339360234   110.69074742   119.61337238
 H      3   2   1     1.344892494251    96.91949616   181.08122140

---------------------------
INTERNAL COORDINATES (A.U.)
---------------------------
 C      0   0   0     0.000000000000     0.00000000     0.00000000
 C      1   0   0     2.876360144956     0.00000000     0.00000000
 S      2   1   0     3.497454624271   108.76015526     0.00000000
 H      1   2   3     2.067373502515   111.13270810    59.77106441
 H      1   2   3     2.067985597220   109.89400047   179.38168814
 H      1   2   3     2.066878569030   111.18400218   299.06878892
 H      2   1   3     2.065972396992   110.63197099   240.41685685
 H      2   1   3     2.066111962279   110.69074742   119.61337238
 H      3   2   1     2.541478493700    96.91949616   181.08122140

---------------------
BASIS SET INFORMATION
---------------------
There are 3 groups of distinct atoms

 Group   1 Type C   : 11s6p2d1f contracted to 5s3p2d1f pattern {62111/411/11/1}
 Group   2 Type S   : 14s9p3d1f contracted to 5s5p2d1f pattern {73211/51111/21/1}
 Group   3 Type H   : 5s1p contracted to 3s1p pattern {311/1}

Atom   0C    basis set group =>   1
Atom   1C    basis set group =>   1
Atom   2S    basis set group =>   2
Atom   3H    basis set group =>   3
Atom   4H    basis set group =>   3
Atom   5H    basis set group =>   3
Atom   6H    basis set group =>   3
Atom   7H    basis set group =>   3
Atom   8H    basis set group =>   3
---------------------------------
AUXILIARY/J BASIS SET INFORMATION
---------------------------------
There are 3 groups of distinct atoms

 Group   1 Type C   : 12s5p4d2f1g contracted to 6s4p3d1f1g pattern {711111/2111/211/2/1}
 Group   2 Type S   : 14s5p5d2f1g contracted to 8s4p3d1f1g pattern {71111111/2111/311/2/1}
 Group   3 Type H   : 5s2p1d contracted to 3s1p1d pattern {311/2/1}

Atom   0C    basis set group =>   1
Atom   1C    basis set group =>   1
Atom   2S    basis set group =>   2
Atom   3H    basis set group =>   3
Atom   4H    basis set group =>   3
Atom   5H    basis set group =>   3
Atom   6H    basis set group =>   3
Atom   7H    basis set group =>   3
Atom   8H    basis set group =>   3

Checking for AutoStart:
The File: sp.gbw exists
Trying to determine its content:
     ... Fine, the file contains calculation information
     ... Fine, the calculation information was read
     ... Fine, the file contains a basis set
     ... Fine, the basis set was read
     ... Fine, the file contains a geometry
     ... Fine, the geometry was read
     ... Fine, the file contains a set of orbitals
     ... Fine, the orbitals can be read
     => possible old guess file was deleted
     => GBW file was renamed to GES file
     => GES file is set as startup file
     => Guess is set to MORead
     ... now leaving AutoStart

------------------------------------------------------------------------------
                             ORCA STARTUP CALCULATIONS
                           -- RI-GTO INTEGRALS CHOSEN --
------------------------------------------------------------------------------
------------------------------------------------------------------------------
                   ___                                                        
                  /   \      - P O W E R E D   B Y -                         
                 /     \                                                     
                 |  |  |   _    _      __       _____    __    __             
                 |  |  |  | |  | |    /  \     |  _  \  |  |  /  |          
                  \  \/   | |  | |   /    \    | | | |  |  | /  /          
                 / \  \   | |__| |  /  /\  \   | |_| |  |  |/  /          
                |  |  |   |  __  | /  /__\  \  |    /   |      \           
                |  |  |   | |  | | |   __   |  |    \   |  |\   \          
                \     /   | |  | | |  |  |  |  | |\  \  |  | \   \       
                 \___/    |_|  |_| |__|  |__|  |_| \__\ |__|  \__/        
                                                                              
                      - O R C A' S   B I G   F R I E N D -                    
                                      &                                       
                       - I N T E G R A L  F E E D E R -                       
                                                                              
 v1 FN, 2020, v2 2021, v3 2022-2024                                           
------------------------------------------------------------------------------


----------------------
SHARK INTEGRAL PACKAGE
----------------------

Number of atoms                             ...      9
Number of basis functions                   ...    135
Number of shells                            ...     59
Maximum angular momentum                    ...      3
Integral batch strategy                     ... SHARK/LIBINT Hybrid
RI-J (if used) integral strategy            ... SPLIT-RIJ (Revised 2003 algorithm where possible)
Printlevel                                  ...      1
Contraction scheme used                     ... SEGMENTED contraction
Prescreening option                         ... SCHWARTZ
   Thresh                                   ... 3.000e-11
   Tcut                                     ... 1.000e-12
   Tpresel                                  ... 1.000e-12 
Coulomb Range Separation                    ... NOT USED
Exchange Range Separation                   ... Long Range
   Mu parameter                             ... 3.000e-01
   Scaling (regular/separated)              ... 1.670e-01 8.330e-01
Multipole approximations                    ... NOT USED
Finite Nucleus Model                        ... NOT USED
CABS basis                                  ... NOT available
Auxiliary Coulomb fitting basis             ... AVAILABLE
   # of basis functions in Aux-J            ...    215
   # of shells in Aux-J                     ...     77
   Maximum angular momentum in Aux-J        ...      4
Auxiliary J/K fitting basis                 ... NOT available
Auxiliary Correlation fitting basis         ... NOT available
Auxiliary 'external' fitting basis          ... NOT available

Checking pre-screening integrals            ... done (  0.0 sec) Dimension = 59
Check shell pair data                       ... done (  0.0 sec)
Shell pair information
Shell pair cut-off parameter TPreSel        ...   1.0e-12
Total number of shell pairs                 ...      1770
Shell pairs after pre-screening             ...      1732
Total number of primitive shell pairs       ...      5454
Primitive shell pairs kept                  ...      4423
          la=0 lb=0:    539 shell pairs
          la=1 lb=0:    546 shell pairs
          la=1 lb=1:    152 shell pairs
          la=2 lb=0:    198 shell pairs
          la=2 lb=1:    102 shell pairs
          la=2 lb=2:     21 shell pairs
          la=3 lb=0:     99 shell pairs
          la=3 lb=1:     51 shell pairs
          la=3 lb=2:     18 shell pairs
          la=3 lb=3:      6 shell pairs

Calculating one electron integrals          ... done (  0.0 sec)
Calculating RI/J V-Matrix + Cholesky decomp.... done (  0.0 sec)
Calculating Nuclear repulsion               ... done (  0.0 sec) ENN=    106.886393683697 Eh

Diagonalization of the overlap matrix:
Smallest eigenvalue                        ... 5.441e-04
Time for diagonalization                   ...    0.001 sec
Threshold for overlap eigenvalues          ... 1.000e-07
Number of eigenvalues below threshold      ... 0
Time for construction of square roots      ...    0.000 sec
Total time needed                          ...    0.002 sec

-------------------
DFT GRID GENERATION
-------------------

General Integration Accuracy     IntAcc      ... 4.388
Radial Grid Type                 RadialGrid  ... OptM3 with GC (2021)
Angular Grid (max. ang.)         AngularGrid ... 4 (Lebedev-302)
Angular grid pruning method      GridPruning ... 4 (adaptive)
Weight generation scheme         WeightScheme... mBecke (2022)
Basis function cutoff            BFCut       ... 1.0000e-11
Integration weight cutoff        WCut        ... 1.0000e-14
Partially contracted basis set               ... off
Rotationally invariant grid construction     ... off
Angular grids for H and He will be reduced by one unit

Total number of grid points                  ...    38978
Total number of batches                      ...      614
Average number of points per batch           ...       63
Average number of grid points per atom       ...     4331

--------------------
COSX GRID GENERATION
--------------------

GRIDX 1
-------
General Integration Accuracy     IntAcc      ... 3.816
Radial Grid Type                 RadialGrid  ... OptM3 with GC (2021)
Angular Grid (max. ang.)         AngularGrid ... 1 (Lebedev-50)
Angular grid pruning method      GridPruning ... 4 (adaptive)
Weight generation scheme         WeightScheme... mBecke (2022)
Basis function cutoff            BFCut       ... 1.0000e-11
Integration weight cutoff        WCut        ... 1.0000e-14
Partially contracted basis set               ... on
Rotationally invariant grid construction     ... off
Angular grids for H and He will be reduced by one unit

Total number of grid points                  ...     6068
Total number of batches                      ...       52
Average number of points per batch           ...      116
Average number of grid points per atom       ...      674
UseSFitting                                  ... on

GRIDX 2
-------
General Integration Accuracy     IntAcc      ... 4.020
Radial Grid Type                 RadialGrid  ... OptM3 with GC (2021)
Angular Grid (max. ang.)         AngularGrid ... 2 (Lebedev-110)
Angular grid pruning method      GridPruning ... 4 (adaptive)
Weight generation scheme         WeightScheme... mBecke (2022)
Basis function cutoff            BFCut       ... 1.0000e-11
Integration weight cutoff        WCut        ... 1.0000e-14
Partially contracted basis set               ... on
Rotationally invariant grid construction     ... off
Angular grids for H and He will be reduced by one unit

Total number of grid points                  ...    10336
Total number of batches                      ...       84
Average number of points per batch           ...      123
Average number of grid points per atom       ...     1148
UseSFitting                                  ... on

GRIDX 3
-------
General Integration Accuracy     IntAcc      ... 4.338
Radial Grid Type                 RadialGrid  ... OptM3 with GC (2021)
Angular Grid (max. ang.)         AngularGrid ... 3 (Lebedev-194)
Angular grid pruning method      GridPruning ... 4 (adaptive)
Weight generation scheme         WeightScheme... mBecke (2022)
Basis function cutoff            BFCut       ... 1.0000e-11
Integration weight cutoff        WCut        ... 1.0000e-14
Partially contracted basis set               ... on
Rotationally invariant grid construction     ... off
Angular grids for H and He will be reduced by one unit

Total number of grid points                  ...    23284
Total number of batches                      ...      188
Average number of points per batch           ...      123
Average number of grid points per atom       ...     2587
UseSFitting                                  ... on
Initializing property integral containers    ... done (  0.0 sec)

SHARK setup successfully completed in   0.4 seconds

Maximum memory used throughout the entire STARTUP-calculation: 19.7 MB
-------------------------------------------------------------------------------
                                 ORCA GUESS
                   Start orbitals & Density for SCF / CASSCF
-------------------------------------------------------------------------------

------------
SCF SETTINGS
------------
Hamiltonian:
 Density Functional     Method          .... DFT(GTOs)
 Exchange Functional    Exchange        .... WB97X-V
 Correlation Functional Correlation     .... WB97X-V
 Gradients option       PostSCFGGA      .... off
 Hybrid DFT is turned on
   Fraction HF Exchange ScalHFX         ....  0.167000
   Scaling of DF-GGA-X  ScalDFX         ....  0.000000
   Scaling of DF-GGA-C  ScalDFC         ....  1.000000
   Scaling of DF-LDA-C  ScalLDAC        ....  1.000000
   Perturbative correction              ....  0.000000
 Long-range corrected/Screened/Range-Separated Hybrid DFT is turned on
   Amount of maximum screened exact exchange              ....  0.833000
   Range separation parameter mu (erf(mu*r12)/r12)        ....  0.300000
   NL short-range parameter             ....  6.000000
   NL long-range parameter              ....  0.010000
 RI-approximation to the Coulomb term is turned on
   Number of AuxJ basis functions       .... 215
   RIJ-COSX (HFX calculated with COS-X)).... on


General Settings:
 Integral files         IntName         .... sp
 Hartree-Fock type      HFTyp           .... RHF
 Total Charge           Charge          ....    0
 Multiplicity           Mult            ....    1
 Number of Electrons    NEL             ....   34
 Basis Dimension        Dim             ....  135
 Nuclear Repulsion      ENuc            ....    106.8863936837 Eh

Convergence Acceleration:
 AO-DIIS                CNVDIIS         .... on
   Start iteration      DIISMaxIt       ....    12
   Startup error        DIISStart       ....  0.200000
   # of expansion vecs  DIISMaxEq       ....     5
   Bias factor          DIISBfac        ....   1.050
   Max. coefficient     DIISMaxC        ....  10.000
 MO-DIIS                CNVKDIIS        .... off
 Trust-Rad. Augm. Hess. CNVTRAH         .... auto
   Auto Start mean grad. ratio tolernc. ....  1.125000
   Auto Start start iteration           ....     1
   Auto Start num. interpolation iter.  ....    10
   Max. Number of Micro iterations      ....    24
   Max. Number of Macro iterations      .... Maxiter - #DIIS iter
   Number of Davidson start vectors     ....     2
   Converg. threshold    (grad. norm)   ....   1.000e-04
   Grad. Scal. Fac. for Micro threshold ....   0.100
   Minimum threshold for Micro iter.    ....   1.000e-02
   NR start threshold (gradient norm)   ....   1.000e-04
   Initial trust radius                 ....   0.400
   Minimum AH scaling param. (alpha)    ....   1.000
   Maximum AH scaling param. (alpha)    .... 1000.000
   Quad. conv. algorithm                .... NR
   White noise on init. David. guess    .... on
   Maximum white noise                  ....   0.010
   Pseudo random numbers                .... off
   Inactive MOs                         .... canonical
   Orbital update algorithm             .... Taylor
   Preconditioner                       .... Diag
   Full preconditioner red. dimension   ....   250
 SOSCF                  CNVSOSCF        .... on
   Start iteration      SOSCFMaxIt      ....   150
   Startup grad/error   SOSCFStart      ....  0.003300
   Hessian update       SOSCFHessUp     .... L-BFGS
 Level Shifting         CNVShift        .... on
   Level shift para.    LevelShift      ....    0.2500
   Turn off err/grad.   ShiftErr        ....    0.0010
 Zerner damping         CNVZerner       .... off
 Static damping         CNVDamp         .... on
   Fraction old density DampFac         ....    0.7000
   Max. Damping (<1)    DampMax         ....    0.9800
   Min. Damping (>=0)   DampMin         ....    0.0000
   Turn off err/grad.   DampErr         ....    0.1000

SCF Procedure:
 Maximum # iterations   MaxIter         ....   125
 SCF integral mode      SCFMode         .... Direct
   Integral package                     .... SHARK and LIBINT hybrid scheme
 Reset frequency        DirectResetFreq ....    20
 Integral Threshold     Thresh          ....  3.000e-11 Eh
 Primitive CutOff       TCut            ....  1.000e-12 Eh

Convergence Tolerance:
 Convergence Check Mode ConvCheckMode   .... Total+1el-Energy
 Convergence forced     ConvForced      .... 0
 Energy Change          TolE            ....  1.000e-07 Eh
 1-El. energy change                    ....  1.000e-04 Eh
 Orbital Gradient       TolG            ....  1.000e-04
 Orbital Rotation angle TolX            ....  1.000e-04
 DIIS Error             TolErr          ....  1.000e-07

---------------------
INITIAL GUESS: MOREAD
---------------------
Guess MOs are being read from file: sp.ges
Input Geometry matches current geometry (good)
Atom 0: N(Shells)= 11 and 9 - projection required
Input basis set needs projection
NBasis(read)= 95
NBasis(calc)= 135
Basis set overlap was calculated
Using GuessMode=FMatrix for the initial guess
C*T matrix was formed
Effective Fockian was calculated
Effective Fockian was diagonalized
Initial density was built
                      ------------------
                      INITIAL GUESS DONE (   0.0 sec)
                      ------------------
             **** ENERGY FILE WAS UPDATED (sp.en.tmp) ****
Finished Guess after   0.0 sec
Maximum memory used throughout the entire GUESS-calculation: 11.4 MB

-------------------------------------------------------------------------------------------
                                      ORCA LEAN-SCF
                              memory conserving SCF solver
-------------------------------------------------------------------------------------------

----------------------------------------D-I-I-S--------------------------------------------
Iteration    Energy (Eh)           Delta-E    RMSDP     MaxDP     DIISErr   Damp  Time(sec)
-------------------------------------------------------------------------------------------
               ***  Starting incremental Fock matrix formation  ***
    1    -478.0983785751027995     0.00e+00  9.29e-04  1.49e-02  4.52e-02  0.700   1.6
    2    -478.1008186567078724    -2.44e-03  8.17e-04  1.39e-02  3.38e-02  0.700   1.0
                               ***Turning on AO-DIIS***
    3    -478.1026700517479071    -1.85e-03  6.96e-04  1.21e-02  2.45e-02  0.700   1.0
    4    -478.1040386025368321    -1.37e-03  1.77e-03  3.13e-02  1.73e-02  0.000   1.0
                              *** Initializing SOSCF ***
---------------------------------------S-O-S-C-F--------------------------------------
Iteration    Energy (Eh)           Delta-E    RMSDP     MaxDP     MaxGrad    Time(sec)
--------------------------------------------------------------------------------------
    5    -478.1075576748543767    -3.52e-03  9.98e-05  1.70e-03  1.30e-03     1.0
               *** Restarting incremental Fock matrix formation ***
    6    -478.1075550147015178     2.66e-06  4.48e-05  8.80e-04  2.32e-04     1.6
    7    -478.1075572198895429    -2.21e-06  2.36e-05  4.39e-04  8.22e-05     1.3
    8    -478.1075575060638698    -2.86e-07  4.50e-06  1.08e-04  4.01e-05     1.3
    9    -478.1075575484008482    -4.23e-08  1.47e-06  2.25e-05  1.02e-05     1.2
                 **** Energy Check signals convergence ****

               *****************************************************
               *                     SUCCESS                       *
               *           SCF CONVERGED AFTER   9 CYCLES          *
               *****************************************************


------------------
NL GRID GENERATION
------------------

General Integration Accuracy     IntAcc      ... 4.004
Radial Grid Type                 RadialGrid  ... OptM3 with GC (2021)
Angular Grid (max. ang.)         AngularGrid ... 2 (Lebedev-110)
Angular grid pruning method      GridPruning ... 4 (adaptive)
Weight generation scheme         WeightScheme... mBecke (2022)
Basis function cutoff            BFCut       ... 1.0000e-10
Integration weight cutoff        WCut        ... 1.0000e-14
Partially contracted basis set               ... off
Rotationally invariant grid construction     ... off
Angular grids for H and He will be reduced by one unit

Total number of grid points                  ...    11409
Total number of batches                      ...      183
Average number of points per batch           ...       62
Average number of grid points per atom       ...     1268
Final grid set up in    0.0 sec

-------------------------------------------------------------------------------
                    post-SCF DFT-NL dispersion correction                      
-------------------------------------------------------------------------------

SCF Energy:     -478.107557548 
NL    Energy:      0.136294364 
SC+NL Energy:   -477.971263184 
NL done in  :              0.4 sec
-------------------------------------------------------------------------------
Recomputing exchange energy using gridx3       ... done (    2.952 sec)
Old exchange energy                            :    -10.717303086 Eh
New exchange energy                            :    -10.717301192 Eh
Exchange energy change after final integration :      0.000001894 Eh
Total energy after final integration           :   -477.971261290 Eh
             **** ENERGY FILE WAS UPDATED (sp.en.tmp) ****

----------------
TOTAL SCF ENERGY
----------------

Total Energy       :       -477.97126129015419 Eh          -13006.25925 eV

Components:
Nuclear Repulsion  :        106.88639368369745 Eh            2908.52664 eV
Electronic Energy  :       -584.99395123209831 Eh          -15918.49469 eV
One Electron Energy:       -868.38699549829153 Eh          -23630.01147 eV
Two Electron Energy:        283.39304426619321 Eh            7711.51678 eV

Virial components:
Potential Energy   :       -954.82888701764045 Eh          -25982.21493 eV
Kinetic Energy     :        476.85762572748621 Eh           12975.95568 eV
Virial Ratio       :          2.00233536280555

DFT components:
N(Alpha)           :       16.999991283328 electrons
N(Beta)            :       16.999991283328 electrons
N(Total)           :       33.999982566656 electrons
E(X)               :      -26.598437652613 Eh       
E(C)               :       -1.524240573546 Eh       
NL Energy, E(C,NL) :        0.136294364239 Eh       
E(XC)              :      -27.986383861920 Eh       

---------------
SCF CONVERGENCE
---------------

  Last Energy change         ...    4.2337e-08  Tolerance :   1.0000e-07
  Last MAX-Density change    ...    2.2542e-05  Tolerance :   1.0000e-05
  Last RMS-Density change    ...    1.4748e-06  Tolerance :   1.0000e-06
  Last DIIS Error            ...    1.3042e-03  Tolerance :   1.0000e-07
  Last Orbital Gradient      ...    1.0194e-05  Tolerance :   1.0000e-04
  Last Orbital Rotation      ...    1.2274e-05  Tolerance :   1.0000e-04


----------------
ORBITAL ENERGIES
----------------

  NO   OCC          E(Eh)            E(eV) 
   0   2.0000     -88.853020     -2417.8136 
   1   2.0000     -10.307756      -280.4883 
   2   2.0000     -10.272832      -279.5380 
   3   2.0000      -8.031668      -218.5528 
   4   2.0000      -5.987605      -162.9310 
   5   2.0000      -5.983999      -162.8329 
   6   2.0000      -5.978677      -162.6881 
   7   2.0000      -0.934638       -25.4328 
   8   2.0000      -0.833191       -22.6723 
   9   2.0000      -0.727782       -19.8040 
  10   2.0000      -0.578490       -15.7415 
  11   2.0000      -0.570688       -15.5292 
  12   2.0000      -0.501445       -13.6450 
  13   2.0000      -0.472893       -12.8681 
  14   2.0000      -0.468396       -12.7457 
  15   2.0000      -0.425567       -11.5803 
  16   2.0000      -0.339000        -9.2247 
  17   0.0000       0.089728         2.4416 
  18   0.0000       0.132366         3.6019 
  19   0.0000       0.139006         3.7825 
  20   0.0000       0.161756         4.4016 
  21   0.0000       0.170992         4.6529 
  22   0.0000       0.183366         4.9897 
  23   0.0000       0.203464         5.5365 
  24   0.0000       0.244627         6.6566 
  25   0.0000       0.276004         7.5105 
  26   0.0000       0.297446         8.0939 
  27   0.0000       0.309486         8.4215 
*Only the first 10 virtual orbitals were printed.

                    ********************************
                    * MULLIKEN POPULATION ANALYSIS *
                    ********************************

-----------------------
MULLIKEN ATOMIC CHARGES
-----------------------
   0 C :   -0.335739
   1 C :   -0.157699
   2 S :   -0.219707
   3 H :    0.120069
   4 H :    0.113202
   5 H :    0.120086
   6 H :    0.113463
   7 H :    0.113487
   8 H :    0.132839
Sum of atomic charges:   -0.0000000

--------------------------------
MULLIKEN REDUCED ORBITAL CHARGES
--------------------------------
  0 C s       :     3.224444  s :     3.224444
      pz      :     1.066723  p :     3.046802
      px      :     0.983215
      py      :     0.996864
      dz2     :     0.006655  d :     0.061046
      dxz     :     0.005771
      dyz     :     0.023008
      dx2y2   :     0.015641
      dxy     :     0.009972
      f0      :     0.000384  f :     0.003447
      f+1     :     0.000073
      f-1     :     0.000910
      f+2     :    -0.000051
      f-2     :     0.000663
      f+3     :     0.000662
      f-3     :     0.000806

  1 C s       :     3.187317  s :     3.187317
      pz      :     1.020146  p :     2.865531
      px      :     0.865932
      py      :     0.979453
      dz2     :     0.009763  d :     0.100021
      dxz     :     0.017962
      dyz     :     0.026806
      dx2y2   :     0.024376
      dxy     :     0.021113
      f0      :     0.000558  f :     0.004832
      f+1     :     0.000293
      f-1     :     0.000920
      f+2     :     0.000059
      f-2     :     0.000948
      f+3     :     0.001024
      f-3     :     0.001029

  2 S s       :     5.803085  s :     5.803085
      pz      :     3.941863  p :    10.296680
      px      :     3.017661
      py      :     3.337157
      dz2     :     0.018128  d :     0.109950
      dxz     :     0.009678
      dyz     :     0.006140
      dx2y2   :     0.018443
      dxy     :     0.057562
      f0      :     0.000917  f :     0.009992
      f+1     :     0.001854
      f-1     :     0.001435
      f+2     :     0.000293
      f-2     :     0.001088
      f+3     :     0.003142
      f-3     :     0.001263

  3 H s       :     0.859028  s :     0.859028
      pz      :     0.010189  p :     0.020904
      px      :     0.004106
      py      :     0.006609

  4 H s       :     0.865880  s :     0.865880
      pz      :     0.004455  p :     0.020918
      px      :     0.010993
      py      :     0.005469

  5 H s       :     0.859015  s :     0.859015
      pz      :     0.008804  p :     0.020900
      px      :     0.004203
      py      :     0.007893

  6 H s       :     0.865079  s :     0.865079
      pz      :     0.009028  p :     0.021457
      px      :     0.004317
      py      :     0.008112

  7 H s       :     0.865047  s :     0.865047
      pz      :     0.010687  p :     0.021467
      px      :     0.004149
      py      :     0.006631

  8 H s       :     0.843897  s :     0.843897
      pz      :     0.007043  p :     0.023264
      px      :     0.006501
      py      :     0.009719


------------------------
MULLIKEN OVERLAP CHARGES
------------------------
B(  0-C ,  1-C ) :   0.6172 B(  0-C ,  2-S ) :  -0.0985 B(  0-C ,  3-H ) :   0.8178 
B(  0-C ,  4-H ) :   0.7987 B(  0-C ,  5-H ) :   0.8187 B(  0-C ,  6-H ) :  -0.0720 
B(  0-C ,  7-H ) :  -0.0730 B(  1-C ,  2-S ) :   0.6482 B(  1-C ,  3-H ) :  -0.0687 
B(  1-C ,  4-H ) :  -0.0603 B(  1-C ,  5-H ) :  -0.0687 B(  1-C ,  6-H ) :   0.8495 
B(  1-C ,  7-H ) :   0.8492 B(  1-C ,  8-H ) :  -0.0742 B(  2-S ,  6-H ) :  -0.0843 
B(  2-S ,  7-H ) :  -0.0853 B(  2-S ,  8-H ) :   0.6939 B(  3-H ,  5-H ) :  -0.0539 
B(  6-H ,  7-H ) :  -0.0810 


                     *******************************
                     * LOEWDIN POPULATION ANALYSIS *
                     *******************************

----------------------
LOEWDIN ATOMIC CHARGES
----------------------
   0 C :   -0.339239
   1 C :   -0.487038
   2 S :    0.206462
   3 H :    0.118747
   4 H :    0.119769
   5 H :    0.118686
   6 H :    0.116611
   7 H :    0.116465
   8 H :    0.029536

-------------------------------
LOEWDIN REDUCED ORBITAL CHARGES
-------------------------------
  0 C s       :     2.835841  s :     2.835841
      pz      :     1.078392  p :     3.209044
      px      :     1.064998
      py      :     1.065654
      dz2     :     0.035904  d :     0.269115
      dxz     :     0.023474
      dyz     :     0.083842
      dx2y2   :     0.067282
      dxy     :     0.058612
      f0      :     0.002608  f :     0.025239
      f+1     :     0.002765
      f-1     :     0.003542
      f+2     :     0.002474
      f-2     :     0.004000
      f+3     :     0.004258
      f-3     :     0.005593

  1 C s       :     2.858566  s :     2.858566
      pz      :     1.076384  p :     3.178871
      px      :     1.030127
      py      :     1.072360
      dz2     :     0.049763  d :     0.415206
      dxz     :     0.068788
      dyz     :     0.106567
      dx2y2   :     0.090914
      dxy     :     0.099174
      f0      :     0.003871  f :     0.034395
      f+1     :     0.003674
      f-1     :     0.003798
      f+2     :     0.003668
      f-2     :     0.005529
      f+3     :     0.006742
      f-3     :     0.007114

  2 S s       :     5.382657  s :     5.382657
      pz      :     3.852059  p :    10.207282
      px      :     3.005538
      py      :     3.349685
      dz2     :     0.027956  d :     0.178618
      dxz     :     0.020943
      dyz     :     0.009688
      dx2y2   :     0.031394
      dxy     :     0.088637
      f0      :     0.001707  f :     0.024981
      f+1     :     0.003317
      f-1     :     0.002273
      f+2     :     0.001018
      f-2     :     0.002807
      f+3     :     0.009770
      f-3     :     0.004088

  3 H s       :     0.820431  s :     0.820431
      pz      :     0.029615  p :     0.060822
      px      :     0.012611
      py      :     0.018596

  4 H s       :     0.819777  s :     0.819777
      pz      :     0.013838  p :     0.060454
      px      :     0.029306
      py      :     0.017310

  5 H s       :     0.820459  s :     0.820459
      pz      :     0.025758  p :     0.060854
      px      :     0.013218
      py      :     0.021878

  6 H s       :     0.822020  s :     0.822020
      pz      :     0.026259  p :     0.061369
      px      :     0.013196
      py      :     0.021914

  7 H s       :     0.822170  s :     0.822170
      pz      :     0.030952  p :     0.061365
      px      :     0.012197
      py      :     0.018216

  8 H s       :     0.895662  s :     0.895662
      pz      :     0.020108  p :     0.074802
      px      :     0.018067
      py      :     0.036627


---------------------------------
LOEWDIN BOND ORDERS (THRESH 0.050000)
---------------------------------
B(  0-C ,  1-C ) :   1.3458 B(  0-C ,  2-S ) :   0.1470 B(  0-C ,  3-H ) :   0.9089 
B(  0-C ,  4-H ) :   0.9036 B(  0-C ,  5-H ) :   0.9092 B(  0-C ,  6-H ) :   0.0787 
B(  0-C ,  7-H ) :   0.0786 B(  1-C ,  2-S ) :   1.4335 B(  1-C ,  3-H ) :   0.0792 
B(  1-C ,  4-H ) :   0.0828 B(  1-C ,  5-H ) :   0.0792 B(  1-C ,  6-H ) :   0.8917 
B(  1-C ,  7-H ) :   0.8918 B(  1-C ,  8-H ) :   0.0661 B(  2-S ,  6-H ) :   0.0546 
B(  2-S ,  7-H ) :   0.0547 B(  2-S ,  8-H ) :   1.0400 

------------------------------------------
LOEWDIN REDUCED ORBITAL POPULATIONS PER MO
-------------------------------------------
THRESHOLD FOR PRINTING IS 0.1%%
                      0         1         2         3         4         5   
                 -88.85302 -10.30776 -10.27283  -8.03167  -5.98760  -5.98400
                   2.00000   2.00000   2.00000   2.00000   2.00000   2.00000
                  --------  --------  --------  --------  --------  --------
 0 C  s               0.0       0.0      99.4       0.0       0.0       0.0
 0 C  dxy             0.0       0.1       0.0       0.0       0.0       0.0
 1 C  s               0.0      99.4       0.0       0.0       0.0       0.0
 1 C  px              0.0       0.0       0.0       0.1       0.0       0.0
 1 C  dxy             0.0       0.0       0.1       0.0       0.0       0.0
 2 S  s             100.0       0.0       0.0      99.6       0.0       0.0
 2 S  pz              0.0       0.0       0.0       0.0       2.0       0.8
 2 S  px              0.0       0.0       0.0       0.0      96.3       1.4
 2 S  py              0.0       0.0       0.0       0.0       1.7      97.8

                      6         7         8         9        10        11   
                  -5.97868  -0.93464  -0.83319  -0.72778  -0.57849  -0.57069
                   2.00000   2.00000   2.00000   2.00000   2.00000   2.00000
                  --------  --------  --------  --------  --------  --------
 0 C  s               0.0      16.4      17.7       7.6       0.0       0.1
 0 C  pz              0.0       0.0       0.0       0.0      23.9       1.0
 0 C  px              0.0       2.8       0.8       3.3       0.7      20.2
 0 C  py              0.0       1.5       0.0       7.1       0.2       4.7
 0 C  dz2             0.0       0.2       0.0       0.3       0.0       0.1
 0 C  dxz             0.0       0.0       0.0       0.0       0.5       0.0
 0 C  dxy             0.0       0.6       0.0       1.0       0.0       0.3
 1 C  s               0.0      28.2       0.1      14.5       0.0       0.2
 1 C  pz              0.0       0.0       0.3       0.1      35.1       0.6
 1 C  px              0.0       0.2      16.5       0.1       0.8       2.2
 1 C  py              0.0       2.2       0.2       9.8       0.4      17.4
 1 C  dz2             0.0       0.4       0.0       0.8       0.0       0.2
 1 C  dxz             0.0       0.0       0.1       0.1       0.1       0.0
 1 C  dyz             0.0       0.0       0.0       0.0       0.1       0.0
 1 C  dx2y2           0.0       0.1       0.3       0.3       0.0       0.6
 1 C  dxy             0.0       0.0       2.4       0.0       0.0       0.2
 1 C  f-3             0.0       0.1       0.0       0.0       0.0       0.0
 2 S  s               0.0      16.0      31.4      10.2       0.0       0.1
 2 S  pz             97.2       0.1       0.0       0.1       3.3       0.1
 2 S  px              2.3       2.0       0.8       4.0       0.0      16.4
 2 S  py              0.5       0.8       0.6       0.7       0.1       5.3
 2 S  dz2             0.0       0.2       0.0       0.1       0.1       0.0
 2 S  dxz             0.0       0.1       0.0       0.0       0.5       0.0
 2 S  dyz             0.0       0.0       0.0       0.0       0.1       0.0
 2 S  dx2y2           0.0       0.2       0.1       0.1       0.0       0.8
 2 S  dxy             0.0       0.3       0.0       1.1       0.0       0.6
 3 H  s               0.0       3.3       4.7       5.0       6.0       0.7
 3 H  pz              0.0       0.2       0.3       0.4       0.0       0.0
 3 H  px              0.0       0.0       0.0       0.0       0.0       0.2
 3 H  py              0.0       0.1       0.1       0.0       0.2       0.0
 4 H  s               0.0       3.2       5.7       3.4       0.0      12.0
 4 H  pz              0.0       0.0       0.0       0.0       0.2       0.0
 4 H  px              0.0       0.2       0.4       0.1       0.0       0.3
 4 H  py              0.0       0.0       0.1       0.2       0.0       0.1
 5 H  s               0.0       3.3       4.8       4.9       6.4       0.4
 5 H  pz              0.0       0.1       0.3       0.3       0.0       0.1
 5 H  px              0.0       0.0       0.0       0.1       0.0       0.2
 5 H  py              0.0       0.1       0.2       0.1       0.3       0.0
 6 H  s               0.0       5.8       0.0       8.8      10.0       1.7
 6 H  pz              0.0       0.2       0.0       0.6       0.0       0.2
 6 H  py              0.0       0.2       0.0       0.2       0.4       0.0
 7 H  s               0.0       5.8       0.0       8.8       9.5       2.2
 7 H  pz              0.0       0.3       0.0       0.7       0.1       0.1
 7 H  py              0.0       0.2       0.0       0.1       0.4       0.0
 8 H  s               0.0       3.5      10.2       4.4       0.0      10.2
 8 H  px              0.0       0.2       0.4       0.1       0.0       0.0
 8 H  py              0.0       0.2       0.7       0.3       0.0       0.2

                     12        13        14        15        16        17   
                  -0.50144  -0.47289  -0.46840  -0.42557  -0.33900   0.08973
                   2.00000   2.00000   2.00000   2.00000   2.00000   0.00000
                  --------  --------  --------  --------  --------  --------
 0 C  s               0.1       0.0       0.4       0.1       0.0       2.8
 0 C  pz              0.2      27.6       1.2       0.1       0.0       0.0
 0 C  px              0.2       1.3      22.8       1.1       0.0       0.9
 0 C  py             36.8       0.1       0.3       2.5       0.0       0.2
 0 C  dz2             0.9       0.0       0.1       0.1       0.0       0.1
 0 C  dxz             0.1       0.4       0.1       0.1       0.0       0.0
 0 C  dyz             0.0       3.9       0.0       0.0       0.3       0.0
 0 C  dx2y2           0.6       0.1       0.8       1.5       0.0       0.0
 0 C  dxy             0.0       0.0       0.8       0.0       0.0       2.0
 0 C  f-2             0.0       0.1       0.0       0.0       0.0       0.0
 0 C  f-3             0.1       0.0       0.0       0.1       0.0       0.0
 1 C  s               0.0       0.0       0.2       0.3       0.0       5.8
 1 C  pz              0.0      14.5       0.6       0.4       2.3       0.1
 1 C  px              9.9       0.7      13.5       7.4       0.1       1.8
 1 C  py             11.3       0.0       2.5       9.7       0.0       1.2
 1 C  dz2             0.3       0.0       0.0       0.4       0.3       0.0
 1 C  dxz             0.1       1.0       0.1       0.1       1.9       0.0
 1 C  dyz             0.0       3.2       0.0       0.0       1.9       0.0
 1 C  dx2y2           0.7       0.1       0.2       2.1       0.0       0.3
 1 C  dxy             0.1       0.0       1.9       0.1       0.1       1.1
 1 C  f-2             0.0       0.2       0.0       0.0       0.0       0.0
 1 C  f+3             0.1       0.0       0.2       0.0       0.0       0.0
 1 C  f-3             0.1       0.0       0.0       0.0       0.0       0.0
 2 S  s               2.8       0.0       2.4       6.6       0.0       1.1
 2 S  pz              0.1       3.3       0.1       0.9      84.6       0.3
 2 S  px              0.1       0.0      14.5      10.4       2.0      15.3
 2 S  py              9.6       0.1       8.0      41.9       0.4       1.4
 2 S  dz2             0.1       0.0       0.3       0.5       0.0       0.0
 2 S  dxz             0.0       0.1       0.0       0.1       0.2       0.3
 2 S  dyz             0.0       0.2       0.0       0.0       0.0       0.2
 2 S  dx2y2           0.2       0.0       0.1       0.1       0.0       2.9
 2 S  dxy             0.0       0.0       2.3       0.0       0.0      12.1
 2 S  f+1             0.0       0.0       0.0       0.0       0.0       0.2
 2 S  f+3             0.0       0.0       0.3       0.1       0.0       0.1
 3 H  s               7.2      12.7       0.4       0.8       0.1       4.0
 3 H  pz              0.4       0.0       0.0       0.0       0.0       0.4
 3 H  px              0.0       0.0       0.3       0.0       0.0       0.1
 3 H  py              0.1       0.3       0.0       0.0       0.0       0.1
 4 H  s               3.7       0.1      10.6       2.4       0.0       4.7
 4 H  pz              0.0       0.4       0.0       0.0       0.0       0.0
 4 H  px              0.3       0.0       0.0       0.0       0.0       0.3
 4 H  py              0.2       0.0       0.2       0.0       0.0       0.3
 5 H  s               7.2      13.1       0.1       0.8       0.1       4.0
 5 H  pz              0.4       0.0       0.0       0.0       0.0       0.3
 5 H  px              0.0       0.0       0.3       0.0       0.0       0.2
 5 H  py              0.0       0.3       0.0       0.0       0.0       0.1
 6 H  s               2.0       7.2       0.4       2.9       2.2       8.2
 6 H  pz              0.1       0.0       0.0       0.1       0.0       0.4
 6 H  px              0.2       0.0       0.2       0.1       0.0       0.2
 6 H  py              0.0       0.2       0.0       0.0       0.0       0.4
 7 H  s               1.9       7.8       0.0       2.8       2.3       7.9
 7 H  pz              0.1       0.0       0.0       0.1       0.0       0.7
 7 H  px              0.1       0.0       0.2       0.2       0.0       0.1
 7 H  py              0.0       0.1       0.0       0.1       0.0       0.3
 8 H  s               1.0       0.1      13.1       2.2       0.0      14.4
 8 H  pz              0.0       0.0       0.0       0.0       0.9       0.0
 8 H  px              0.0       0.0       0.0       0.2       0.0       0.3
 8 H  py              0.0       0.0       0.1       0.1       0.0       2.0

                     18        19        20        21        22        23   
                   0.13237   0.13901   0.16176   0.17099   0.18337   0.20346
                   0.00000   0.00000   0.00000   0.00000   0.00000   0.00000
                  --------  --------  --------  --------  --------  --------
 0 C  s               0.3       8.0       2.2       0.0       0.0       0.0
 0 C  pz              0.0       0.1       0.0       6.6       0.4      10.5
 0 C  px              0.1       5.3       0.6       0.2       6.0       0.2
 0 C  py              0.6       0.3       8.0       0.1       6.8       0.1
 0 C  dz2             0.7       0.3       1.4       0.0       5.0       0.6
 0 C  dxz             0.1       0.0       0.0       2.0       0.5       3.3
 0 C  dyz             0.0       0.1       0.0       1.5       0.2       5.4
 0 C  dx2y2           2.0       0.4       0.6       0.1       0.3       0.0
 0 C  dxy             0.0       0.2       0.5       0.0       1.3       0.2
 0 C  f-3             0.1       0.2       0.0       0.0       0.0       0.0
 1 C  s               2.6       0.5       5.1       0.0       0.2       0.0
 1 C  pz              0.3       0.1       0.2      12.7       0.3       1.1
 1 C  px              9.8       2.5       2.0       0.3       4.2       0.0
 1 C  py              1.3       5.5       5.2       0.1       4.7       0.0
 1 C  dz2             0.3       3.6       1.2       0.1       1.2       0.1
 1 C  dxz             0.2       0.2       0.2       0.0       0.0       2.4
 1 C  dyz             0.1       0.1       0.1       5.6       0.2       0.0
 1 C  dx2y2           1.7       0.0       0.0       0.0       1.8       0.0
 1 C  dxy             2.5       0.1       1.7       0.1       0.5       0.0
 1 C  f-1             0.0       0.0       0.1       0.0       0.0       0.0
 1 C  f-3             0.1       0.0       0.1       0.0       0.1       0.0
 2 S  s              10.2       0.5       0.0       0.0       0.8       0.0
 2 S  pz              0.3       0.2       0.1       1.5       0.0       1.1
 2 S  px              7.2      11.0       3.2       0.0       0.2       0.0
 2 S  py             10.8       1.2       1.2       0.0       0.0       0.0
 2 S  dz2             5.3       0.3       1.2       0.2       1.4       0.2
 2 S  dxz             0.7       0.1       0.0       2.8       0.1       4.3
 2 S  dyz             0.1       0.0       0.0       0.0       0.0       0.2
 2 S  dx2y2           0.6       4.6       0.9       0.0       1.0       0.1
 2 S  dxy             0.6       4.3       2.1       0.0       0.5       0.0
 2 S  f-1             0.2       0.0       0.1       0.0       0.0       0.0
 2 S  f+2             0.0       0.0       0.0       0.1       0.0       0.0
 2 S  f-3             0.4       0.1       0.0       0.0       0.0       0.0
 3 H  s               0.9      12.0       4.8       3.8       9.2      27.0
 3 H  pz              0.1       1.3       0.3       0.2       1.1       1.1
 3 H  px              0.0       0.0       0.0       0.1       0.5       0.0
 3 H  py              0.0       0.2       0.4       0.3       0.0       1.6
 4 H  s               1.2      14.5       1.8       0.0      36.3       0.0
 4 H  pz              0.0       0.0       0.0       0.0       0.1       1.4
 4 H  px              0.1       1.5       0.2       0.0       2.8       0.0
 4 H  py              0.1       0.3       0.1       0.0       0.4       0.0
 5 H  s               0.8      12.4       4.4       4.7       8.2      27.0
 5 H  pz              0.1       1.1       0.2       0.2       1.3       0.6
 5 H  px              0.0       0.0       0.0       0.0       0.1       0.2
 5 H  py              0.0       0.4       0.5       0.4       0.0       1.9
 6 H  s               0.1       1.2      19.2      26.2       0.1       4.0
 6 H  pz              0.0       0.3       2.2       0.5       0.1       0.0
 6 H  px              0.5       0.0       0.0       0.1       0.0       0.2
 6 H  py              0.1       0.1       0.4       2.0       0.1       0.2
 7 H  s               0.2       1.4      21.1      24.3       0.0       4.0
 7 H  pz              0.1       0.2       2.3       0.9       0.0       0.1
 7 H  px              0.5       0.1       0.3       0.0       0.0       0.1
 7 H  py              0.1       0.1       0.2       1.6       0.1       0.1
 8 H  s              30.7       1.8       3.0       0.0       1.4       0.0
 8 H  pz              0.0       0.0       0.0       0.1       0.0       0.1
 8 H  px              2.6       0.0       0.0       0.0       0.0       0.0
 8 H  py              2.1       0.8       0.2       0.0       0.2       0.0

                     24        25        26        27        28        29   
                   0.24463   0.27600   0.29745   0.30949   0.31777   0.34025
                   0.00000   0.00000   0.00000   0.00000   0.00000   0.00000
                  --------  --------  --------  --------  --------  --------
 0 C  s               0.2       0.5       0.5       0.0       0.5       0.6
 0 C  pz              0.1       0.0       0.0      59.3       0.1       0.6
 0 C  px             15.2       9.0      10.1       0.8       0.4      15.1
 0 C  py              7.7      26.2       0.0       0.3       3.1      14.7
 0 C  dz2             2.0       2.3       0.0       0.6       0.7       5.4
 0 C  dxz             0.0       0.0       0.0       2.2       0.2       0.3
 0 C  dyz             0.1       0.0       0.0       7.2       0.0       0.3
 0 C  dx2y2           0.1       0.0       0.1       0.0       3.5       0.4
 0 C  dxy            10.2       3.2       0.5       0.3       0.0       0.8
 0 C  f+1             0.0       0.1       0.0       0.0       0.0       0.1
 0 C  f+2             0.0       0.0       0.0       0.2       0.0       0.0
 1 C  s               0.4       0.4       1.8       0.0       0.5       7.3
 1 C  pz              0.0       0.0       1.1       0.3       0.3       0.0
 1 C  px              8.1       3.1      31.3       0.0       6.1       1.4
 1 C  py              7.5      31.4       7.1       0.0       7.3       0.3
 1 C  dz2             3.6       3.7       0.5       0.0       4.7       0.0
 1 C  dxz             0.1       0.1       0.1       1.0       0.7       0.0
 1 C  dyz             0.0       0.0       0.1       1.9       0.2       0.0
 1 C  dx2y2           0.1       0.1       0.1       0.1       1.8       0.0
 1 C  dxy             8.2       1.4       3.4       0.0       1.5       1.1
 2 S  s               0.3       0.6       0.2       0.0       0.5       2.6
 2 S  pz              0.0       0.0       0.1       1.7       0.3       0.5
 2 S  px              2.6       1.1       0.7       0.1      12.1       7.3
 2 S  py              6.4       0.1       1.7       0.0       2.1      22.3
 2 S  dz2             1.1       0.7      13.5       0.0       4.7       5.7
 2 S  dxz             0.0       0.0       1.7       1.1       0.1       0.2
 2 S  dyz             0.3       0.2       0.0       3.1       0.0       0.3
 2 S  dx2y2           4.5       1.3       5.8       0.2       0.5       1.9
 2 S  dxy             2.1       1.8       0.4       0.1       7.0       0.3
 2 S  f-1             0.0       0.0       0.1       0.0       0.1       0.1
 2 S  f+3             0.1       0.0       0.0       0.0       0.3       0.1
 2 S  f-3             0.1       0.0       0.4       0.0       0.0       0.2
 3 H  s               1.8       1.5       1.0       6.2       1.0       0.7
 3 H  pz              0.5       0.1       0.1       0.2       0.0       0.3
 3 H  px              0.6       0.3       0.0       0.0       0.0       0.5
 3 H  py              0.0       0.2       0.1       0.1       0.0       0.2
 4 H  s               2.7       0.8       7.9       0.0       2.5       2.7
 4 H  pz              0.0       0.0       0.0       1.2       0.0       0.0
 4 H  px              0.0       0.1       0.8       0.0       0.4       0.0
 4 H  py              1.3       0.4       0.0       0.0       0.4       0.0
 5 H  s               1.9       1.5       1.0       6.0       1.0       0.8
 5 H  pz              0.3       0.0       0.1       0.2       0.1       0.6
 5 H  px              0.9       0.4       0.0       0.0       0.0       0.3
 5 H  py              0.0       0.2       0.2       0.1       0.0       0.1
 6 H  s               1.6       2.5       0.5       1.6       2.1       0.6
 6 H  pz              0.3       0.0       0.0       0.1       0.6       0.1
 6 H  px              0.7       0.1       0.3       0.3       0.1       0.1
 6 H  py              0.1       0.4       0.1       0.5       0.0       0.2
 7 H  s               1.7       2.3       0.4       1.6       2.1       0.5
 7 H  pz              0.5       0.0       0.0       0.1       0.5       0.2
 7 H  px              0.5       0.1       0.3       0.3       0.3       0.0
 7 H  py              0.2       0.4       0.1       0.4       0.0       0.1
 8 H  s               2.0       0.7       4.0       0.0      28.5       1.3
 8 H  pz              0.0       0.0       0.0       0.2       0.0       0.0
 8 H  px              1.1       0.5       0.7       0.0       0.0       0.0
 8 H  py              0.0       0.0       0.3       0.0       0.2       0.7

                     30        31        32        33        34        35   
                   0.35377   0.37927   0.40022   0.45093   0.46676   0.48722
                   0.00000   0.00000   0.00000   0.00000   0.00000   0.00000
                  --------  --------  --------  --------  --------  --------
 0 C  s               0.0       1.3       0.0       0.2      16.7       8.7
 0 C  pz              0.8       0.2       0.3       2.5       0.0       0.0
 0 C  px              0.0       7.1       0.0       0.0       3.0       1.4
 0 C  py              0.0       5.2       0.0       0.0       1.1      10.8
 0 C  dz2             0.1       1.0       0.0       0.2       1.3       0.7
 0 C  dxz             3.0       0.2       1.0       0.8       0.0       0.1
 0 C  dyz             0.5       0.1       1.3       0.2       0.0       0.0
 0 C  dx2y2           0.1       0.1       0.0       0.0       0.7       1.3
 0 C  dxy             0.0       3.2       0.0       0.0       0.9       2.5
 0 C  f+3             0.0       0.0       0.0       0.0       0.1       0.1
 0 C  f-3             0.0       0.1       0.0       0.0       0.0       0.1
 1 C  s               0.0       2.9       0.0       0.0      20.0      16.9
 1 C  pz             37.2       0.0       2.7       0.8       0.0       0.2
 1 C  px              0.8       0.5       0.1       0.0       3.6       0.6
 1 C  py              0.2       0.3       0.0       0.0       4.9      14.7
 1 C  dz2             0.6       0.0       0.0       0.1       0.1       2.2
 1 C  dxz             1.5       0.1       1.4       1.4       0.0       0.3
 1 C  dyz             7.2       0.0       0.9       0.0       0.1       0.0
 1 C  dx2y2           0.0       1.1       0.1       0.0       4.4       1.8
 1 C  dxy             0.2       0.5       0.0       0.0       0.0       1.1
 1 C  f+1             0.0       0.1       0.0       0.0       0.0       0.1
 1 C  f+2             0.2       0.0       0.0       0.4       0.0       0.0
 1 C  f-2             0.0       0.0       0.1       0.1       0.0       0.0
 1 C  f+3             0.0       0.0       0.0       0.0       0.3       0.0
 1 C  f-3             0.0       0.0       0.0       0.0       0.0       0.2
 2 S  s               0.0       0.9       0.0       0.0       0.8       1.8
 2 S  pz              1.9       0.6      78.8       3.8       0.2       0.3
 2 S  px              0.0      10.6       1.6       0.4       9.1      12.1
 2 S  py              0.0      32.7       0.3       0.0       5.6       0.4
 2 S  dz2             2.3       3.8       0.3       0.1       0.1       6.1
 2 S  dxz            23.0       0.0       1.0       6.8       0.3       0.5
 2 S  dyz             3.1       0.2       5.2      69.4       1.2       0.0
 2 S  dx2y2           0.3      11.0       0.0       1.5       7.6       0.5
 2 S  dxy             0.4       0.6       0.2       1.7       3.3       1.2
 2 S  f+1             0.0       0.1       0.0       0.0       0.0       0.2
 2 S  f-1             0.0       0.2       0.0       0.0       0.0       0.1
 2 S  f+3             0.0       0.4       0.0       0.0       0.1       0.4
 2 S  f-3             0.0       0.0       0.0       0.0       0.6       0.1
 3 H  s               0.6       0.7       0.8       0.3       0.4       1.1
 3 H  pz              0.0       0.1       0.1       0.0       0.9       0.6
 3 H  px              0.3       0.4       0.2       0.0       0.0       0.1
 3 H  py              0.2       0.2       0.2       0.0       0.0       0.2
 4 H  s               0.0       4.0       0.0       0.0       1.3       0.4
 4 H  pz              0.1       0.0       0.0       0.1       0.0       0.0
 4 H  px              0.0       0.1       0.0       0.0       0.3       0.0
 4 H  py              0.0       0.1       0.0       0.0       0.3       0.0
 5 H  s               0.6       0.7       0.7       0.3       0.4       1.0
 5 H  pz              0.1       0.0       0.1       0.1       0.8       0.3
 5 H  px              0.3       0.4       0.1       0.0       0.0       0.2
 5 H  py              0.3       0.2       0.2       0.0       0.0       0.3
 6 H  s               6.3       0.6       0.7       1.4       2.0       2.4
 6 H  pz              0.5       0.0       0.0       0.2       0.2       0.4
 6 H  px              0.0       0.3       0.0       0.2       0.0       0.1
 6 H  py              0.1       0.0       0.2       0.6       0.7       0.1
 7 H  s               6.4       0.6       0.8       1.3       1.9       2.5
 7 H  pz              0.3       0.1       0.0       0.3       0.3       0.5
 7 H  px              0.1       0.2       0.0       0.1       0.0       0.0
 7 H  py              0.1       0.0       0.2       0.4       0.7       0.0
 8 H  s               0.0       5.7       0.0       0.0       3.2       1.4
 8 H  pz              0.2       0.0       0.0       4.1       0.0       0.0
 8 H  px              0.0       0.3       0.0       0.1       0.0       0.0
 8 H  py              0.0       0.2       0.0       0.0       0.0       0.4

                     36        37        38        39        40        41   
                   0.49230   0.50882   0.51532   0.54175   0.55786   0.58716
                   0.00000   0.00000   0.00000   0.00000   0.00000   0.00000
                  --------  --------  --------  --------  --------  --------
 0 C  s              15.2      30.4       0.0       0.7       0.0       0.8
 0 C  pz              0.0       0.0       9.5       0.5      13.0       0.2
 0 C  px              5.3       4.3       0.2      18.0       0.2       2.0
 0 C  py              7.5       5.1       0.1       6.4       0.1       5.6
 0 C  dz2             0.1       0.3       0.0       1.2       0.1       6.3
 0 C  dxz             0.0       0.0       0.1       0.5       1.2       0.2
 0 C  dyz             0.1       0.0       2.1       0.1      10.6       0.2
 0 C  dx2y2           0.5       0.0       0.0       6.3       0.1       0.8
 0 C  dxy             2.9       0.9       0.0       2.6       0.2       0.9
 0 C  f0              0.0       0.0       0.3       0.0       0.0       0.0
 0 C  f+1             0.2       0.1       0.1       0.0       0.0       0.1
 0 C  f-1             0.1       0.3       0.0       0.3       0.0       0.0
 0 C  f+2             0.0       0.0       0.3       0.0       0.1       0.0
 0 C  f-2             0.0       0.0       0.3       0.0       0.0       0.0
 0 C  f+3             0.2       0.3       0.0       0.0       0.0       0.1
 0 C  f-3             0.0       0.3       0.0       0.0       0.0       0.7
 1 C  s               9.3       6.2       0.0       2.5       0.0       0.5
 1 C  pz              0.3       0.1      30.4       0.0       9.1       0.1
 1 C  px             19.2      10.4       0.7       0.5       0.2       4.2
 1 C  py              2.3       4.7       0.2       3.3       0.0       1.6
 1 C  dz2             1.4       0.9       0.2       3.4       0.6       0.7
 1 C  dxz             0.0       0.0       0.1       0.1       7.1       0.0
 1 C  dyz             0.2       0.0       6.3       0.2       0.1       0.0
 1 C  dx2y2           1.5       0.1       0.0       2.8       0.1       1.3
 1 C  dxy             0.8       2.6       0.2       0.0       0.1       0.5
 1 C  f0              0.0       0.0       0.4       0.0       0.0       0.1
 1 C  f+1             0.0       0.2       0.1       0.0       0.0       0.2
 1 C  f-1             0.0       0.4       0.0       0.2       0.0       0.4
 1 C  f+2             0.0       0.0       0.3       0.0       0.0       0.0
 1 C  f-2             0.0       0.0       0.1       0.0       0.3       0.0
 1 C  f+3             0.2       0.2       0.0       0.2       0.0       0.3
 1 C  f-3             0.1       0.4       0.0       0.0       0.0       0.1
 2 S  s               0.6       0.5       0.0       0.8       0.0       1.6
 2 S  pz              0.2       0.0       0.0       0.0       6.1       0.0
 2 S  px              9.5       6.9       0.0       0.3       0.1       8.2
 2 S  py              0.1       5.5       0.0       9.3       0.1       7.1
 2 S  dz2             0.1       0.6       0.1       1.2       1.3       7.0
 2 S  dxz             0.1       0.0       1.6       0.1      15.0       0.2
 2 S  dyz             0.3       0.0       0.2       0.2       0.1       0.9
 2 S  dx2y2           5.1       0.7       0.1       2.0       0.3      10.9
 2 S  dxy             3.7       0.4       0.0       1.1       0.1       7.1
 2 S  f0              0.0       0.0       0.1       0.0       0.0       0.0
 2 S  f+1             0.0       0.1       0.0       0.1       0.0       0.0
 2 S  f-1             0.0       0.0       0.0       0.0       0.0       0.1
 2 S  f+3             0.1       0.0       0.0       0.1       0.0       0.1
 2 S  f-3             0.0       0.0       0.0       0.0       0.0       0.3
 3 H  s               1.6       1.2       5.3       5.2      13.1       1.9
 3 H  pz              0.1       0.6       0.9       1.1       0.6       0.5
 3 H  px              0.3       0.1       0.1       0.0       0.1       0.2
 3 H  py              0.1       0.6       0.1       0.5       1.1       0.4
 4 H  s               1.8       1.4       0.0      13.5       0.0      11.0
 4 H  px              0.1       2.0       0.0       1.7       0.0       3.1
 4 H  py              0.9       0.0       0.0       0.1       0.0       1.1
 5 H  s               1.6       1.2       5.4       5.6      12.9       1.4
 5 H  pz              0.0       0.5       0.6       0.9       0.4       0.7
 5 H  px              0.4       0.0       0.2       0.0       0.0       0.1
 5 H  py              0.1       0.8       0.2       0.8       1.3       0.4
 6 H  s               0.2       0.8      14.0       0.1       1.2       1.5
 6 H  pz              0.6       0.2       1.6       0.5       0.3       1.1
 6 H  px              0.1       0.1       0.2       0.0       0.3       0.3
 6 H  py              0.0       0.5       0.6       0.1       0.0       0.0
 7 H  s               0.2       0.7      14.2       0.1       1.3       1.3
 7 H  pz              0.7       0.2       2.1       0.4       0.6       1.3
 7 H  px              0.0       0.3       0.0       0.1       0.1       0.1
 7 H  py              0.0       0.4       0.3       0.2       0.0       0.0
 8 H  s               3.3       4.2       0.0       2.6       0.0       0.3
 8 H  pz              0.0       0.0       0.0       0.0       0.3       0.0
 8 H  px              0.2       0.5       0.0       0.0       0.0       0.8
 8 H  py              0.1       0.1       0.0       1.1       0.0       0.8

                     42        43        44        45        46        47   
                   0.60719   0.62454   0.65687   0.69139   0.78577   0.85634
                   0.00000   0.00000   0.00000   0.00000   0.00000   0.00000
                  --------  --------  --------  --------  --------  --------
 0 C  s               1.5       0.0       6.3       9.0       1.6       1.4
 0 C  pz              0.0       7.5       0.0       0.0       0.0       0.2
 0 C  px              0.1       0.2       3.8       1.1       0.7       4.6
 0 C  py              1.8       0.1       2.9       0.4       0.0       3.0
 0 C  dz2             3.0       0.9       1.1       0.1       0.2       8.3
 0 C  dxz             0.1      14.0       0.0       0.0       0.0       0.1
 0 C  dyz             0.1       0.7       0.0       0.0       0.2       0.8
 0 C  dx2y2           0.2       0.3       0.6       0.8       8.0      22.8
 0 C  dxy             0.0       0.1       0.3       0.3       2.0       1.0
 0 C  f0              0.0       0.0       0.2       0.2       0.0       0.0
 0 C  f+1             0.1       0.0       0.1       0.4       0.0       0.0
 0 C  f-1             0.0       0.0       2.7       1.2       0.3       0.4
 0 C  f+2             0.0       0.3       0.0       0.0       0.0       0.0
 0 C  f-2             0.0       0.1       0.4       0.1       0.0       0.0
 0 C  f+3             0.0       0.0       0.0       0.0       0.0       0.2
 0 C  f-3             0.0       0.0       1.4       0.1       0.1       0.1
 1 C  s               5.1       0.0       4.8      12.3       1.6       0.5
 1 C  pz              0.0       7.1       0.0       0.3       0.0       0.1
 1 C  px              0.4       0.2       0.6       4.4       2.7       4.4
 1 C  py              2.9       0.0       1.4       5.1       0.9       1.1
 1 C  dz2             2.3       0.0       0.1       1.2       0.1       0.0
 1 C  dxz             0.2       3.2       0.0       0.1       0.0       0.1
 1 C  dyz             0.1       6.0       0.0       0.2       0.0       0.1
 1 C  dx2y2           0.1       0.3       1.0       0.2       1.4       6.6
 1 C  dxy             0.0       0.0       0.4       3.3       0.8       0.0
 1 C  f0              0.2       0.2       0.0       0.0       0.0       0.0
 1 C  f+1             0.1       0.0       0.1       0.0       0.0       0.6
 1 C  f-1             2.5       0.0       0.1       0.4       0.1       0.3
 1 C  f+2             0.0       0.0       0.0       0.0       0.0       0.2
 1 C  f-2             0.3       0.0       0.0       0.0       0.1       0.0
 1 C  f+3             0.0       0.0       0.1       0.0       0.1       0.9
 1 C  f-3             0.7       0.0       0.3       0.0       0.8       0.1
 2 S  s               9.0       0.0       0.1       4.3       2.3       1.0
 2 S  pz              0.0       3.4       0.1       0.1       0.0       0.0
 2 S  px              0.9       0.1       1.3       5.5       2.8       0.8
 2 S  py              7.0       0.0       1.7       0.5       1.5       0.8
 2 S  dz2             3.9       1.7      10.0      17.3       2.5       0.8
 2 S  dxz             0.4      21.0       1.0       2.3       0.1       0.0
 2 S  dyz             0.0       1.4       0.1       0.4       0.0       0.4
 2 S  dx2y2           0.9       0.4       1.0       4.4      14.9       1.3
[...]
 1 C  dyz             6.7       0.1       0.0       0.0       7.3       0.1
 1 C  dx2y2           0.1       0.7       4.0       1.5       0.1       3.9
 1 C  dxy             0.2      10.3       2.3       1.4       0.2       0.1
 1 C  f0             10.9       0.8       0.2       0.8       0.0       0.2
 1 C  f+1             0.2       4.2       0.8       0.0       0.9       1.0
 1 C  f-1             0.0       0.6       0.3      13.9       0.3       0.3
 1 C  f+2             0.6       0.2       0.0       0.3      18.9       0.3
 1 C  f-2            14.4       0.8       0.7       0.7       0.1       0.4
 1 C  f+3             0.1      18.9       2.8       0.3       0.6       4.1
 1 C  f-3             0.5       0.0      26.4       1.3       0.2       2.3
 2 S  s               0.0       0.1       0.4       0.0       0.0       0.1
 2 S  px              0.0       0.1       0.5       0.0       0.0       0.2
 2 S  py              0.0       0.2       0.2       0.0       0.0       0.0
 2 S  dx2y2           0.0       0.3       0.1       0.0       0.0       0.2
 2 S  dxy             0.0       0.2       0.3       0.1       0.0       0.0
 2 S  f-2             0.0       0.0       0.0       0.0       0.1       0.0
 2 S  f+3             0.0       0.7       0.0       0.1       0.0       0.2
 2 S  f-3             0.0       0.0       0.4       0.0       0.0       0.1
 3 H  s               0.6       0.8       0.1       6.0       5.2       1.4
 3 H  pz              1.3       0.0       0.2       0.6       1.8       0.2
 3 H  px              0.0       0.1       0.4       0.0       0.0       0.2
 3 H  py              0.1       0.2       0.0       0.6       0.0       0.5
 4 H  s               0.0       0.4       2.8       0.6       0.0      18.3
 4 H  pz              0.1       0.0       0.0       0.0       0.5       0.1
 4 H  px              0.0       0.8       0.6       0.5       0.0       3.9
 4 H  py              0.0       1.1       0.3       0.2       0.0       1.2
 5 H  s               0.6       0.8       0.1       5.4       5.8       0.6
 5 H  pz              1.0       0.0       0.0       0.3       1.6       0.0
 5 H  px              0.1       0.1       0.5       0.1       0.3       0.3
 5 H  py              0.3       0.2       0.0       0.7       0.1       0.3
 6 H  s               0.9       1.0       0.1       6.0       6.2       0.0
 6 H  pz              1.7       0.0       0.3       0.4       1.8       0.0
 6 H  px              0.2       0.0       0.1       0.1       0.4       0.1
 6 H  py              0.7       0.1       0.1       1.1       0.1       0.0
 7 H  s               0.9       1.0       0.1       6.4       5.8       0.0
 7 H  pz              2.2       0.0       0.4       0.8       2.2       0.0
 7 H  px              0.0       0.0       0.0       0.0       0.0       0.1
 7 H  py              0.3       0.2       0.1       0.9       0.0       0.0
 8 H  px              0.0       0.0       0.2       0.0       0.0       0.0

                    126       127       128       129       130       131   
                   4.52435   4.63911   4.84821   8.98999   9.07896   9.37556
                   0.00000   0.00000   0.00000   0.00000   0.00000   0.00000
                  --------  --------  --------  --------  --------  --------
 0 C  s               0.0       5.7      16.6       0.0       0.0       0.0
 0 C  pz              2.5       0.0       0.0       0.0       0.0       0.0
 0 C  px              0.1       0.7       4.8       0.0       0.0       0.0
 0 C  py              0.1       1.4       2.9       0.0       0.0       0.0
 0 C  dz2             0.1       3.0       2.7       0.0       0.0       0.0
 0 C  dxz             0.5       0.2       0.0       0.0       0.0       0.0
 0 C  dyz            17.5       0.0       0.0       0.0       0.0       0.0
 0 C  dx2y2           0.4       1.3       0.1       0.0       0.0       0.0
 0 C  dxy             0.1       2.5       9.0       0.0       0.0       0.0
 0 C  f0              4.5       1.2       0.0       0.0       0.0       0.0
 0 C  f+1             0.6       0.7       1.0       0.0       0.0       0.0
 0 C  f-1             0.1      13.6       6.7       0.0       0.0       0.0
 0 C  f+2             5.6       0.0       0.0       0.0       0.0       0.0
 0 C  f-2             6.5       1.0       0.5       0.0       0.0       0.0
 0 C  f+3             0.5       1.7       2.0       0.0       0.0       0.0
 0 C  f-3             0.2       1.3       6.3       0.0       0.0       0.0
 1 C  s               0.0       9.7      10.0       0.0       0.0       0.2
 1 C  pz              2.2       0.0       0.0       0.0       0.0       0.0
 1 C  px              0.0       0.4       4.7       0.0       0.0       0.2
 1 C  py              0.0       1.0       4.2       0.0       0.0       0.0
 1 C  dz2             0.1       2.3       3.0       0.0       0.0       0.0
 1 C  dxz             0.6       0.3       0.0       0.0       0.0       0.0
 1 C  dyz            15.2       0.0       0.1       0.0       0.0       0.0
 1 C  dx2y2           0.3       1.9       0.2       0.0       0.0       0.0
 1 C  dxy             0.2       0.5      11.9       0.0       0.0       0.0
 1 C  f0              4.3       0.9       0.0       0.0       0.0       0.0
 1 C  f+1             0.8       0.0       1.5       0.0       0.0       0.0
 1 C  f-1             0.2      18.1       2.7       0.0       0.0       0.0
 1 C  f+2             2.9       0.0       0.0       0.0       0.0       0.0
 1 C  f-2             6.4       1.0       0.1       0.0       0.0       0.0
 1 C  f+3             0.5       2.8       2.5       0.0       0.0       0.0
 1 C  f-3             0.1       1.0       2.6       0.0       0.0       0.0
 2 S  s               0.0       0.0       0.0       0.0       0.0       0.5
 2 S  pz              0.0       0.0       0.0      97.3       0.0       2.6
 2 S  px              0.0       0.1       0.0       2.2      14.9      81.9
 2 S  py              0.0       0.0       0.1       0.5      84.8      14.2
 3 H  s               4.6       4.6       1.0       0.0       0.0       0.0
 3 H  pz              1.4       0.5       0.0       0.0       0.0       0.0
 3 H  px              0.2       0.0       0.0       0.0       0.0       0.0
 3 H  py              0.5       0.4       0.0       0.0       0.0       0.0
 4 H  s               0.1       1.6       0.7       0.0       0.0       0.0
 4 H  pz              0.1       0.0       0.0       0.0       0.0       0.0
 5 H  s               5.4       4.5       1.0       0.0       0.0       0.0
 5 H  pz              1.3       0.4       0.0       0.0       0.0       0.0
 5 H  py              1.0       0.6       0.0       0.0       0.0       0.0
 6 H  s               4.1       5.4       0.2       0.0       0.0       0.0
 6 H  pz              1.1       0.3       0.0       0.0       0.0       0.0
 6 H  py              0.9       0.7       0.0       0.0       0.0       0.0
 7 H  s               4.2       5.5       0.2       0.0       0.0       0.0
 7 H  pz              1.3       0.5       0.0       0.0       0.0       0.0
 7 H  py              0.5       0.5       0.0       0.0       0.0       0.0

                    132       133       134   
                  19.13859  22.30522  22.40495
                   0.00000   0.00000   0.00000
                  --------  --------  --------
 0 C  s               0.0      17.9      80.9
 1 C  s               1.1      80.3      17.9
 1 C  px              0.2       0.0       0.1
 1 C  py              0.1       0.1       0.0
 2 S  s              97.5       0.5       0.2
 2 S  py              0.3       0.0       0.0
 3 H  s               0.0       0.0       0.1
 4 H  s               0.0       0.1       0.1
 5 H  s               0.0       0.0       0.1
 6 H  s               0.0       0.2       0.0
 7 H  s               0.0       0.2       0.0
 8 H  s               0.2       0.0       0.0


                      *****************************
                      * MAYER POPULATION ANALYSIS *
                      *****************************

  NA   - Mulliken gross atomic population
  ZA   - Total nuclear charge
  QA   - Mulliken gross atomic charge
  VA   - Mayer's total valence
  BVA  - Mayer's bonded valence
  FA   - Mayer's free valence

  ATOM       NA         ZA         QA         VA         BVA        FA
  0 C      6.3357     6.0000    -0.3357     3.8993     3.8993     0.0000
  1 C      6.1577     6.0000    -0.1577     3.9846     3.9846     0.0000
  2 S     16.2197    16.0000    -0.2197     2.0611     2.0611    -0.0000
  3 H      0.8799     1.0000     0.1201     0.9784     0.9784    -0.0000
  4 H      0.8868     1.0000     0.1132     0.9734     0.9734     0.0000
  5 H      0.8799     1.0000     0.1201     0.9777     0.9777     0.0000
  6 H      0.8865     1.0000     0.1135     0.9633     0.9633     0.0000
  7 H      0.8865     1.0000     0.1135     0.9629     0.9629     0.0000
  8 H      0.8672     1.0000     0.1328     0.9762     0.9762    -0.0000

  Mayer bond orders larger than 0.100000
B(  0-C ,  1-C ) :   0.9958 B(  0-C ,  3-H ) :   0.9756 B(  0-C ,  4-H ) :   0.9711 
B(  0-C ,  5-H ) :   0.9758 B(  1-C ,  2-S ) :   1.0688 B(  1-C ,  6-H ) :   0.9674 
B(  1-C ,  7-H ) :   0.9672 B(  2-S ,  8-H ) :   0.9743 

-------
TIMINGS
-------

Total SCF time: 0 days 0 hours 0 min 14 sec 

Total time                  ....      14.458 sec
Sum of individual times     ....      14.054 sec  ( 97.2%)

SCF preparation             ....       0.038 sec  (  0.3%)
Fock matrix formation       ....      13.908 sec  ( 96.2%)
  Startup                   ....       0.001 sec  (  0.0% of F)
  Split-RI-J                ....       0.420 sec  (  3.0% of F)
  Chain of spheres X        ....      11.848 sec  ( 85.2% of F)
  XC integration            ....       2.007 sec  ( 14.4% of F)
    Basis function eval.    ....       0.573 sec  ( 28.5% of XC)
    Density eval.           ....       0.346 sec  ( 17.2% of XC)
    XC-Functional eval.     ....       0.593 sec  ( 29.5% of XC)
    XC-Potential eval.      ....       0.447 sec  ( 22.3% of XC)
Diagonalization             ....       0.000 sec  (  0.0%)
Density matrix formation    ....       0.005 sec  (  0.0%)
Total Energy calculation    ....       0.001 sec  (  0.0%)
Population analysis         ....       0.044 sec  (  0.3%)
Orbital Transformation      ....       0.004 sec  (  0.0%)
Orbital Orthonormalization  ....       0.000 sec  (  0.0%)
DIIS solution               ....       0.014 sec  (  0.1%)
  MO trafo                  ....       0.000 sec  (  0.0 % of DIIS)
  Orb grad                  ....       0.000 sec  (  0.0 % of DIIS)
  Energy W gradient         ....       0.000 sec  (  0.0 % of DIIS)
  DIIS error                ....       0.001 sec  ( 10.3 % of DIIS)
  DIIS work                 ....       0.011 sec  ( 74.4 % of DIIS)
  Form Q                    ....       0.000 sec  (  0.0 % of DIIS)
  Form QpQm                 ....       0.000 sec  (  0.0 % of DIIS)
  Exp/Cayley                ....       0.000 sec  (  0.0 % of DIIS)
  Orb update                ....       0.000 sec  (  0.0 % of DIIS)
  Wake-sleep                ....       0.000 sec  (  1.4 % of DIIS)
SOSCF solution              ....       0.007 sec  (  0.0%)
  MO trafo                  ....       0.004 sec  ( 53.7 % of SOSCF)
  Orb grad                  ....       0.000 sec  (  1.3 % of SOSCF)
  Rot update                ....       0.000 sec  (  5.5 % of SOSCF)
  Step                      ....       0.003 sec  ( 39.1 % of SOSCF)
Grid generation             ....       0.034 sec  (  0.2%)
Finished LeanSCF after  14.5 sec

Maximum memory used throughout the entire LEANSCF-calculation: 14.2 MB
------------------   -----------------
gCP correction             0.006062984
------------------   -----------------

-------------------------   --------------------
FINAL SINGLE POINT ENERGY      -477.965198305954
-------------------------   --------------------


------------------------------------------------------------------------------
                              ORCA PROPERTY CALCULATIONS
------------------------------------------------------------------------------

GBWName                                 ... sp.gbw
Number of atoms                         ...      9
Number of basis functions               ...    135
Max core memory                         ...   1024 MB

Electric properties:
Dipole moment                           ... YES
Quadrupole moment                       ...  NO
Static polarizability (Dipole/Dipole)   ...  NO
Static polarizability (Dipole/Quad.)    ...  NO
Static polarizability (Quad./Quad.)     ...  NO
Static polarizability (Velocity)        ...  NO

Atomic electric properties:
Dipole moment                           ...  NO
Quadrupole moment                       ...  NO
Static polarizability                   ...  NO

Choice of electric origin               ... Center of mass
Position of electric origin             ...    -0.059963     0.098963    -0.352426

General magnetic properties:
Magnetizability                         ...  NO

EPR properties:
g-Tensor (aka g-matrix)                 ...  NO
Zero-Field splitting spin-orbit         ...  NO
Zero-field splitting spin-spin          ...  NO
Hyperfine couplings                     ...  NO (   0 nuclei)
Quadrupole couplings                    ...  NO (   0 nuclei)
Contact density                         ...  NO (   0 nuclei)

NMR properties:
Chemical shifts                         ...  NO (   0 nuclei)
Spin-rotation constants                 ...  NO (   0 nuclei)
Spin-spin couplings                     ...  NO (   0 nuclei,    0 pairs)

Choice of magnetic origin               ... GIAO
Position of magnetic origin             ...     0.000000     0.000000     0.000000

Properties with geometric perturbations:
SCF Hessian                             ...  NO
IR spectrum                             ...  NO
VCD spectrum                            ...  NO
X-ray spectroscopy properties:
SCF XES/XAS/RIXS spectra                ...  NO


-------------
DIPOLE MOMENT
-------------

Method             : SCF
Type of density    : Electron Density
Multiplicity       :   1
Irrep              :   0
Energy             :  -477.9712612901541888 Eh
Relativity type    : 
Basis              : AO
                                X                 Y                 Z
Electronic contribution:      4.718249211       1.082537722      -0.749320647
Nuclear contribution   :     -5.127187900      -1.600851480       0.845391500
                        -----------------------------------------
Total Dipole Moment    :     -0.408938689      -0.518313758       0.096070854
                        -----------------------------------------
Magnitude (a.u.)       :      0.667165356
Magnitude (Debye)      :      1.695799568



--------------------
Rotational spectrum 
--------------------
 
Rotational constants in cm-1:             0.947367             0.179708             0.160183 
Rotational constants in MHz :         28401.359008          5387.505964          4802.179608 

Dipole components along the rotational axes: 
x,y,z [a.u.] :     0.422467     0.516330     0.005910 
x,y,z [Debye]:     1.073825     1.312406     0.015022 

 

Dipole moment calculation done in   0.0 sec 

Maximum memory used throughout the entire PROP-calculation: 8.3 MB

--------------------------------
SUGGESTED CITATIONS FOR THIS RUN
--------------------------------

Below you find a list of papers that are relevant to this ORCA run
We neither can nor want to force you to cite these papers, but we appreciate if you do
You receive ORCA, which is the product of decades of hard work by many enthusiastic individuals, for free
The only thing we kindly ask in return is that you cite our papers,
We deeply appreciate it, if you show your appreciation for ORCA by not just citing the generic ORCA reference.

Please note that relegating all ORCA citations to the supporting information does *not* help us.
SI sections are not indexed - citations you put there will not count into any citation statistics
But we need these citations in order to attract the funding resources that allow us to do what we are doing

Therefore, if you are a happy ORCA user, please consider citing a few of the papers listed below in the main body of your paper

In addition to the list printed below, the program has created the file sp.bibtex that contains the list in bibtex format
You can import this file easily into all common literature databanks and citation aid programs


List of essential papers. We consider these as the minimum necessary citations

  1. Neese,F.
     Software update: the ORCA program system, version 5.0
     WIRES Comput. Molec. Sci., 2022 12(1)e1606
     doi.org/10.1002/wcms.1606

List of papers to cite with high priority. The work reported in these papers was absolutely
necessary for this run to complete.
Our perspective: the developers of density functionals and basis sets usually get cited in chemistry papers
Good! But without the algorithms to do something with them, the functionals or basis sets would not do anything.
Hence, in our opinion, the algorithm design and method developments papers are equally worthy of getting cited

  1. Neese,F.
     An improvement of the resolution of the identity approximation for the formation of the Coulomb matrix
     J. Comp. Chem., 2003 24(14)1740-1747
     doi.org/10.1002/jcc.10318
  2. Neese,F.; Wennmohs,F.; Hansen,A.; Becker,U.
     Efficient, approximate and parallel Hartree-Fock and hybrid DFT calculations. A 'chain-of-spheres' algorithm for the Hartree-Fock exchange
     Chem. Phys., 2009 356(1-3)98-109
     doi.org/10.1016/j.chemphys.2008.10.036
  3. Helmich-Paris,B.; de Souza,B.; Neese,F.; Izsák,R.
     An improved chain of spheres for exchange algorithm
     J. Chem. Phys., 2021 155 104109
     doi.org/doi: 10.1063/5.0058766.
  4. Neese,F.
     The SHARK Integral Generation and Digestion System
     J. Comp. Chem., 2022  1-16
     doi.org/10.1002/jcc.26942

List of suggested additional citations. These are papers that are important in the 'surrounding' of 
of this run, or papers that preceded the highly important papers. If you like your results we are grateful for a citation.

  1. Izsak,R.; Neese,F.
     An overlap fitted chain of spheres exchange method
     J. Chem. Phys., 2011 135 144105
     doi.org/10.1063/1.3646921
  2. Izsak,R.; Hansen,A.; Neese,F.
     The resolution of identity and chain of spheres approximations for the LPNO-CCSD singles Fock term
     Molec. Phys., 2012 110 2413-2417
     doi.org/10.1080/00268976.2012.687466
  3. Neese,F.
     The ORCA program system
     WIRES Comput. Molec. Sci., 2012 2(1)73-78
     doi.org/10.1002/wcms.81
  4. Izsak,R.; Neese,F.; Klopper,W.
     Robust fitting techniques in the chain of spheres approximation to the Fock exchange: The role of the complementary space
     J. Chem. Phys., 2013 139 
     doi.org/10.1063/1.4819264
  5. Neese,F.
     Software update: the ORCA program system, version 4.0
     WIRES Comput. Molec. Sci., 2018 8(1)1-6
     doi.org/10.1002/wcms.1327
  6. Neese,F.; Wennmohs,F.; Becker,U.; Riplinger,C.
     The ORCA quantum chemistry program package
     J. Chem. Phys., 2020 152 Art. No. L224108
     doi.org/10.1063/5.0004608

List of optional additional citations

  1. Neese,F.
     Approximate second-order SCF convergence for spin unrestricted wavefunctions
     Chem. Phys. Lett., 2000 325(1-3)93-98
     doi.org/10.1016/s0009-2614(00)00662-x

Timings for individual modules:

Sum of individual times          ...       14.936 sec (=   0.249 min)
Startup calculation              ...        0.380 sec (=   0.006 min)   2.5 %
SCF iterations                   ...       14.520 sec (=   0.242 min)  97.2 %
Property calculations            ...        0.036 sec (=   0.001 min)   0.2 %
                             ****ORCA TERMINATED NORMALLY****
TOTAL RUN TIME: 0 days 0 hours 0 minutes 14 seconds 981 msec
