
                                 *****************
                                 * O   R   C   A *
                                 *****************

                                            #,                                       
                                            ###                                      
                                            ####                                     
                                            #####                                    
                                            ######                                   
                                           ########,                                 
                                     ,,################,,,,,                         
                               ,,#################################,,                 
                          ,,##########################################,,             
                       ,#########################################, ''#####,          
                    ,#############################################,,   '####,        
                  ,##################################################,,,,####,       
                ,###########''''           ''''###############################       
              ,#####''   ,,,,##########,,,,          '''####'''          '####       
            ,##' ,,,,###########################,,,                        '##       
           ' ,,###''''                  '''############,,,                           
         ,,##''                                '''############,,,,        ,,,,,,###''
      ,#''                                            '''#######################'''  
     '                                                          ''''####''''         
             ,#######,   #######,   ,#######,      ##                                
            ,#'     '#,  ##    ##  ,#'     '#,    #''#        ,####,   ,####,        
            ##       ##  ##   ,#'  ##            #'  '#       #'       #'  '#        
            ##       ##  #######   ##           ,######,      #####,   #    #        
            '#,     ,#'  ##    ##  '#,     ,#' ,#      #,     #,   #   #,  ,#        
             '#######'   ##     ##  '#######'  #'      '#     '####' # '####'        



                #########################################################
                #                        -***-                          #
                #          Department of theory and spectroscopy        #
                #                                                       #
                #                      Frank Neese                      #
                #                                                       #
                #     Directorship, Architecture, Infrastructure        #
                #                    SHARK, DRIVERS                     #
                #        Core code/Algorithms in most modules           #
                #                                                       #
                #        Max Planck Institute fuer Kohlenforschung      #
                #                Kaiser Wilhelm Platz 1                 #
                #                 D-45470 Muelheim/Ruhr                 #
                #                      Germany                          #
                #                                                       #
                #                  All rights reserved                  #
                #                        -***-                          #
                #########################################################


                         Program Version 6.0.1  -  RELEASE   -


 With contributions from (in alphabetic order):
[Max-Planck-Institut fuer Kohlenforschung]                               
  Daniel Aravena         : Magnetic Suceptibility                        
  Michael Atanasov       : Ab Initio Ligand Field Theory (pilot matlab implementation)
  Alexander A. Auer      : GIAO ZORA, VPT2 properties, NMR spectrum      
  Ute Becker             : All parallelization in ORCA, NUMFREQ, NUMCALC 
  Giovanni Bistoni       : ED, misc. LED, open-shell LED, HFLD           
  Martin Brehm           : Molecular dynamics                            
  Dmytro Bykov           : pre 5.0 version of the SCF Hessian            
  Marcos Casanova-Páez   : Triplet and SCS-CIS(D). UHF-(DLPNO)-IP/EA/STEOM-CCSD. UHF-CVS-IP/STEOM-CCSD   
  Vijay G. Chilkuri      : MRCI spin determinant printing, contributions to CSF-ICE 
  Pauline Colinet        : FMM embedding                                 
  Dipayan Datta          : RHF DLPNO-CCSD density                        
  Achintya Kumar Dutta   : EOM-CC, STEOM-CC                              
  Nicolas Foglia         : Exact transition moments, OPA infrastructure, MCD improvements    
  Dmitry Ganyushin       : Spin-Orbit,Spin-Spin,Magnetic field MRCI      
  Miquel Garcia-Rates    : C-PCM and meta-GGA Hessian, CCSD/C-PCM, Gaussian charge scheme 
  Tiago L. C. Gouveia    : GS-ROHF, GS-ROCIS                             
  Yang Guo               : DLPNO-NEVPT2, F12-NEVPT2, CIM, IAO-localization        
  Andreas Hansen         : Spin unrestricted coupled pair/coupled cluster methods 
  Ingolf Harden          : AUTO-CI MPn and infrastructure                
  Benjamin Helmich-Paris : MC-RPA, TRAH-(SCF,CASSCF), AVAS, COSX integrals, SCF dyn. polar. 
  Lee Huntington         : MR-EOM, pCC                                   
  Robert Izsak           : Overlap fitted RIJCOSX, COSX-SCS-MP3, EOM     
  Riya Kayal             : Wick's Theorem for AUTO-CI, AUTO-CI UHF-CCSDT 
  Emily Kempfer          : AUTO-CI, RHF CISDT and CCSDT                  
  Christian Kollmar      : KDIIS, OOCD, Brueckner-CCSD(T), CCSD density, CASPT2, CASPT2-K, improved NEVPT2 
  Axel Koslowski         : Symmetry handling                             
  Simone Kossmann        : meta-GGA functionals, TD-DFT gradient, OOMP2, (MP2 Hessian; deprecated post 5.0) 
  Lucas Lang             : DCDCAS                                        
  Marvin Lechner         : AUTO-CI (C++ implementation), FIC-MRCC        
  Spencer Leger          : CASSCF response                               
  Dagmar Lenk            : GEPOL surface, SMD, ORCA-2-JSON               
  Dimitrios Liakos       : Extrapolation schemes; Compound Job, initial MDCI parallelization 
  Dimitrios Manganas     : Further ROCIS development; embedding schemes. LFT, Crystal Embedding 
  Dimitrios Pantazis     : SARC Basis sets                               
  Anastasios Papadopoulos: AUTO-CI, single reference methods and gradients 
  Taras Petrenko         : pre 6.0 DFT Hessian and TD-DFT gradient, (ASA, deprecated), ECA, 1-Electron XAS/XES, NRVS 
  Peter Pinski           : DLPNO-MP2, DLPNO-MP2 Gradient                 
  Christoph Reimann      : Effective Core Potentials                     
  Marius Retegan         : Local ZFS, SOC                                
  Christoph Riplinger    : Optimizer, TS searches, QM/MM, DLPNO-CCSD(T), (RO)-DLPNO pert. Triples 
  Michael Roemelt        : Original ROCIS implementation                 
  Masaaki Saitow         : Open-shell DLPNO-CCSD energy and density      
  Barbara Sandhoefer     : DKH picture change effects                    
  Kantharuban Sivalingam : CASSCF convergence/infrastructure, NEVPT2 and variants, FIC-MRCI 
  Bernardo de Souza      : ESD, SOC TD-DFT                               
  Georgi L. Stoychev     : AutoAux, RI-MP2 NMR, DLPNO-MP2 response, X2C  
  Van Anh Tran           : RI-MP2 g-tensors                              
  Willem Van den Heuvel  : Paramagnetic NMR                              
  Zikuan Wang            : NOTCH, Electric field optimization            
  Frank Wennmohs         : Technical directorship and infrastructure     
  Hang Xu                : AUTO-CI-Response properties                   
                                                                         
[FACCTs GmbH]                                                            
  Markus Bursch, Miquel Garcia-Rates, Christoph Riplinger, Bernardo de Souza, Georgi L. Stoychev 
                                                                 
  APM, Basis sets (HGBS, AHGBS, def-TZVP (Ac-Lr), def2-XVPD (La-Lu)), CI-OPT, improved COSX, DLPNO-Multilevel,           
  DOCKER, DRACO, updates on ESD, GOAT, IRC, LR-CPCM, MBIS, meta-GGA TD-DFT gradient, ML-optimized integration grids, 
  MM, NACMEs, nearIR, NEB, NEB-TS, NL-DFT gradient (VV10), 2- and 3-layer-ONIOM, interface openCOSMO-RS, QMMM,   
  Crystal-QMMM, SF, symmetry and pop. for TD-DFT, r2SCAN hybrids, SOLVATOR                                   
                                                                         
[Other institutions]                                                     
  V. Asgeirsson          : NEB                                           
  Christoph Bannwarth    : sTDA-DFT, sTD-DFT, PBEh-3c, B97-3c, D3        
  Sebastian Ehlert       : rSCAN, r2SCAN, r2SCAN-3c, D4, dhf basis sets  
  Marvin Friede          : D4 for Fr, Ra, Ac-Lr                          
  Lars Goerigk           : TD-DFT with DH, B97 family of functionals     
  Stefan Grimme          : VdW corrections, initial TS optimization, DFT functionals, gCP, sTDA/sTD-DF 
  Waldemar Hujo          : DFT-NL                                        
  H. Jonsson             : NEB                                           
  Holger Kruse           : gCP                                           
  Marcel Mueller         : wB97X-3c, vDZP basis set                      
  Hagen Neugebauer       : wr2SCAN                                       
  Tobias Risthaus        : range-separated hybrid DFT                    
  Lukas Wittmann         : regularized MP2, r2SCAN double-hybrids, wr2SCAN        
                                                                         
We gratefully acknowledge several colleagues who have allowed us to      
interface, adapt or use parts of their codes:                            
  Ed Valeev, F. Pavosevic, A. Kumar             : LibInt (2-el integral package), F12 methods 
  Garnet Chan, S. Sharma, J. Yang, R. Olivares  : DMRG                   
  Ulf Ekstrom                                   : XCFun DFT Library      
  Mihaly Kallay                                 : mrcc  (arbitrary order and MRCC methods)
  Frank Weinhold                                : gennbo (NPA and NBO analysis)           
  Simon Mueller                                 : openCOSMO-RS                            
  Christopher J. Cramer and Donald G. Truhlar   : smd solvation model                     
  S Lehtola, MJT Oliveira, MAL Marques          : LibXC Library                           
  Liviu Ungur et al                             : ANISO software                          


 Your calculation uses the libint2 library for the computation of 2-el integrals
 For citations please refer to: http://libint.valeyev.net

 Your ORCA version has been built with support for libXC version: 6.2.2
 For citations please refer to: https://libxc.gitlab.io

 This ORCA versions uses:
   CBLAS   interface :  Fast vector & matrix operations
   LAPACKE interface :  Fast linear algebra routines
   SCALAPACK package :  Parallel linear algebra routines
   Shared memory     :  Shared parallel matrices
   BLAS/LAPACK       :  OpenBLAS 0.3.27  USE64BITINT DYNAMIC_ARCH NO_AFFINITY Zen SINGLE_THREADED
        Core in use  :  Zen
   Copyright (c) 2011-2014, The OpenBLAS Project


Your calculation utilizes the geometrical counterpoise correction gCP
Please cite in your paper:
H.Kruse, S. Grimme J.Chem.Phys., 136, (2012), 154101 
   

Your calculation utilizes the atom-pairwise dispersion correction
based on EEQ partial charges (D4)


================================================================================

----- Orbital basis set information -----
Your calculation utilizes the basis: def2-SV(P)
   F. Weigend and R. Ahlrichs, Phys. Chem. Chem. Phys. 7, 3297 (2005).

----- AuxJ basis set information -----
Your calculation utilizes the auxiliary basis: def2/J
   F. Weigend, Phys. Chem. Chem. Phys. 8, 1057 (2006).

================================================================================
                                        WARNINGS
                       Please study these warnings very carefully!
================================================================================

WARNING: Old DensityContainer found on disk!
         Will remove this file - 
         If you want to keep old densities, please start your calculation with a different basename. 


================================================================================
                                       INPUT FILE
================================================================================
NAME = sp.inp
|  1> ! pbe def2-sv(p) def2/J RI DEFGRID1 loosescf d4 GCP(DFT/SV(P)) printgap
|  2> %output
|  3>     printlevel normal
|  4> end
|  5> * xyz 0 1
|  6> C 0.8418623176 1.3796691928 -0.6452405917
|  7> C 1.5916426629 0.1833248352 -0.0469589605
|  8> H 2.5853373647 0.1059622143 -0.5220404054
|  9> C 0.7890383266 -1.1047743914 -0.331662592
| 10> H 1.2284581381 -1.9248352032 0.2567588975
| 11> C -0.668071701 -0.9222590259 0.123297414
| 12> H -1.2650194568 -1.7630402509 -0.2438966846
| 13> C -1.2665622968 0.3842041726 -0.4509475289
| 14> H -1.339606475 0.3181457947 -1.5467353661
| 15> O -0.442696777 1.4879215565 -0.096254126
| 16> O -2.5258671279 0.5993800697 0.0502547163
| 17> O -0.7868221928 -0.9148065996 1.5210403405
| 18> O 0.7795150331 -1.4057185232 -1.7037689483
| 19> O 1.7312930441 0.2991852307 1.3528072096
| 20> H 0.7905779614 1.2575141806 -1.736886242
| 21> H 1.3527788411 2.3174579275 -0.4086010282
| 22> H -2.4932281113 0.4067168153 1.0012303927
| 23> H -0.0749087677 -0.3535759997 1.8696017687
| 24> H 1.6644729504 -1.6703683628 -1.9792435726
| 25> H 1.9597325213 1.2103314649 1.5719623708
| 26> *
| 27> 
| 28>                          ****END OF INPUT****
================================================================================

                       ****************************
                       * Single Point Calculation *
                       ****************************

---------------------------------
CARTESIAN COORDINATES (ANGSTROEM)
---------------------------------
  C      0.841862    1.379669   -0.645241
  C      1.591643    0.183325   -0.046959
  H      2.585337    0.105962   -0.522040
  C      0.789038   -1.104774   -0.331663
  H      1.228458   -1.924835    0.256759
  C     -0.668072   -0.922259    0.123297
  H     -1.265019   -1.763040   -0.243897
  C     -1.266562    0.384204   -0.450948
  H     -1.339606    0.318146   -1.546735
  O     -0.442697    1.487922   -0.096254
  O     -2.525867    0.599380    0.050255
  O     -0.786822   -0.914807    1.521040
  O      0.779515   -1.405719   -1.703769
  O      1.731293    0.299185    1.352807
  H      0.790578    1.257514   -1.736886
  H      1.352779    2.317458   -0.408601
  H     -2.493228    0.406717    1.001230
  H     -0.074909   -0.353576    1.869602
  H      1.664473   -1.670368   -1.979244
  H      1.959733    1.210331    1.571962

----------------------------
CARTESIAN COORDINATES (A.U.)
----------------------------
  NO LB      ZA    FRAG     MASS         X           Y           Z
   0 C     6.0000    0    12.011    1.590889    2.607197   -1.219328
   1 C     6.0000    0    12.011    3.007769    0.346434   -0.088740
   2 H     1.0000    0     1.008    4.885580    0.200240   -0.986513
   3 C     6.0000    0    12.011    1.491066   -2.087721   -0.626751
   4 H     1.0000    0     1.008    2.321449   -3.637411    0.485204
   5 C     6.0000    0    12.011   -1.262473   -1.742817    0.232998
   6 H     1.0000    0     1.008   -2.390540   -3.331663   -0.460898
   7 C     6.0000    0    12.011   -2.393456    0.726041   -0.852167
   8 H     1.0000    0     1.008   -2.531489    0.601208   -2.922906
   9 O     8.0000    0    15.999   -0.836576    2.811764   -0.181894
  10 O     8.0000    0    15.999   -4.773197    1.132664    0.094968
  11 O     8.0000    0    15.999   -1.486878   -1.728734    2.874350
  12 O     8.0000    0    15.999    1.473070   -2.656423   -3.219657
  13 O     8.0000    0    15.999    3.271670    0.565378    2.556435
  14 H     1.0000    0     1.008    1.493976    2.376357   -3.282239
  15 H     1.0000    0     1.008    2.556382    4.379361   -0.772144
  16 H     1.0000    0     1.008   -4.711518    0.768583    1.892051
  17 H     1.0000    0     1.008   -0.141557   -0.668162    3.533035
  18 H     1.0000    0     1.008    3.145398   -3.156539   -3.740228
  19 H     1.0000    0     1.008    3.703358    2.287195    2.970578

--------------------------------
INTERNAL COORDINATES (ANGSTROEM)
--------------------------------
 C      0   0   0     0.000000000000     0.00000000     0.00000000
 C      1   0   0     1.533411653272     0.00000000     0.00000000
 H      2   1   0     1.104136094323   109.07713721     0.00000000
 C      2   1   3     1.544159802613   108.94906546   240.79610059
 H      4   2   1     1.100831210992   108.38418494   190.49796881
 C      4   2   1     1.537358155485   109.81839809   308.23618501
 H      6   4   2     1.094573523119   109.05237254   169.88047832
 C      6   4   2     1.547512305845   110.91416119    50.76543319
 H      8   6   4     1.100204592526   110.15576417    65.62173972
 O      1   2   3     1.401141242448   110.83535146   178.19938317
 O      8   6   4     1.372353094112   110.59339448   185.17487532
 O      6   4   2     1.402798098994   112.06970689   288.14640287
 O      4   2   1     1.404754041312   111.24277884    67.67061735
 O      2   1   3     1.411478370777   111.79351171   121.97960357
 H      1   2   3     1.099655472416   108.87222527    56.10816819
 H      1   2   3     1.093838053795   110.86007274   295.74434236
 H     11   8   6     0.970844566398   107.20396443    43.55459984
 H     12   6   4     0.971234050232   107.37422138    44.38019057
 H     13   4   2     0.963886052200   109.37505081    68.95982543
 H     14   2   1     0.964572982993   109.04366228   318.13644520

---------------------------
INTERNAL COORDINATES (A.U.)
---------------------------
 C      0   0   0     0.000000000000     0.00000000     0.00000000
 C      1   0   0     2.897728075248     0.00000000     0.00000000
 H      2   1   0     2.086514832847   109.07713721     0.00000000
 C      2   1   3     2.918039133948   108.94906546   240.79610059
 H      4   2   1     2.080269508448   108.38418494   190.49796881
 C      4   2   1     2.905185883617   109.81839809   308.23618501
 H      6   4   2     2.068444192137   109.05237254   169.88047832
 C      6   4   2     2.924374446920   110.91416119    50.76543319
 H      8   6   4     2.079085371156   110.15576417    65.62173972
 O      1   2   3     2.647773223168   110.83535146   178.19938317
 O      8   6   4     2.593371506911   110.59339448   185.17487532
 O      6   4   2     2.650904228284   112.06970689   288.14640287
 O      4   2   1     2.654600423599   111.24277884    67.67061735
 O      2   1   3     2.667307564722   111.79351171   121.97960357
 H      1   2   3     2.078047684535   108.87222527    56.10816819
 H      1   2   3     2.067054356533   110.86007274   295.74434236
 H     11   8   6     1.834630349098   107.20396443    43.55459984
 H     12   6   4     1.835366366878   107.37422138    44.38019057
 H     13   4   2     1.821480662964   109.37505081    68.95982543
 H     14   2   1     1.822778774037   109.04366228   318.13644520

---------------------
BASIS SET INFORMATION
---------------------
There are 3 groups of distinct atoms

 Group   1 Type C   : 7s4p1d contracted to 3s2p1d pattern {511/31/1}
 Group   2 Type H   : 4s contracted to 2s pattern {31}
 Group   3 Type O   : 7s4p1d contracted to 3s2p1d pattern {511/31/1}

Atom   0C    basis set group =>   1
Atom   1C    basis set group =>   1
Atom   2H    basis set group =>   2
Atom   3C    basis set group =>   1
Atom   4H    basis set group =>   2
Atom   5C    basis set group =>   1
Atom   6H    basis set group =>   2
Atom   7C    basis set group =>   1
Atom   8H    basis set group =>   2
Atom   9O    basis set group =>   3
Atom  10O    basis set group =>   3
Atom  11O    basis set group =>   3
Atom  12O    basis set group =>   3
Atom  13O    basis set group =>   3
Atom  14H    basis set group =>   2
Atom  15H    basis set group =>   2
Atom  16H    basis set group =>   2
Atom  17H    basis set group =>   2
Atom  18H    basis set group =>   2
Atom  19H    basis set group =>   2
---------------------------------
AUXILIARY/J BASIS SET INFORMATION
---------------------------------
There are 3 groups of distinct atoms

 Group   1 Type C   : 12s5p4d2f1g contracted to 6s4p3d1f1g pattern {711111/2111/211/2/1}
 Group   2 Type H   : 5s2p1d contracted to 3s1p1d pattern {311/2/1}
 Group   3 Type O   : 12s5p4d2f1g contracted to 6s4p3d1f1g pattern {711111/2111/211/2/1}

Atom   0C    basis set group =>   1
Atom   1C    basis set group =>   1
Atom   2H    basis set group =>   2
Atom   3C    basis set group =>   1
Atom   4H    basis set group =>   2
Atom   5C    basis set group =>   1
Atom   6H    basis set group =>   2
Atom   7C    basis set group =>   1
Atom   8H    basis set group =>   2
Atom   9O    basis set group =>   3
Atom  10O    basis set group =>   3
Atom  11O    basis set group =>   3
Atom  12O    basis set group =>   3
Atom  13O    basis set group =>   3
Atom  14H    basis set group =>   2
Atom  15H    basis set group =>   2
Atom  16H    basis set group =>   2
Atom  17H    basis set group =>   2
Atom  18H    basis set group =>   2
Atom  19H    basis set group =>   2

Checking for AutoStart:
The File: sp.gbw exists
Trying to determine its content:
     ... Fine, the file contains calculation information
     ... Fine, the calculation information was read
     ... Fine, the file contains a basis set
     ... Fine, the basis set was read
     ... Fine, the file contains a geometry
     ... Fine, the geometry was read
     ... Fine, the file contains a set of orbitals
     ... Fine, the orbitals can be read
     => possible old guess file was deleted
     => GBW file was renamed to GES file
     => GES file is set as startup file
     => Guess is set to MORead
     ... now leaving AutoStart

------------------------------------------------------------------------------
                             ORCA STARTUP CALCULATIONS
                           -- RI-GTO INTEGRALS CHOSEN --
------------------------------------------------------------------------------
------------------------------------------------------------------------------
                   ___                                                        
                  /   \      - P O W E R E D   B Y -                         
                 /     \                                                     
                 |  |  |   _    _      __       _____    __    __             
                 |  |  |  | |  | |    /  \     |  _  \  |  |  /  |          
                  \  \/   | |  | |   /    \    | | | |  |  | /  /          
                 / \  \   | |__| |  /  /\  \   | |_| |  |  |/  /          
                |  |  |   |  __  | /  /__\  \  |    /   |      \           
                |  |  |   | |  | | |   __   |  |    \   |  |\   \          
                \     /   | |  | | |  |  |  |  | |\  \  |  | \   \       
                 \___/    |_|  |_| |__|  |__|  |_| \__\ |__|  \__/        
                                                                              
                      - O R C A' S   B I G   F R I E N D -                    
                                      &                                       
                       - I N T E G R A L  F E E D E R -                       
                                                                              
 v1 FN, 2020, v2 2021, v3 2022-2024                                           
------------------------------------------------------------------------------


----------------------
SHARK INTEGRAL PACKAGE
----------------------

Number of atoms                             ...     20
Number of basis functions                   ...    160
Number of shells                            ...     80
Maximum angular momentum                    ...      2
Integral batch strategy                     ... SHARK/LIBINT Hybrid
RI-J (if used) integral strategy            ... SPLIT-RIJ (Revised 2003 algorithm where possible)
Printlevel                                  ...      1
Contraction scheme used                     ... SEGMENTED contraction
Prescreening option                         ... SCHWARTZ
   Thresh                                   ... 1.000e-09
   Tcut                                     ... 1.000e-10
   Tpresel                                  ... 1.000e-10 
Coulomb Range Separation                    ... NOT USED
Exchange Range Separation                   ... NOT USED
Multipole approximations                    ... NOT USED
Finite Nucleus Model                        ... NOT USED
CABS basis                                  ... NOT available
Auxiliary Coulomb fitting basis             ... AVAILABLE
   # of basis functions in Aux-J            ...    600
   # of shells in Aux-J                     ...    200
   Maximum angular momentum in Aux-J        ...      4
Auxiliary J/K fitting basis                 ... NOT available
Auxiliary Correlation fitting basis         ... NOT available
Auxiliary 'external' fitting basis          ... NOT available

Checking pre-screening integrals            ... done (  0.0 sec) Dimension = 80
Check shell pair data                       ... done (  0.0 sec)
Shell pair information
Shell pair cut-off parameter TPreSel        ...   1.0e-10
Total number of shell pairs                 ...      3240
Shell pairs after pre-screening             ...      3076
Total number of primitive shell pairs       ...     13040
Primitive shell pairs kept                  ...      8635
          la=0 lb=0:   1197 shell pairs
          la=1 lb=0:    962 shell pairs
          la=1 lb=1:    208 shell pairs
          la=2 lb=0:    460 shell pairs
          la=2 lb=1:    196 shell pairs
          la=2 lb=2:     53 shell pairs

Calculating one electron integrals          ... done (  0.0 sec)
Calculating RI/J V-Matrix + Cholesky decomp.... done (  0.0 sec)
Calculating Nuclear repulsion               ... done (  0.0 sec) ENN=    637.107094491684 Eh

Diagonalization of the overlap matrix:
Smallest eigenvalue                        ... 1.053e-03
Time for diagonalization                   ...    0.002 sec
Threshold for overlap eigenvalues          ... 1.000e-07
Number of eigenvalues below threshold      ... 0
Time for construction of square roots      ...    0.005 sec
Total time needed                          ...    0.012 sec

-------------------
DFT GRID GENERATION
-------------------

General Integration Accuracy     IntAcc      ... 4.159
Radial Grid Type                 RadialGrid  ... OptM3 with GC (2021)
Angular Grid (max. ang.)         AngularGrid ... 3 (Lebedev-194)
Angular grid pruning method      GridPruning ... 4 (adaptive)
Weight generation scheme         WeightScheme... mBecke (2022)
Basis function cutoff            BFCut       ... 1.0000e-10
Integration weight cutoff        WCut        ... 1.0000e-14
Partially contracted basis set               ... off
Rotationally invariant grid construction     ... off
Angular grids for H and He will be reduced by one unit

Total number of grid points                  ...    46518
Total number of batches                      ...      739
Average number of points per batch           ...       62
Average number of grid points per atom       ...     2326
Initializing property integral containers    ... done (  0.0 sec)

SHARK setup successfully completed in   0.5 seconds

Maximum memory used throughout the entire STARTUP-calculation: 23.9 MB
-------------------------------------------------------------------------------
                                 ORCA GUESS
                   Start orbitals & Density for SCF / CASSCF
-------------------------------------------------------------------------------

------------
SCF SETTINGS
------------
Hamiltonian:
 Density Functional     Method          .... DFT(GTOs)
 Exchange Functional    Exchange        .... PBE
   PBE kappa parameter   XKappa         ....  0.804000
   PBE mue parameter    XMuePBE         ....  0.219520
 Correlation Functional Correlation     .... PBE
   PBE beta parameter  CBetaPBE         ....  0.066725
 LDA part of GGA corr.  LDAOpt          .... PW91-LDA
 Gradients option       PostSCFGGA      .... off
   NL short-range parameter             ....  6.400000
 RI-approximation to the Coulomb term is turned on
   Number of AuxJ basis functions       .... 600


General Settings:
 Integral files         IntName         .... sp
 Hartree-Fock type      HFTyp           .... RHF
 Total Charge           Charge          ....    0
 Multiplicity           Mult            ....    1
 Number of Electrons    NEL             ....   80
 Basis Dimension        Dim             ....  160
 Nuclear Repulsion      ENuc            ....    637.1070944917 Eh

Convergence Acceleration:
 AO-DIIS                CNVDIIS         .... on
   Start iteration      DIISMaxIt       ....    12
   Startup error        DIISStart       ....  0.200000
   # of expansion vecs  DIISMaxEq       ....     5
   Bias factor          DIISBfac        ....   1.050
   Max. coefficient     DIISMaxC        ....  10.000
 MO-DIIS                CNVKDIIS        .... off
 Trust-Rad. Augm. Hess. CNVTRAH         .... auto
   Auto Start mean grad. ratio tolernc. ....  1.125000
   Auto Start start iteration           ....     1
   Auto Start num. interpolation iter.  ....    10
   Max. Number of Micro iterations      ....    24
   Max. Number of Macro iterations      .... Maxiter - #DIIS iter
   Number of Davidson start vectors     ....     2
   Converg. threshold    (grad. norm)   ....   1.000e-04
   Grad. Scal. Fac. for Micro threshold ....   0.100
   Minimum threshold for Micro iter.    ....   1.000e-02
   NR start threshold (gradient norm)   ....   1.000e-04
   Initial trust radius                 ....   0.400
   Minimum AH scaling param. (alpha)    ....   1.000
   Maximum AH scaling param. (alpha)    .... 1000.000
   Quad. conv. algorithm                .... NR
   White noise on init. David. guess    .... on
   Maximum white noise                  ....   0.010
   Pseudo random numbers                .... off
   Inactive MOs                         .... canonical
   Orbital update algorithm             .... Taylor
   Preconditioner                       .... Diag
   Full preconditioner red. dimension   ....   250
 SOSCF                  CNVSOSCF        .... on
   Start iteration      SOSCFMaxIt      ....   150
   Startup grad/error   SOSCFStart      ....  0.003300
   Hessian update       SOSCFHessUp     .... L-BFGS
 Level Shifting         CNVShift        .... on
   Level shift para.    LevelShift      ....    0.2500
   Turn off err/grad.   ShiftErr        ....    0.0010
 Zerner damping         CNVZerner       .... off
 Static damping         CNVDamp         .... on
   Fraction old density DampFac         ....    0.7000
   Max. Damping (<1)    DampMax         ....    0.9800
   Min. Damping (>=0)   DampMin         ....    0.0000
   Turn off err/grad.   DampErr         ....    0.1000

SCF Procedure:
 Maximum # iterations   MaxIter         ....   125
 SCF integral mode      SCFMode         .... Direct
   Integral package                     .... SHARK and LIBINT hybrid scheme
 Reset frequency        DirectResetFreq ....    20
 Integral Threshold     Thresh          ....  1.000e-09 Eh
 Primitive CutOff       TCut            ....  1.000e-10 Eh

Convergence Tolerance:
 Convergence Check Mode ConvCheckMode   .... Total+1el-Energy
 Convergence forced     ConvForced      .... 0
 Energy Change          TolE            ....  1.000e-05 Eh
 1-El. energy change                    ....  1.000e-02 Eh
 Orbital Gradient       TolG            ....  1.000e-04
 Orbital Rotation angle TolX            ....  1.000e-04
 DIIS Error             TolErr          ....  5.000e-04

---------------------
INITIAL GUESS: MOREAD
---------------------
Guess MOs are being read from file: sp.ges
Input Geometry matches current geometry (good)
Input basis set matches current basis set (good)
Occupation numbers will be reassigned to an Aufbau configuration
MOs were renormalized
MOs were reorthogonalized (Cholesky)
                      ------------------
                      INITIAL GUESS DONE (   0.0 sec)
                      ------------------
             **** ENERGY FILE WAS UPDATED (sp.en.tmp) ****
Finished Guess after   0.1 sec
Maximum memory used throughout the entire GUESS-calculation: 11.9 MB

-------------------------------------------------------------------------------------------
                                      ORCA LEAN-SCF
                              memory conserving SCF solver
-------------------------------------------------------------------------------------------

----------------------------------------D-I-I-S--------------------------------------------
Iteration    Energy (Eh)           Delta-E    RMSDP     MaxDP     DIISErr   Damp  Time(sec)
-------------------------------------------------------------------------------------------
               ***  Starting incremental Fock matrix formation  ***
                              *** Initializing SOSCF ***
---------------------------------------S-O-S-C-F--------------------------------------
Iteration    Energy (Eh)           Delta-E    RMSDP     MaxDP     MaxGrad    Time(sec)
--------------------------------------------------------------------------------------
    1    -571.5305137815201988     0.00e+00  2.21e-05  4.66e-04  2.15e-05     0.7
               *** Restarting incremental Fock matrix formation ***
    2    -571.5305138359852890    -5.45e-08  3.61e-05  8.21e-04  9.09e-05     0.7
    3    -571.5305121991085571     1.64e-06  2.44e-05  6.20e-04  1.99e-04     0.6
                 **** Energy Check signals convergence ****

               *****************************************************
               *                     SUCCESS                       *
               *           SCF CONVERGED AFTER   3 CYCLES          *
               *****************************************************

             **** ENERGY FILE WAS UPDATED (sp.en.tmp) ****

----------------
TOTAL SCF ENERGY
----------------

Total Energy       :       -571.53051219910856 Eh          -15552.13589 eV

Components:
Nuclear Repulsion  :        637.10709449168405 Eh           17336.56542 eV
Electronic Energy  :      -1208.63760669079261 Eh          -32888.70131 eV
One Electron Energy:      -2048.28106517701417 Eh          -55736.56138 eV
Two Electron Energy:        839.64345848622156 Eh           22847.86007 eV

Virial components:
Potential Energy   :      -1139.13876556699825 Eh          -30997.54170 eV
Kinetic Energy     :        567.60825336788969 Eh           15445.40580 eV
Virial Ratio       :          2.00691015116138

DFT components:
N(Alpha)           :       40.000083734074 electrons
N(Beta)            :       40.000083734074 electrons
N(Total)           :       80.000167468149 electrons
E(X)               :      -70.503460571202 Eh       
E(C)               :       -2.737291032382 Eh       
E(XC)              :      -73.240751603584 Eh       

---------------
SCF CONVERGENCE
---------------

  Last Energy change         ...   -1.6369e-06  Tolerance :   1.0000e-05
  Last MAX-Density change    ...    6.1991e-04  Tolerance :   1.0000e-03
  Last RMS-Density change    ...    2.4393e-05  Tolerance :   1.0000e-04
  Last DIIS Error            ...    3.5503e-04  Tolerance :   5.0000e-04
  Last Orbital Gradient      ...    1.9905e-04  Tolerance :   1.0000e-04
  Last Orbital Rotation      ...    1.1164e-04  Tolerance :   1.0000e-04


----------------
ORBITAL ENERGIES
----------------

  NO   OCC          E(Eh)            E(eV) 
   0   2.0000     -18.783117      -511.1146 
   1   2.0000     -18.769500      -510.7441 
   2   2.0000     -18.762880      -510.5639 
   3   2.0000     -18.750926      -510.2386 
   4   2.0000     -18.745903      -510.1019 
   5   2.0000      -9.972521      -271.3661 
   6   2.0000      -9.956568      -270.9320 
   7   2.0000      -9.951449      -270.7927 
   8   2.0000      -9.942984      -270.5623 
   9   2.0000      -9.935479      -270.3581 
  10   2.0000      -0.981232       -26.7007 
  11   2.0000      -0.955768       -26.0078 
  12   2.0000      -0.945236       -25.7212 
  13   2.0000      -0.925257       -25.1775 
  14   2.0000      -0.906798       -24.6752 
  15   2.0000      -0.703241       -19.1361 
  16   2.0000      -0.671484       -18.2720 
  17   2.0000      -0.597490       -16.2585 
  18   2.0000      -0.581567       -15.8252 
  19   2.0000      -0.536562       -14.6006 
  20   2.0000      -0.498444       -13.5633 
  21   2.0000      -0.489059       -13.3080 
  22   2.0000      -0.468808       -12.7569 
  23   2.0000      -0.446296       -12.1443 
  24   2.0000      -0.436917       -11.8891 
  25   2.0000      -0.425627       -11.5819 
  26   2.0000      -0.417227       -11.3533 
  27   2.0000      -0.389739       -10.6053 
  28   2.0000      -0.372117       -10.1258 
  29   2.0000      -0.357448        -9.7267 
  30   2.0000      -0.327443        -8.9102 
  31   2.0000      -0.320038        -8.7087 
  32   2.0000      -0.300076        -8.1655 
  33   2.0000      -0.286205        -7.7880 
  34   2.0000      -0.273308        -7.4371 
  35   2.0000      -0.258005        -7.0207 
  36   2.0000      -0.247351        -6.7308 
  37   2.0000      -0.236306        -6.4302 
  38   2.0000      -0.226524        -6.1640 
  39   2.0000      -0.201008        -5.4697 
  40   0.0000       0.007272         0.1979 
  41   0.0000       0.007948         0.2163 
  42   0.0000       0.055677         1.5151 
  43   0.0000       0.069958         1.9036 
  44   0.0000       0.076330         2.0770 
  45   0.0000       0.078914         2.1474 
  46   0.0000       0.088880         2.4186 
  47   0.0000       0.105341         2.8665 
  48   0.0000       0.116719         3.1761 
  49   0.0000       0.123651         3.3647 
  50   0.0000       0.130489         3.5508 
*Only the first 10 virtual orbitals were printed.

                    ********************************
                    * MULLIKEN POPULATION ANALYSIS *
                    ********************************

-----------------------
MULLIKEN ATOMIC CHARGES
-----------------------
   0 C :    0.033112
   1 C :    0.009323
   2 H :    0.056930
   3 C :    0.015952
   4 H :    0.083913
   5 C :    0.047767
   6 H :    0.084836
   7 C :    0.163643
   8 H :    0.062769
   9 O :   -0.301870
  10 O :   -0.370321
  11 O :   -0.438726
  12 O :   -0.406504
  13 O :   -0.420991
  14 H :    0.074611
  15 H :    0.089910
  16 H :    0.298843
  17 H :    0.300550
  18 H :    0.305219
  19 H :    0.311035
Sum of atomic charges:   -0.0000000

--------------------------------
MULLIKEN REDUCED ORBITAL CHARGES
--------------------------------
  0 C s       :     3.027558  s :     3.027558
      pz      :     1.033011  p :     2.875583
      px      :     0.812610
      py      :     1.029962
      dz2     :     0.016110  d :     0.063748
      dxz     :     0.013067
      dyz     :     0.003799
      dx2y2   :     0.014113
      dxy     :     0.016660

  1 C s       :     3.063802  s :     3.063802
      pz      :     0.767329  p :     2.859884
      px      :     1.038562
      py      :     1.053993
      dz2     :     0.020553  d :     0.066992
      dxz     :     0.017849
      dyz     :     0.012156
      dx2y2   :     0.009765
      dxy     :     0.006669

  2 H s       :     0.943070  s :     0.943070

  3 C s       :     3.072579  s :     3.072579
      pz      :     0.753858  p :     2.844093
      px      :     1.090698
      py      :     0.999537
      dz2     :     0.019244  d :     0.067376
      dxz     :     0.012034
      dyz     :     0.017866
      dx2y2   :     0.008077
      dxy     :     0.010156

  4 H s       :     0.916087  s :     0.916087

  5 C s       :     3.050520  s :     3.050520
      pz      :     0.765796  p :     2.834513
      px      :     1.021631
      py      :     1.047086
      dz2     :     0.020186  d :     0.067201
      dxz     :     0.014475
      dyz     :     0.016470
      dx2y2   :     0.006687
      dxy     :     0.009383

  6 H s       :     0.915164  s :     0.915164

  7 C s       :     3.052780  s :     3.052780
      pz      :     1.031044  p :     2.682928
      px      :     0.786537
      py      :     0.865347
      dz2     :     0.021724  d :     0.100649
      dxz     :     0.015618
      dyz     :     0.010094
      dx2y2   :     0.023937
      dxy     :     0.029276

  8 H s       :     0.937231  s :     0.937231

  9 O s       :     3.760680  s :     3.760680
      pz      :     1.718688  p :     4.525484
      px      :     1.250689
      py      :     1.556108
      dz2     :     0.002170  d :     0.015706
      dxz     :     0.003478
      dyz     :     0.002415
      dx2y2   :     0.003850
      dxy     :     0.003793

 10 O s       :     3.761519  s :     3.761519
      pz      :     1.308543  p :     4.592641
      px      :     1.448397
      py      :     1.835701
      dz2     :     0.006847  d :     0.016160
      dxz     :     0.002114
      dyz     :     0.001240
      dx2y2   :     0.003496
      dxy     :     0.002464

 11 O s       :     3.789902  s :     3.789902
      pz      :     1.288226  p :     4.633285
      px      :     1.624042
      py      :     1.721017
      dz2     :     0.004599  d :     0.015539
      dxz     :     0.003010
      dyz     :     0.002516
      dx2y2   :     0.000956
      dxy     :     0.004458

 12 O s       :     3.788133  s :     3.788133
      pz      :     1.341504  p :     4.602828
      px      :     1.426769
      py      :     1.834555
      dz2     :     0.004973  d :     0.015543
      dxz     :     0.002925
      dyz     :     0.001875
      dx2y2   :     0.003947
      dxy     :     0.001824

 13 O s       :     3.784088  s :     3.784088
      pz      :     1.355603  p :     4.621744
      px      :     1.850125
      py      :     1.416017
      dz2     :     0.005464  d :     0.015159
      dxz     :     0.001826
      dyz     :     0.002213
      dx2y2   :     0.004096
      dxy     :     0.001561

 14 H s       :     0.925389  s :     0.925389

 15 H s       :     0.910090  s :     0.910090

 16 H s       :     0.701157  s :     0.701157

 17 H s       :     0.699450  s :     0.699450

 18 H s       :     0.694781  s :     0.694781

 19 H s       :     0.688965  s :     0.688965


------------------------
MULLIKEN OVERLAP CHARGES
------------------------
B(  0-C ,  1-C ) :   0.6508 B(  0-C ,  2-H ) :  -0.0568 B(  0-C ,  5-C ) :  -0.0724 
B(  0-C ,  9-O ) :   0.6794 B(  0-C , 14-H ) :   0.6360 B(  0-C , 15-H ) :   0.7037 
B(  1-C ,  2-H ) :   0.6457 B(  1-C ,  3-C ) :   0.3653 B(  1-C ,  4-H ) :  -0.1566 
B(  1-C ,  7-C ) :  -0.0979 B(  1-C ,  9-O ) :  -0.0936 B(  1-C , 12-O ) :  -0.1025 
B(  1-C , 13-O ) :   0.4925 B(  1-C , 14-H ) :  -0.0554 B(  1-C , 19-H ) :  -0.0707 
B(  2-H ,  3-C ) :  -0.1203 B(  3-C ,  4-H ) :   0.7546 B(  3-C ,  5-C ) :   0.2166 
B(  3-C ,  9-O ) :  -0.0513 B(  3-C , 12-O ) :   0.5858 B(  3-C , 13-O ) :  -0.1144 
B(  3-C , 18-H ) :  -0.0747 B(  4-H ,  5-C ) :  -0.1035 B(  5-C ,  6-H ) :   0.6223 
B(  5-C ,  7-C ) :   0.4165 B(  5-C ,  8-H ) :  -0.1130 B(  5-C ,  9-O ) :  -0.0512 
B(  5-C , 10-O ) :  -0.0577 B(  5-C , 11-O ) :   0.5336 B(  5-C , 12-O ) :  -0.1232 
B(  5-C , 16-H ) :  -0.0543 B(  5-C , 17-H ) :  -0.1128 B(  6-H , 11-O ) :  -0.0573 
B(  7-C ,  8-H ) :   0.6922 B(  7-C ,  9-O ) :   0.4644 B(  7-C , 10-O ) :   0.7665 
B(  7-C , 11-O ) :  -0.0634 B(  7-C , 16-H ) :  -0.0906 B(  8-H ,  9-O ) :  -0.0891 
B(  8-H , 10-O ) :  -0.0741 B(  9-O , 10-O ) :  -0.1295 B(  9-O , 14-H ) :  -0.0670 
B(  9-O , 15-H ) :  -0.0568 B( 10-O , 16-H ) :   0.5186 B( 11-O , 16-H ) :   0.0802 
B( 11-O , 17-H ) :   0.5438 B( 12-O , 18-H ) :   0.5192 B( 13-O , 17-H ) :   0.1148 
B( 13-O , 19-H ) :   0.5143 B( 14-H , 15-H ) :  -0.0647 


                     *******************************
                     * LOEWDIN POPULATION ANALYSIS *
                     *******************************

----------------------
LOEWDIN ATOMIC CHARGES
----------------------
   0 C :   -0.131114
   1 C :   -0.091336
   2 H :    0.096725
   3 C :   -0.073481
   4 H :    0.106455
   5 C :   -0.084089
   6 H :    0.122375
   7 C :   -0.006556
   8 H :    0.099419
   9 O :   -0.168685
  10 O :   -0.284652
  11 O :   -0.315698
  12 O :   -0.311320
  13 O :   -0.308712
  14 H :    0.107763
  15 H :    0.110318
  16 H :    0.278965
  17 H :    0.271111
  18 H :    0.290494
  19 H :    0.292017

-------------------------------
LOEWDIN REDUCED ORBITAL CHARGES
-------------------------------
  0 C s       :     2.922274  s :     2.922274
      pz      :     1.084294  p :     3.062976
      px      :     0.895794
      py      :     1.082888
      dz2     :     0.038039  d :     0.145863
      dxz     :     0.029009
      dyz     :     0.008755
      dx2y2   :     0.030715
      dxy     :     0.039345

  1 C s       :     2.902907  s :     2.902907
      pz      :     0.863491  p :     3.031691
      px      :     1.074456
      py      :     1.093744
      dz2     :     0.048845  d :     0.156737
      dxz     :     0.040199
      dyz     :     0.025836
      dx2y2   :     0.021861
      dxy     :     0.019996

  2 H s       :     0.903275  s :     0.903275

  3 C s       :     2.895555  s :     2.895555
      pz      :     0.874030  p :     3.019177
      px      :     1.088968
      py      :     1.056179
      dz2     :     0.046386  d :     0.158750
      dxz     :     0.026058
      dyz     :     0.040474
      dx2y2   :     0.020640
      dxy     :     0.025191

  4 H s       :     0.893545  s :     0.893545

  5 C s       :     2.897527  s :     2.897527
      pz      :     0.876112  p :     3.028876
      px      :     1.061631
      py      :     1.091132
      dz2     :     0.047004  d :     0.157686
      dxz     :     0.031714
      dyz     :     0.036890
      dx2y2   :     0.019768
      dxy     :     0.022310

  6 H s       :     0.877625  s :     0.877625

  7 C s       :     2.889983  s :     2.889983
      pz      :     1.071867  p :     2.891447
      px      :     0.866626
      py      :     0.952954
      dz2     :     0.050144  d :     0.225126
      dxz     :     0.032675
      dyz     :     0.022243
      dx2y2   :     0.052402
      dxy     :     0.067662

  8 H s       :     0.900581  s :     0.900581

  9 O s       :     3.483932  s :     3.483932
      pz      :     1.748866  p :     4.654678
      px      :     1.320386
      py      :     1.585426
      dz2     :     0.003734  d :     0.030076
      dxz     :     0.006857
      dyz     :     0.003439
      dx2y2   :     0.007921
      dxy     :     0.008124

 10 O s       :     3.521773  s :     3.521773
      pz      :     1.383692  p :     4.734460
      px      :     1.519773
      py      :     1.830995
      dz2     :     0.012386  d :     0.028419
      dxz     :     0.004359
      dyz     :     0.002134
      dx2y2   :     0.005995
      dxy     :     0.003545

 11 O s       :     3.526472  s :     3.526472
      pz      :     1.364515  p :     4.762236
      px      :     1.655746
      py      :     1.741975
      dz2     :     0.009601  d :     0.026990
      dxz     :     0.005389
      dyz     :     0.004363
      dx2y2   :     0.001092
      dxy     :     0.006545

 12 O s       :     3.534497  s :     3.534497
      pz      :     1.418741  p :     4.749490
      px      :     1.495991
      py      :     1.834758
      dz2     :     0.009837  d :     0.027333
      dxz     :     0.005347
      dyz     :     0.003334
      dx2y2   :     0.006114
      dxy     :     0.002701

 13 O s       :     3.531371  s :     3.531371
      pz      :     1.423678  p :     4.750577
      px      :     1.848206
      py      :     1.478692
      dz2     :     0.010689  d :     0.026764
      dxz     :     0.002978
      dyz     :     0.004343
      dx2y2   :     0.006447
      dxy     :     0.002306

 14 H s       :     0.892237  s :     0.892237

 15 H s       :     0.889682  s :     0.889682

 16 H s       :     0.721035  s :     0.721035

 17 H s       :     0.728889  s :     0.728889

 18 H s       :     0.709506  s :     0.709506

 19 H s       :     0.707983  s :     0.707983


---------------------------------
LOEWDIN BOND ORDERS (THRESH 0.050000)
---------------------------------
B(  0-C ,  1-C ) :   1.0640 B(  0-C ,  3-C ) :   0.0527 B(  0-C ,  7-C ) :   0.0708 
B(  0-C ,  9-O ) :   1.1902 B(  0-C , 13-O ) :   0.0697 B(  0-C , 14-H ) :   0.8877 
B(  0-C , 15-H ) :   0.9069 B(  1-C ,  2-H ) :   0.8715 B(  1-C ,  3-C ) :   1.0158 
B(  1-C ,  5-C ) :   0.0516 B(  1-C ,  9-O ) :   0.0708 B(  1-C , 12-O ) :   0.0819 
B(  1-C , 13-O ) :   1.1946 B(  3-C ,  4-H ) :   0.8720 B(  3-C ,  5-C ) :   1.0188 
B(  3-C ,  7-C ) :   0.0535 B(  3-C , 11-O ) :   0.0721 B(  3-C , 12-O ) :   1.2170 
B(  3-C , 13-O ) :   0.0597 B(  5-C ,  6-H ) :   0.8720 B(  5-C ,  7-C ) :   1.0106 
B(  5-C ,  9-O ) :   0.0653 B(  5-C , 10-O ) :   0.0771 B(  5-C , 11-O ) :   1.2275 
B(  5-C , 12-O ) :   0.0617 B(  7-C ,  8-H ) :   0.8741 B(  7-C ,  9-O ) :   1.1315 
B(  7-C , 10-O ) :   1.3341 B(  7-C , 11-O ) :   0.0802 B(  9-O , 10-O ) :   0.0803 
B( 10-O , 16-H ) :   0.8552 B( 11-O , 16-H ) :   0.0545 B( 11-O , 17-H ) :   0.8468 
B( 12-O , 18-H ) :   0.8808 B( 13-O , 17-H ) :   0.0886 B( 13-O , 19-H ) :   0.8760 


------------------------------------------
LOEWDIN REDUCED ORBITAL POPULATIONS PER MO
-------------------------------------------
THRESHOLD FOR PRINTING IS 0.1%%
                      0         1         2         3         4         5   
                 -18.78312 -18.76950 -18.76288 -18.75093 -18.74590  -9.97252
                   2.00000   2.00000   2.00000   2.00000   2.00000   2.00000
                  --------  --------  --------  --------  --------  --------
 7 C  s               0.0       0.0       0.0       0.0       0.0      99.6
 9 O  s               0.0       0.0      99.9       0.0       0.0       0.0
10 O  s               0.0       0.0       0.0       0.0      99.9       0.0
10 O  px              0.0       0.0       0.0       0.0       0.0       0.1
11 O  s               0.0       0.0       0.0      99.9       0.0       0.0
12 O  s               0.0      99.9       0.0       0.0       0.0       0.0
13 O  s              99.9       0.0       0.0       0.0       0.0       0.0

                      6         7         8         9        10        11   
                  -9.95657  -9.95145  -9.94298  -9.93548  -0.98123  -0.95577
                   2.00000   2.00000   2.00000   2.00000   2.00000   2.00000
                  --------  --------  --------  --------  --------  --------
 0 C  s               0.0       0.0      99.6       0.0       5.0       0.1
 0 C  pz              0.0       0.0       0.0       0.0       1.0       0.1
 0 C  px              0.0       0.0       0.0       0.0       2.2       1.7
 0 C  py              0.1       0.0       0.0       0.0       0.2       0.4
 0 C  dx2y2           0.0       0.0       0.0       0.0       0.1       0.1
 1 C  s              99.6       0.0       0.0       0.0       4.0       6.5
 1 C  pz              0.0       0.0       0.0       0.0       0.8       5.2
 1 C  px              0.0       0.0       0.0       0.0       0.5       0.1
 1 C  py              0.0       0.1       0.1       0.0       0.1       0.0
 1 C  dz2             0.0       0.0       0.0       0.0       0.1       0.5
 2 H  s               0.1       0.0       0.0       0.0       0.5       0.8
 3 C  s               0.0      99.6       0.0       0.0       2.2       1.9
 3 C  pz              0.0       0.0       0.0       0.0       0.0       0.3
 3 C  px              0.0       0.0       0.0       0.1       0.1       0.4
 3 C  py              0.1       0.0       0.0       0.0       0.4       0.1
 4 H  s               0.0       0.1       0.0       0.0       0.3       0.3
 5 C  s               0.0       0.0       0.0      99.6       3.6       0.1
 5 C  pz              0.0       0.0       0.0       0.0       0.2       0.0
 5 C  px              0.0       0.1       0.0       0.0       0.0       0.8
 5 C  py              0.0       0.0       0.0       0.0       1.1       0.5
 6 H  s               0.0       0.0       0.0       0.1       0.5       0.0
 7 C  s               0.0       0.0       0.0       0.0      11.0       4.6
 7 C  pz              0.0       0.0       0.0       0.0       1.4       0.6
 7 C  px              0.0       0.0       0.0       0.0       0.1       0.4
 7 C  py              0.0       0.0       0.0       0.1       1.3       0.7
 8 H  s               0.0       0.0       0.0       0.0       1.3       0.5
 9 O  s               0.0       0.0       0.0       0.0      22.1       5.6
 9 O  pz              0.0       0.0       0.0       0.0       0.4       0.1
 9 O  px              0.0       0.0       0.1       0.0       0.0       0.1
 9 O  py              0.0       0.0       0.0       0.0       1.2       0.4
10 O  s               0.0       0.0       0.0       0.0      10.9       9.8
10 O  px              0.0       0.0       0.0       0.0       1.3       0.8
11 O  s               0.0       0.0       0.0       0.0       4.6       0.1
11 O  pz              0.0       0.0       0.0       0.1       0.3       0.0
11 O  px              0.0       0.0       0.0       0.0       0.1       0.0
12 O  s               0.0       0.0       0.0       0.0       2.4       5.1
12 O  pz              0.0       0.1       0.0       0.0       0.1       0.2
12 O  px              0.0       0.0       0.0       0.0       0.1       0.2
13 O  s               0.0       0.0       0.0       0.0       9.5      37.8
13 O  pz              0.1       0.0       0.0       0.0       0.4       1.1
13 O  py              0.0       0.0       0.0       0.0       0.2       1.0
14 H  s               0.0       0.0       0.1       0.0       0.6       0.0
15 H  s               0.0       0.0       0.1       0.0       0.6       0.0
16 H  s               0.0       0.0       0.0       0.0       2.5       1.9
17 H  s               0.0       0.0       0.0       0.0       1.6       0.1
18 H  s               0.0       0.0       0.0       0.0       0.5       1.1
19 H  s               0.0       0.0       0.0       0.0       2.0       7.6

                     12        13        14        15        16        17   
                  -0.94524  -0.92526  -0.90680  -0.70324  -0.67148  -0.59749
                   2.00000   2.00000   2.00000   2.00000   2.00000   2.00000
                  --------  --------  --------  --------  --------  --------
 0 C  s               0.2       2.2       3.2       4.4      14.6       9.6
 0 C  pz              0.1       0.2       0.3       0.0       0.1       0.3
 0 C  px              0.0       1.3       2.4       2.1       1.0       0.3
 0 C  py              0.0       0.0       0.0       2.4       0.1       1.4
 0 C  dxz             0.0       0.1       0.1       0.0       0.0       0.0
 0 C  dx2y2           0.0       0.1       0.2       0.1       0.0       0.0
 1 C  s               0.3       0.2       0.0      15.3       3.7       3.3
 1 C  pz              2.8       0.0       0.5       2.2       1.4       0.6
 1 C  px              0.2       0.0       0.4       1.4       0.0       0.3
 1 C  py              1.2       0.2       0.1       0.7       3.2       8.1
 1 C  dz2             0.2       0.0       0.1       0.1       0.0       0.0
 2 H  s               0.0       0.0       0.0       3.0       1.2       1.1
 3 C  s               7.4       0.0       0.0      14.0       2.1       1.9
 3 C  pz              8.2       1.0       0.2       1.9       0.2       0.8
 3 C  px              0.0       0.7       0.1       0.0       3.9       6.7
 3 C  py              0.7       0.0       0.0       3.1       0.3       0.3
 3 C  dz2             0.7       0.0       0.0       0.2       0.0       0.0
 4 H  s               0.8       0.0       0.0       2.5       0.4       1.3
 5 C  s               0.7       6.8       0.6       5.1      10.2       8.0
 5 C  pz              0.1       8.5       1.1       1.5       2.9       0.8
 5 C  px              0.5       0.0       0.3       2.3       0.0       2.5
 5 C  py              0.1       0.0       0.0       0.0       0.4       0.3
 5 C  dz2             0.0       0.7       0.1       0.1       0.1       0.0
 6 H  s               0.2       0.8       0.0       0.9       2.4       3.9
 7 C  s               0.0       0.1       0.9       0.1       9.5       0.2
 7 C  pz              0.0       0.3       0.4       0.0       0.1       0.1
 7 C  px              0.0       0.6      12.7       0.1       1.9       0.1
 7 C  py              0.2       2.7       0.3       2.5       1.0       7.5
 7 C  dxz             0.0       0.0       0.5       0.0       0.1       0.0
 7 C  dyz             0.0       0.0       0.0       0.0       0.0       0.1
 7 C  dx2y2           0.0       0.0       0.4       0.0       0.1       0.0
 7 C  dxy             0.0       0.2       0.3       0.1       0.0       0.1
 8 H  s               0.0       0.0       0.1       0.1       2.1       0.3
 9 O  s               0.5      10.7      14.9       3.1       0.1       2.0
 9 O  pz              0.0       0.2       0.3       0.0       0.0       0.3
 9 O  px              0.0       0.3       1.2       0.8       7.7       5.9
 9 O  py              0.0       0.2       0.2       0.0       2.3       0.5
10 O  s               0.0       0.3      37.2       0.0       3.1       0.0
10 O  pz              0.0       0.0       0.5       0.0       1.7       0.0
10 O  px              0.0       0.0       1.1       0.0       1.5       0.0
10 O  py              0.0       0.0       0.3       0.1       0.0       0.6
11 O  s               0.4      46.8       6.1       2.1       2.7       0.5
11 O  pz              0.0       1.1       0.1       0.9       2.3       4.2
11 O  px              0.0       1.0       0.2       0.0       0.2       1.2
11 O  py              0.0       0.6       0.1       0.1       0.2       0.7
12 O  s              49.1       1.2       0.5       4.4       0.3       0.3
12 O  pz              1.2       0.0       0.0       3.0       0.8       0.3
12 O  px              1.6       0.1       0.0       1.2       0.8       0.3
12 O  py              0.0       0.0       0.0       0.7       0.0       0.0
13 O  s               9.5       0.0       2.5       3.5       1.0       0.1
13 O  pz              0.2       0.0       0.0       3.5       0.8       3.6
13 O  px              0.0       0.0       0.0       0.3       0.1       0.4
13 O  py              0.3       0.0       0.1       1.8       0.1       5.7
14 H  s               0.0       0.3       0.3       1.0       2.8       3.2
15 H  s               0.0       0.3       0.4       0.7       4.2       4.6
16 H  s               0.0       0.3       6.7       0.0       1.7       0.0
17 H  s               0.0       9.0       1.2       0.8       1.2       1.9
18 H  s              10.0       0.2       0.1       2.7       0.6       0.0
19 H  s               2.0       0.0       0.5       2.5       0.4       3.0

                     18        19        20        21        22        23   
                  -0.58157  -0.53656  -0.49844  -0.48906  -0.46881  -0.44630
                   2.00000   2.00000   2.00000   2.00000   2.00000   2.00000
                  --------  --------  --------  --------  --------  --------
 0 C  s               0.4       1.1       0.6       0.1       0.5       0.1
 0 C  pz              0.5       2.1       0.0       0.4       3.2      20.0
 0 C  px              3.8       0.2       1.2       2.0       0.0       3.2
 0 C  py              2.0       0.0       7.8       0.4       0.5       0.0
 0 C  dxz             0.1       0.0       0.0       0.0       0.0       0.0
 1 C  s               4.3       1.1       0.7       0.8       0.6       0.1
 1 C  pz              0.7       2.6       5.6       5.3       2.6       0.2
 1 C  px              1.2       0.7       0.0       9.5       3.6       3.5
 1 C  py              1.8       0.1       1.1       0.0       2.0       3.5
 1 C  dz2             0.0       0.1       0.1       0.1       0.2       0.2
 2 H  s               2.6       0.4       0.9       6.7       0.6       0.5
 3 C  s               7.2       2.1       0.5       0.7       1.6       0.3
 3 C  pz              0.4       2.4       3.8       0.1      12.6       0.3
 3 C  px              1.0       0.0       0.4       3.5       1.8       0.4
 3 C  py              2.7       0.1       4.3       3.3       0.1       0.0
 3 C  dz2             0.0       0.1       0.0       0.0       0.4       0.0
 3 C  dxz             0.0       0.0       0.0       0.0       0.1       0.0
 3 C  dyz             0.0       0.0       0.0       0.1       0.1       0.0
 4 H  s               3.1       0.2       3.6       2.0       4.7       0.0
 5 C  s               0.1       4.2       0.0       0.0       0.0       0.0
 5 C  pz              0.0       1.8       0.0       4.0       0.8       0.1
 5 C  px              4.4       2.4       0.0       1.0       3.0       1.4
 5 C  py              3.9       0.4       3.2       5.5       0.7       1.0
 5 C  dz2             0.0       0.0       0.0       0.1       0.1       0.1
 5 C  dx2y2           0.1       0.0       0.0       0.0       0.0       0.0
 6 H  s               0.1       2.2       0.4       0.5       0.9       0.5
 7 C  s              10.8       1.5       0.2       0.1       0.0       0.1
 7 C  pz              1.3       4.1       4.4       0.4       0.0       7.4
 7 C  px              0.1       0.9       9.3       1.5       0.4       2.8
 7 C  py              0.1       0.8       0.0       5.0       0.1       0.0
 7 C  dx2y2           0.0       0.1       0.1       0.0       0.0       0.1
 7 C  dxy             0.0       0.0       0.1       0.1       0.0       0.1
 8 H  s               4.6       2.6       1.8       0.5       0.0       3.3
 9 O  s               2.3       1.1       0.0       1.4       0.7       0.2
 9 O  pz              0.2       1.0       0.9       0.0       0.6      12.4
 9 O  px              3.6       0.3       3.0       5.3       0.1       0.3
 9 O  py              2.7       0.1       5.9       0.7       1.2       0.0
10 O  s               2.0       0.0       0.2       0.1       0.0       0.1
10 O  pz              7.2       4.9      15.7       1.3       0.1       5.3
10 O  px              4.4       0.7       1.6       1.1       0.0       5.3
10 O  py              0.0       0.2       0.0       0.5       0.0       0.0
10 O  dz2             0.1       0.0       0.1       0.0       0.0       0.1
11 O  s               0.2       0.7       0.0       0.6       0.8       0.6
11 O  pz              0.1      11.6       0.0       4.5       0.6       0.0
11 O  px              0.1       3.1       0.3       3.1       1.0       1.1
11 O  py              0.2       1.6       0.8       4.1       0.0       0.9
11 O  dz2             0.0       0.1       0.0       0.1       0.0       0.0
12 O  s               0.4       0.1       0.0       0.6       1.7       0.0
12 O  pz              5.8       8.3       0.3       2.8       8.1       0.0
12 O  px              2.3       4.3       0.7       0.2      16.1       0.2
12 O  py              0.1       1.7       1.7       0.0       1.9       0.3
12 O  dz2             0.1       0.1       0.0       0.0       0.1       0.0
13 O  s               0.4       0.1       0.3       0.4       0.0       1.9
13 O  pz              2.4       6.9       2.0       1.2      11.0       0.1
13 O  px              0.0       0.1       0.5       5.6       0.0       1.4
13 O  py              0.2       3.2       6.0       4.9       1.8       6.6
13 O  dz2             0.0       0.1       0.0       0.0       0.1       0.0
14 H  s               0.6       1.8       0.0       0.0       2.1       8.3
15 H  s               0.0       0.4       1.8       0.3       0.0       0.9
16 H  s               3.6       1.4       4.7       0.7       0.0       2.9
17 H  s               0.0       4.8       0.0       3.6       0.0       0.2
18 H  s               2.2       4.2       0.5       0.2       7.2       0.1
19 H  s               0.6       2.6       2.2       2.6       2.5       0.9

                     24        25        26        27        28        29   
                  -0.43692  -0.42563  -0.41723  -0.38974  -0.37212  -0.35745
                   2.00000   2.00000   2.00000   2.00000   2.00000   2.00000
                  --------  --------  --------  --------  --------  --------
 0 C  s               1.7       0.1       0.8       0.2       0.4       0.2
 0 C  pz              3.7       0.7       2.6       2.8       0.9       3.1
 0 C  px             10.0       1.1       0.0       0.1       0.0       6.0
 0 C  py              1.5       6.8       5.3       1.5       8.0       5.9
 0 C  dxz             0.3       0.0       0.0       0.1       0.0       0.0
 0 C  dx2y2           0.1       0.0       0.1       0.0       0.0       0.3
 0 C  dxy             0.2       0.0       0.1       0.0       0.0       0.1
 1 C  s               0.5       0.1       1.1       0.2       0.1       0.0
 1 C  pz              2.8       0.1       0.4       2.5       0.4       0.1
 1 C  px              0.1      12.7       0.5       2.3       3.2       5.4
 1 C  py              5.2       0.0       3.6       4.7       0.5       1.8
 1 C  dz2             0.2       0.1       0.1       0.0       0.0       0.0
 1 C  dyz             0.2       0.0       0.0       0.0       0.1       0.0
 1 C  dx2y2           0.0       0.0       0.1       0.2       0.0       0.2
 1 C  dxy             0.0       0.0       0.0       0.1       0.1       0.1
 2 H  s               1.4       5.4       1.5       3.8       0.9       2.0
 3 C  s               0.0       0.1       0.2       0.3       0.1       0.2
 3 C  pz              1.0       0.7       1.6       0.1       0.1       0.2
 3 C  px              6.1       0.3       6.1       3.8       0.9       1.5
 3 C  py              3.4       5.6       0.0      10.1       1.3       6.7
 3 C  dz2             0.0       0.1       0.2       0.0       0.0       0.0
 3 C  dx2y2           0.0       0.1       0.1       0.2       0.1       0.0
 3 C  dxy             0.0       0.1       0.0       0.2       0.0       0.1
 4 H  s               0.2       3.0       0.1       6.1       0.5       1.1
 5 C  s               0.1       0.6       0.4       1.8       0.2       0.1
 5 C  pz              0.0       8.4       1.7       1.1       4.9       0.5
 5 C  px              4.4       0.7       3.4       1.2       9.1       1.3
 5 C  py              0.9       0.9      10.7       0.5      10.1       1.5
 5 C  dz2             0.0       0.3       0.0       0.1       0.4       0.0
 5 C  dxz             0.0       0.1       0.0       0.0       0.0       0.0
 5 C  dxy             0.0       0.1       0.1       0.1       0.1       0.2
 6 H  s               0.0       0.9       2.9       1.2      13.7       1.7
 7 C  s               0.0       1.0       0.4       1.2       0.4       0.3
 7 C  pz              1.8       0.1      10.4       3.3       3.9       5.3
 7 C  px              1.1       1.8       0.1       1.5       0.7       0.5
 7 C  py              7.3       4.9       1.6       0.0       0.1       0.4
 7 C  dz2             0.0       0.0       0.0       0.2       0.2       0.1
 7 C  dyz             0.1       0.0       0.1       0.0       0.0       0.0
 7 C  dx2y2           0.1       0.2       0.0       0.0       0.0       0.4
 8 H  s               0.9       0.2       2.3       3.5       3.5       3.9
 9 O  s               0.1       0.2       0.2       1.7       0.1       0.5
 9 O  pz              0.1       0.7       0.7       0.9       0.7       1.4
 9 O  px             16.5       0.0       0.0       0.5       0.1       6.7
 9 O  py              1.7       0.4       0.0       6.8       0.8       3.4
10 O  s               0.0       0.8       2.3       0.2       0.4       0.1
10 O  pz              1.4       5.0       0.5       1.6       0.0       1.7
10 O  px              0.2       0.2       7.0       0.7       3.0       2.4
10 O  py              2.7       1.3       1.6       0.3       0.3       0.7
11 O  s               0.4       0.2       0.1       1.2       0.2       0.6
11 O  pz              0.1      10.1       2.2       0.1      11.4       0.9
11 O  px              1.6       1.5       2.9       5.0       1.1       2.5
11 O  py              0.0       5.0       2.4       0.5       0.5       2.2
12 O  s               0.6       0.6       0.1       0.5       0.5       0.3
12 O  pz              0.4       0.0       5.3       6.0       0.4       0.0
12 O  px              1.9       1.0       0.2       0.7       0.9       2.5
12 O  py              1.5       2.7       0.9       3.1       0.8       4.1
13 O  s               0.0       0.4       1.6       1.1       0.7       0.1
13 O  pz              2.9       0.0       0.9       5.9       1.2       1.5
13 O  px              0.8       2.3       0.3       0.6       3.5       4.6
13 O  py              1.4       0.1       5.2       4.0       1.0       0.0
14 H  s               3.5       0.7       1.9       0.7       1.4       2.3
15 H  s               4.8       3.3       3.0       0.0       3.4       8.3
16 H  s               0.1       1.5       0.0       1.1       0.1       1.1
17 H  s               0.1       3.6       0.3       1.3       1.5       0.2
18 H  s               0.0       0.6       0.7       0.1       0.1       0.1
19 H  s               1.3       0.1       0.6       0.1       0.3       0.1

                     30        31        32        33        34        35   
                  -0.32744  -0.32004  -0.30008  -0.28620  -0.27331  -0.25800
                   2.00000   2.00000   2.00000   2.00000   2.00000   2.00000
                  --------  --------  --------  --------  --------  --------
 0 C  s               0.2       0.0       0.3       0.1       0.0       0.0
 0 C  pz              3.5       1.3       1.6       2.2       0.7       0.1
 0 C  px              1.8       0.2       0.2       0.5       0.9       0.6
 0 C  py              1.0       0.1       1.3       0.0       3.6       0.5
 0 C  dz2             0.1       0.0       0.1       0.1       0.1       0.2
 0 C  dxy             0.0       0.0       0.5       0.0       0.4       0.0
 1 C  s               0.2       0.2       0.4       0.0       0.0       0.8
 1 C  pz              3.5       1.0       0.2       0.2       0.2       0.4
 1 C  px              0.6       0.1       0.2       0.1       0.1       0.0
 1 C  py              1.9       0.3       0.3       0.5       3.4       0.6
 1 C  dz2             0.0       0.2       0.0       0.0       0.0       0.0
 1 C  dxz             0.1       0.0       0.2       0.0       0.1       0.2
 1 C  dyz             0.3       0.1       0.0       0.0       0.1       0.0
 1 C  dxy             0.3       0.0       0.0       0.0       0.0       0.0
 2 H  s               2.0       0.1       0.1       0.3       0.1       1.1
 3 C  s               1.2       0.3       0.2       0.0       0.1       0.1
 3 C  pz              1.0       5.3       0.1       0.5       0.0       0.2
 3 C  px              0.1       0.2       1.8       1.3       6.7       0.9
 3 C  py              2.9       0.2       1.1       0.1       0.1       0.8
 3 C  dz2             0.0       0.0       0.0       0.0       0.0       0.3
 3 C  dxz             0.0       0.5       0.0       0.2       0.1       0.0
 3 C  dyz             0.0       0.1       0.0       0.0       0.0       0.5
 4 H  s               0.1       3.8       0.7       1.3       0.3       2.1
 5 C  s               0.0       1.6       0.0       0.0       0.0       0.3
 5 C  pz              1.4       0.1       1.6       0.4       0.2       0.4
 5 C  px              0.2       0.0       1.9       1.8       5.3       0.1
 5 C  py              0.0       0.0       0.0       2.6       1.8       0.5
 5 C  dz2             0.1       0.0       0.1       0.0       0.0       0.0
 5 C  dxz             0.0       0.0       0.1       0.0       0.2       0.3
 5 C  dyz             0.0       0.1       0.1       0.0       0.1       0.2
 5 C  dx2y2           0.1       0.0       0.0       0.0       0.1       0.0
 5 C  dxy             0.0       0.1       0.0       0.0       0.2       0.0
 6 H  s               0.0       0.9       0.2       0.1       5.5       0.0
 7 C  s               0.0       0.2       0.2       0.5       0.1       0.1
 7 C  pz              1.0       0.1       2.0       0.7       1.1       0.1
 7 C  px              0.7       0.2       1.3       2.0       0.7       0.0
 7 C  py              0.0       0.0       0.5       1.3       1.7       1.1
 7 C  dz2             0.0       0.1       0.3       0.3       0.1       0.0
 7 C  dxz             0.1       0.0       0.0       0.6       0.0       0.0
 7 C  dx2y2           0.0       0.0       0.3       0.0       0.0       0.0
 7 C  dxy             0.0       0.0       0.0       0.0       0.1       0.3
 8 H  s               0.6       0.8       3.0       1.2       1.5       0.4
 9 O  s               0.0       0.0       2.1       0.9       2.5       0.6
 9 O  pz              1.0       0.5       0.8       6.9       9.9      12.0
 9 O  px              0.6       0.3       2.3       0.9       0.8       0.1
 9 O  py              3.7       0.2      15.5       0.0      14.2       1.8
10 O  s               0.9       1.1       1.0       4.9       0.3       0.0
10 O  pz              0.8       1.5       1.8      15.3       0.1       0.0
10 O  px              5.7       3.2       0.1      31.5       0.0       0.5
10 O  py              0.3       1.2       2.1       0.6       1.5      11.6
11 O  s               1.3       1.1       2.8       0.2       1.4       0.1
11 O  pz              5.8       1.1       7.4       0.4       1.0       0.0
11 O  px              3.1       6.4       4.3       5.5       5.7      13.3
11 O  py              0.1       2.1       8.1       2.9       1.5       9.6
12 O  s               0.0       5.7       0.5       0.3       1.1       0.1
12 O  pz              2.7      17.8       0.2       1.3       2.2       0.9
12 O  px              0.0      27.8       2.7       2.5       2.9       0.7
12 O  py              1.7       0.4       0.1       0.3       4.1      27.3
13 O  s               4.0       0.1       0.3       0.1       0.8       0.0
13 O  pz             18.0       5.0       0.2       0.5       0.3       1.0
13 O  px              2.4       0.1      15.5       0.1       3.2       5.3
13 O  py             17.3       1.4       4.0       0.5       3.2       0.2
14 H  s               2.1       0.6       1.7       2.0       1.0       1.2
15 H  s               0.1       0.1       3.0       0.0       2.8       0.0
16 H  s               0.1       0.5       0.6       2.9       0.4       0.1
17 H  s               0.5       0.9       1.1       0.1       1.3       0.1
18 H  s               0.1       1.8       0.5       0.2       0.9       0.1
19 H  s               2.2       0.1       0.1       0.1       0.6       0.0

                     36        37        38        39        40        41   
                  -0.24735  -0.23631  -0.22652  -0.20101   0.00727   0.00795
                   2.00000   2.00000   2.00000   2.00000   0.00000   0.00000
                  --------  --------  --------  --------  --------  --------
 0 C  s               0.5       0.1       0.0       0.1       0.0       2.0
 0 C  pz              1.0       0.2       1.1       0.6       0.3       0.7
 0 C  px              0.1       1.0       0.4       0.2       0.1       1.3
 0 C  py              2.0       0.1       0.3       0.9       0.4       2.2
 0 C  dz2             0.0       0.2       0.3       0.3       0.1       0.1
 0 C  dxz             0.0       0.1       0.1       0.2       0.0       0.1
 0 C  dxy             0.0       0.0       0.1       0.4       0.0       0.1
 1 C  s               0.0       0.9       0.1       0.2       0.3       1.9
 1 C  pz              0.1       0.2       0.1       0.2       2.0       2.1
 1 C  px              2.0       4.3       0.2       0.5       1.0       2.5
 1 C  py              0.4       0.5       5.4       3.2       0.4       0.0
 1 C  dz2             0.0       0.1       0.0       0.0       0.5       0.1
 1 C  dxz             0.7       0.4       0.0       0.0       0.0       0.0
 1 C  dyz             0.1       0.0       0.0       0.0       0.3       0.0
 1 C  dx2y2           0.1       0.1       0.0       0.1       0.0       0.2
 2 H  s               4.0       3.4       0.1       0.6       1.0      10.2
 3 C  s               0.0       0.1       0.3       0.3       0.2       1.0
 3 C  pz              0.0       0.0       0.4       0.1       5.0       0.5
 3 C  px              0.9       0.5       2.6       1.4       0.2       0.5
 3 C  py              0.0       2.7       1.6       0.5       0.5       0.3
 3 C  dz2             0.0       0.0       0.0       0.0       1.0       0.0
 3 C  dxz             0.0       0.0       0.0       0.0       0.1       0.2
 3 C  dyz             0.1       0.3       0.5       0.1       0.2       0.0
 3 C  dx2y2           0.0       0.1       0.0       0.0       0.0       0.1
 3 C  dxy             0.0       0.1       0.1       0.2       0.0       0.1
 4 H  s               0.7       1.4       1.5       2.5       2.5       3.6
 5 C  s               0.0       0.1       0.0       0.5       0.1       0.2
 5 C  pz              0.3       0.3       0.1       0.6       1.4       0.0
 5 C  px              1.3       0.5       0.8       2.5       0.1       0.2
 5 C  py              0.5       0.4       0.1       7.1       0.0       0.2
 5 C  dz2             0.0       0.0       0.1       0.0       0.6       0.0
 5 C  dxz             0.0       0.0       0.2       0.2       0.1       0.0
 5 C  dyz             0.3       0.0       0.2       0.4       0.0       0.0
 5 C  dx2y2           0.0       0.0       0.1       0.1       0.1       0.0
 6 H  s               1.8       0.7       0.1       1.1       0.1       0.3
 7 C  s               0.2       0.1       0.3       0.5       0.0       0.3
 7 C  pz              0.9       0.0       0.0       2.3       0.0       0.1
 7 C  px              0.3       0.3       0.1       1.1       0.2       0.3
 7 C  py              0.7       0.3       0.9       4.2       0.1       0.1
 7 C  dz2             0.2       0.1       0.2       0.3       0.0       0.0
 7 C  dyz             0.0       0.1       0.1       0.2       0.1       0.0
 7 C  dx2y2           0.1       0.0       0.0       0.5       0.0       0.0
 7 C  dxy             0.3       0.8       0.2       0.3       0.0       0.0
 8 H  s               1.4       0.6       0.9       3.3       0.1       0.5
 9 O  s               0.1       0.2       0.1       0.0       0.0       0.3
 9 O  pz              1.0       5.3      13.6      15.5       0.1       0.2
 9 O  px              0.2       4.2       1.6       2.7       0.0       0.4
 9 O  py              0.7       0.1       0.4      14.0       0.0       0.3
10 O  s               0.1       0.0       0.0       0.4       0.3       0.0
10 O  pz              1.1       0.3       1.4       0.0       0.1       0.0
10 O  px              1.4       1.4       0.5       0.3       0.1       0.0
10 O  py             19.7      27.1      11.4       7.3       0.2       0.0
11 O  s               0.4       0.2       0.0       0.1       1.4       0.1
[...]
11 O  dxz             7.9       0.6      10.6       8.4       0.3       0.2
11 O  dyz            12.0       6.2       0.2       3.6       1.6       0.0
11 O  dx2y2           0.9       0.3       0.0       0.1       0.2       0.0
11 O  dxy            18.8       0.5       5.9       0.5       0.0       0.0
12 O  s               0.2       0.1       0.7       0.3       0.0       0.9
12 O  pz              0.0       0.0       0.0       0.0       0.0       1.3
12 O  px              0.0       0.0       0.1       0.0       0.0       0.2
12 O  dz2             0.0       0.0       0.0       0.2       0.4      22.4
12 O  dxz             0.2       0.2      13.9       3.6       0.1       0.0
12 O  dyz             1.3       1.8       0.0       0.0       0.1       0.6
12 O  dx2y2           0.0       0.0       5.9       0.9       0.0       0.2
12 O  dxy             0.2       0.2       3.8       0.9       0.0       0.0
13 O  s               0.2       0.2       0.6       0.1       0.0       2.4
13 O  pz              0.1       0.0       0.0       0.0       0.1       2.8
13 O  px              0.1       0.0       0.1       0.0       0.0       0.1
13 O  py              0.1       0.0       0.0       0.0       0.0       0.3
13 O  dz2             0.1       0.2       0.3       0.0       0.8      42.9
13 O  dxz             0.1       0.1       3.0       0.3       0.2       0.9
13 O  dyz             4.5       4.6       4.0       1.0       0.2       0.0
13 O  dx2y2           5.1       1.6       1.3       0.8       0.0       0.3
13 O  dxy             0.4       1.0       0.6       0.3       0.0       0.1
16 H  s               0.0       3.1       0.1       0.1       0.7       0.0
17 H  s               3.7       0.1       1.2       0.1       0.0       0.0
18 H  s               0.0       0.0       1.4       0.2       0.0       0.3
19 H  s               0.6       0.3       0.4       0.1       0.0       0.6

                    156       157       158       159   
                   3.30774   3.31848   3.37163   3.42999
                   0.00000   0.00000   0.00000   0.00000
                  --------  --------  --------  --------
 0 C  s               0.0       0.3       0.1       1.1
 0 C  pz              0.0       0.1       0.0       0.2
 0 C  px              0.0       0.5       0.2       1.6
 0 C  dz2             0.0       0.0       0.0       0.3
 0 C  dxz             0.0       0.9       0.5       1.2
 0 C  dx2y2           0.0       0.7       0.6       2.3
 0 C  dxy             0.0       0.1       0.4       0.0
 1 C  s               0.4       0.1       0.2       0.0
 1 C  pz              0.9       0.2       0.4       0.0
 1 C  dz2             3.0       0.4       1.4       0.0
 1 C  dyz             0.0       0.0       0.1       0.0
 3 C  s               0.8       0.1       0.7       0.0
 3 C  pz              1.1       0.2       1.8       0.0
 3 C  py              0.1       0.0       0.2       0.0
 3 C  dz2             3.7       0.3       4.3       0.1
 3 C  dxz             0.6       0.1       0.2       0.0
 3 C  dyz             0.2       0.0       0.3       0.0
 5 C  s               1.3       0.4       0.6       0.0
 5 C  pz              1.5       1.0       1.5       0.0
 5 C  py              0.0       0.1       0.1       0.1
 5 C  dz2             5.0       3.0       4.3       0.1
 5 C  dxz             0.7       0.2       0.1       0.1
 5 C  dxy             0.0       0.2       0.1       0.0
 7 C  s               0.1       2.1       0.7       0.2
 7 C  pz              0.1       0.2       0.1       0.0
 7 C  px              0.1       1.1       0.3       3.0
 7 C  py              0.1       0.4       0.1       0.6
 7 C  dz2             0.1       1.3       0.2       0.2
 7 C  dxz             0.1       1.2       0.3       2.4
 7 C  dyz             0.2       0.1       0.2       0.0
 7 C  dx2y2           0.2       4.1       2.3       1.8
 7 C  dxy             0.0       0.4       0.1       6.6
 9 O  s               0.0       0.2       0.1       0.0
 9 O  px              0.0       0.7       0.1       4.4
 9 O  py              0.0       0.1       0.2       1.0
 9 O  dz2             0.1       0.4       0.2       0.6
 9 O  dxz             0.0       3.3       1.4      12.8
 9 O  dyz             0.0       1.3       0.1       1.1
 9 O  dx2y2           0.2      10.4       6.9      15.7
 9 O  dxy             0.1       1.0       0.4      19.5
10 O  s               0.3       2.0       0.6       1.4
10 O  pz              0.0       0.8       0.2       0.3
10 O  px              0.1       1.4       0.4       1.0
10 O  dz2             0.3       3.7       0.6       2.4
10 O  dxz             0.8      12.0       2.9       4.8
10 O  dyz             0.0       1.3       0.4       0.0
10 O  dx2y2           0.8      12.4       2.4      11.4
10 O  dxy             1.1       4.8       3.4       0.0
11 O  s               1.7       0.9       2.1       0.1
11 O  pz              2.0       1.1       1.5       0.0
11 O  px              0.1       0.0       0.0       0.0
11 O  dz2            29.7      15.1      17.0       0.3
11 O  dxz             0.3       0.6       1.8       0.0
11 O  dyz             0.4       0.0       0.1       0.0
11 O  dx2y2           0.2       0.0       0.0       0.0
11 O  dxy             0.4       0.0       0.0       0.0
12 O  s               1.5       0.3       2.7       0.0
12 O  pz              1.2       0.1       1.6       0.0
12 O  px              0.0       0.0       0.3       0.0
12 O  py              0.2       0.0       0.2       0.0
12 O  dz2            14.7       1.1      17.2       0.2
12 O  dxz             1.1       0.1       0.1       0.0
12 O  dyz             3.8       0.6       4.6       0.1
12 O  dx2y2           0.2       0.0       0.2       0.0
12 O  dxy             0.1       0.0       0.0       0.0
13 O  s               1.3       0.2       0.6       0.0
13 O  pz              0.8       0.2       0.4       0.0
13 O  px              0.1       0.0       0.0       0.0
13 O  py              0.2       0.0       0.1       0.0
13 O  dz2            12.6       2.3       4.2       0.0
13 O  dxz             1.2       0.3       0.6       0.0
13 O  dyz             0.4       0.0       0.6       0.0
16 H  s               0.0       0.4       0.1       0.1
17 H  s               0.5       0.1       0.2       0.0
18 H  s               0.2       0.0       0.2       0.0
19 H  s               0.1       0.0       0.0       0.0


                      *****************************
                      * MAYER POPULATION ANALYSIS *
                      *****************************

  NA   - Mulliken gross atomic population
  ZA   - Total nuclear charge
  QA   - Mulliken gross atomic charge
  VA   - Mayer's total valence
  BVA  - Mayer's bonded valence
  FA   - Mayer's free valence

  ATOM       NA         ZA         QA         VA         BVA        FA
  0 C      5.9669     6.0000     0.0331     4.0435     4.0435    -0.0000
  1 C      5.9907     6.0000     0.0093     4.0303     4.0303     0.0000
  2 H      0.9431     1.0000     0.0569     0.9617     0.9617     0.0000
  3 C      5.9840     6.0000     0.0160     4.0231     4.0231    -0.0000
  4 H      0.9161     1.0000     0.0839     0.9633     0.9633    -0.0000
  5 C      5.9522     6.0000     0.0478     3.9770     3.9770    -0.0000
  6 H      0.9152     1.0000     0.0848     0.9703     0.9703    -0.0000
  7 C      5.8364     6.0000     0.1636     4.1835     4.1835    -0.0000
  8 H      0.9372     1.0000     0.0628     0.9731     0.9731    -0.0000
  9 O      8.3019     8.0000    -0.3019     2.1303     2.1303     0.0000
 10 O      8.3703     8.0000    -0.3703     2.0828     2.0828    -0.0000
 11 O      8.4387     8.0000    -0.4387     2.0300     2.0300     0.0000
 12 O      8.4065     8.0000    -0.4065     2.0097     2.0097    -0.0000
 13 O      8.4210     8.0000    -0.4210     2.0379     2.0379     0.0000
 14 H      0.9254     1.0000     0.0746     0.9843     0.9843     0.0000
 15 H      0.9101     1.0000     0.0899     0.9562     0.9562    -0.0000
 16 H      0.7012     1.0000     0.2988     0.9196     0.9196     0.0000
 17 H      0.6995     1.0000     0.3005     0.9405     0.9405    -0.0000
 18 H      0.6948     1.0000     0.3052     0.8819     0.8819     0.0000
 19 H      0.6890     1.0000     0.3110     0.8827     0.8827    -0.0000

  Mayer bond orders larger than 0.100000
B(  0-C ,  1-C ) :   1.0523 B(  0-C ,  9-O ) :   1.0550 B(  0-C , 14-H ) :   0.8840 
B(  0-C , 15-H ) :   0.9214 B(  1-C ,  2-H ) :   0.8952 B(  1-C ,  3-C ) :   0.9812 
B(  1-C , 13-O ) :   1.0117 B(  3-C ,  4-H ) :   0.9083 B(  3-C ,  5-C ) :   0.9998 
B(  3-C , 12-O ) :   1.0701 B(  5-C ,  6-H ) :   0.8879 B(  5-C ,  7-C ) :   0.9853 
B(  5-C , 11-O ) :   1.0335 B(  7-C ,  8-H ) :   0.8902 B(  7-C ,  9-O ) :   0.9729 
B(  7-C , 10-O ) :   1.1955 B( 10-O , 16-H ) :   0.8202 B( 11-O , 17-H ) :   0.8045 
B( 12-O , 18-H ) :   0.8455 B( 13-O , 17-H ) :   0.1077 B( 13-O , 19-H ) :   0.8392 


-------
TIMINGS
-------

Total SCF time: 0 days 0 hours 0 min 2 sec 

Total time                  ....       2.090 sec
Sum of individual times     ....       2.071 sec  ( 99.1%)

SCF preparation             ....       0.038 sec  (  1.8%)
Fock matrix formation       ....       1.906 sec  ( 91.2%)
  Startup                   ....       0.002 sec  (  0.1% of F)
  Split-RI-J                ....       0.953 sec  ( 50.0% of F)
  XC integration            ....       0.946 sec  ( 49.6% of F)
    Basis function eval.    ....       0.380 sec  ( 40.2% of XC)
    Density eval.           ....       0.232 sec  ( 24.5% of XC)
    XC-Functional eval.     ....       0.059 sec  (  6.2% of XC)
    XC-Potential eval.      ....       0.241 sec  ( 25.5% of XC)
Diagonalization             ....       0.000 sec  (  0.0%)
Density matrix formation    ....       0.003 sec  (  0.2%)
Total Energy calculation    ....       0.000 sec  (  0.0%)
Population analysis         ....       0.098 sec  (  4.7%)
Orbital Transformation      ....       0.009 sec  (  0.4%)
Orbital Orthonormalization  ....       0.000 sec  (  0.0%)
DIIS solution               ....       0.005 sec  (  0.2%)
  MO trafo                  ....       0.000 sec  (  0.0 % of DIIS)
  Orb grad                  ....       0.000 sec  (  0.0 % of DIIS)
  Energy W gradient         ....       0.000 sec  (  0.0 % of DIIS)
  DIIS error                ....       0.001 sec  ( 12.7 % of DIIS)
  DIIS work                 ....       0.004 sec  ( 85.9 % of DIIS)
  Form Q                    ....       0.000 sec  (  0.0 % of DIIS)
  Form QpQm                 ....       0.000 sec  (  0.0 % of DIIS)
  Exp/Cayley                ....       0.000 sec  (  0.0 % of DIIS)
  Orb update                ....       0.000 sec  (  0.0 % of DIIS)
  Wake-sleep                ....       0.000 sec  (  1.3 % of DIIS)
SOSCF solution              ....       0.012 sec  (  0.6%)
  MO trafo                  ....       0.006 sec  ( 48.6 % of SOSCF)
  Orb grad                  ....       0.000 sec  (  0.7 % of SOSCF)
  Rot update                ....       0.000 sec  (  2.0 % of SOSCF)
  Step                      ....       0.006 sec  ( 47.8 % of SOSCF)
Finished LeanSCF after   2.1 sec

Maximum memory used throughout the entire LEANSCF-calculation: 15.5 MB


-------------------------------------------------------------------------------
                          DFT DISPERSION CORRECTION                            
                                                                               
                                DFTD4 V3.4.0                                   
-------------------------------------------------------------------------------
The PBE functional is recognized
Active option DFTDOPT                   ...         5   

-------------------------   ----------------
Dispersion correction           -0.019941350
-------------------------   ----------------

------------------   -----------------
gCP correction             0.130351846
------------------   -----------------

-------------------------   --------------------
FINAL SINGLE POINT ENERGY      -571.420101702641
-------------------------   --------------------


------------------------------------------------------------------------------
                              ORCA PROPERTY CALCULATIONS
------------------------------------------------------------------------------

GBWName                                 ... sp.gbw
Number of atoms                         ...     20
Number of basis functions               ...    160
Max core memory                         ...   1024 MB

Electric properties:
Dipole moment                           ... YES
Quadrupole moment                       ...  NO
Static polarizability (Dipole/Dipole)   ...  NO
Static polarizability (Dipole/Quad.)    ...  NO
Static polarizability (Quad./Quad.)     ...  NO
Static polarizability (Velocity)        ...  NO

Atomic electric properties:
Dipole moment                           ...  NO
Quadrupole moment                       ...  NO
Static polarizability                   ...  NO

Choice of electric origin               ... Center of mass
Position of electric origin             ...     0.000012    -0.000000    -0.000008

General magnetic properties:
Magnetizability                         ...  NO

EPR properties:
g-Tensor (aka g-matrix)                 ...  NO
Zero-Field splitting spin-orbit         ...  NO
Zero-field splitting spin-spin          ...  NO
Hyperfine couplings                     ...  NO (   0 nuclei)
Quadrupole couplings                    ...  NO (   0 nuclei)
Contact density                         ...  NO (   0 nuclei)

NMR properties:
Chemical shifts                         ...  NO (   0 nuclei)
Spin-rotation constants                 ...  NO (   0 nuclei)
Spin-spin couplings                     ...  NO (   0 nuclei,    0 pairs)

Choice of magnetic origin               ... GIAO
Position of magnetic origin             ...     0.000000     0.000000     0.000000

Properties with geometric perturbations:
SCF Hessian                             ...  NO
IR spectrum                             ...  NO
VCD spectrum                            ...  NO
X-ray spectroscopy properties:
SCF XES/XAS/RIXS spectra                ...  NO


-------------
DIPOLE MOMENT
-------------

Method             : SCF
Type of density    : Electron Density
Multiplicity       :   1
Irrep              :   0
Energy             :  -571.5305121991085571 Eh
Relativity type    : 
Basis              : AO
                                X                 Y                 Z
Electronic contribution:     -2.376874043       0.241124418       1.466872902
Nuclear contribution   :      4.117574269      -0.088797641      -1.613746155
                        -----------------------------------------
Total Dipole Moment    :      1.740700227       0.152326777      -0.146873253
                        -----------------------------------------
Magnitude (a.u.)       :      1.753514323
Magnitude (Debye)      :      4.457079198



--------------------
Rotational spectrum 
--------------------
 
Rotational constants in cm-1:             0.058213             0.041221             0.038907 
Rotational constants in MHz :          1745.192700          1235.759585          1166.410497 

Dipole components along the rotational axes: 
x,y,z [a.u.] :    -1.688066     0.438222    -0.182224 
x,y,z [Debye]:    -4.290724     1.113873    -0.463176 

 

Dipole moment calculation done in   0.0 sec 

Maximum memory used throughout the entire PROP-calculation: 10.2 MB

--------------------------------
SUGGESTED CITATIONS FOR THIS RUN
--------------------------------

Below you find a list of papers that are relevant to this ORCA run
We neither can nor want to force you to cite these papers, but we appreciate if you do
You receive ORCA, which is the product of decades of hard work by many enthusiastic individuals, for free
The only thing we kindly ask in return is that you cite our papers,
We deeply appreciate it, if you show your appreciation for ORCA by not just citing the generic ORCA reference.

Please note that relegating all ORCA citations to the supporting information does *not* help us.
SI sections are not indexed - citations you put there will not count into any citation statistics
But we need these citations in order to attract the funding resources that allow us to do what we are doing

Therefore, if you are a happy ORCA user, please consider citing a few of the papers listed below in the main body of your paper

In addition to the list printed below, the program has created the file sp.bibtex that contains the list in bibtex format
You can import this file easily into all common literature databanks and citation aid programs


List of essential papers. We consider these as the minimum necessary citations

  1. Neese,F.
     Software update: the ORCA program system, version 5.0
     WIRES Comput. Molec. Sci., 2022 12(1)e1606
     doi.org/10.1002/wcms.1606

List of papers to cite with high priority. The work reported in these papers was absolutely
necessary for this run to complete.
Our perspective: the developers of density functionals and basis sets usually get cited in chemistry papers
Good! But without the algorithms to do something with them, the functionals or basis sets would not do anything.
Hence, in our opinion, the algorithm design and method developments papers are equally worthy of getting cited

  1. Neese,F.
     An improvement of the resolution of the identity approximation for the formation of the Coulomb matrix
     J. Comp. Chem., 2003 24(14)1740-1747
     doi.org/10.1002/jcc.10318
  2. Neese,F.
     The SHARK Integral Generation and Digestion System
     J. Comp. Chem., 2022  1-16
     doi.org/10.1002/jcc.26942
  3. Caldeweyher,E.; Bannwarth,C.; Grimme,S.
     Extension of the D3 dispersion coefficient model
     J. Chem. Phys., 2017 147 034112
     doi.org/10.1063/1.4993215
  4. Caldeweyher,E.; Ehlert,S.; Hansen,A.; Neugebauer,H.; Spicher,S.; Bannwarth,C.; Grimme,S.
     A generally applicable atomic-charge dependent London dispersion correction
     J. Chem. Phys., 2019 150 154122
     doi.org/10.1063/1.5090222
  5. Caldeweyher,E.; Mewes,J.; Ehlert,S.; Grimme,S.
     Extension and evaluation of the D4 London-dispersion model for periodic systems
     Phys. Chem. Chem. Phys., 2020 22(16)8499-8512
     doi.org/10.1039/D0CP00502A
  6. Wittmann,L.; Gordiy,I.; Friede,M.; Helmich-Paris,B.; Grimme,S.; Hansen,A.; Bursch,M.
     Extension of the D3 and D4 London Dispersion Corrections to the full Actinides Series
     Phys. Chem. Chem. Phys., 2024 26(32)21379-21394
     doi.org/https://doi.org/10.1039/D4CP01514B 

List of suggested additional citations. These are papers that are important in the 'surrounding' of 
of this run, or papers that preceded the highly important papers. If you like your results we are grateful for a citation.

  1. Neese,F.
     The ORCA program system
     WIRES Comput. Molec. Sci., 2012 2(1)73-78
     doi.org/10.1002/wcms.81
  2. Neese,F.
     Software update: the ORCA program system, version 4.0
     WIRES Comput. Molec. Sci., 2018 8(1)1-6
     doi.org/10.1002/wcms.1327
  3. Neese,F.; Wennmohs,F.; Becker,U.; Riplinger,C.
     The ORCA quantum chemistry program package
     J. Chem. Phys., 2020 152 Art. No. L224108
     doi.org/10.1063/5.0004608

List of optional additional citations

  1. Neese,F.
     Approximate second-order SCF convergence for spin unrestricted wavefunctions
     Chem. Phys. Lett., 2000 325(1-3)93-98
     doi.org/10.1016/s0009-2614(00)00662-x

Timings for individual modules:

Sum of individual times          ...        2.787 sec (=   0.046 min)
Startup calculation              ...        0.509 sec (=   0.008 min)  18.3 %
SCF iterations                   ...        2.211 sec (=   0.037 min)  79.3 %
Property calculations            ...        0.066 sec (=   0.001 min)   2.4 %
                             ****ORCA TERMINATED NORMALLY****
TOTAL RUN TIME: 0 days 0 hours 0 minutes 2 seconds 917 msec
