
                                 *****************
                                 * O   R   C   A *
                                 *****************

                                            #,                                       
                                            ###                                      
                                            ####                                     
                                            #####                                    
                                            ######                                   
                                           ########,                                 
                                     ,,################,,,,,                         
                               ,,#################################,,                 
                          ,,##########################################,,             
                       ,#########################################, ''#####,          
                    ,#############################################,,   '####,        
                  ,##################################################,,,,####,       
                ,###########''''           ''''###############################       
              ,#####''   ,,,,##########,,,,          '''####'''          '####       
            ,##' ,,,,###########################,,,                        '##       
           ' ,,###''''                  '''############,,,                           
         ,,##''                                '''############,,,,        ,,,,,,###''
      ,#''                                            '''#######################'''  
     '                                                          ''''####''''         
             ,#######,   #######,   ,#######,      ##                                
            ,#'     '#,  ##    ##  ,#'     '#,    #''#        ,####,   ,####,        
            ##       ##  ##   ,#'  ##            #'  '#       #'       #'  '#        
            ##       ##  #######   ##           ,######,      #####,   #    #        
            '#,     ,#'  ##    ##  '#,     ,#' ,#      #,     #,   #   #,  ,#        
             '#######'   ##     ##  '#######'  #'      '#     '####' # '####'        



                #########################################################
                #                        -***-                          #
                #          Department of theory and spectroscopy        #
                #                                                       #
                #                      Frank Neese                      #
                #                                                       #
                #     Directorship, Architecture, Infrastructure        #
                #                    SHARK, DRIVERS                     #
                #        Core code/Algorithms in most modules           #
                #                                                       #
                #        Max Planck Institute fuer Kohlenforschung      #
                #                Kaiser Wilhelm Platz 1                 #
                #                 D-45470 Muelheim/Ruhr                 #
                #                      Germany                          #
                #                                                       #
                #                  All rights reserved                  #
                #                        -***-                          #
                #########################################################


                         Program Version 6.0.1  -  RELEASE   -


 With contributions from (in alphabetic order):
[Max-Planck-Institut fuer Kohlenforschung]                               
  Daniel Aravena         : Magnetic Suceptibility                        
  Michael Atanasov       : Ab Initio Ligand Field Theory (pilot matlab implementation)
  Alexander A. Auer      : GIAO ZORA, VPT2 properties, NMR spectrum      
  Ute Becker             : All parallelization in ORCA, NUMFREQ, NUMCALC 
  Giovanni Bistoni       : ED, misc. LED, open-shell LED, HFLD           
  Martin Brehm           : Molecular dynamics                            
  Dmytro Bykov           : pre 5.0 version of the SCF Hessian            
  Marcos Casanova-Páez   : Triplet and SCS-CIS(D). UHF-(DLPNO)-IP/EA/STEOM-CCSD. UHF-CVS-IP/STEOM-CCSD   
  Vijay G. Chilkuri      : MRCI spin determinant printing, contributions to CSF-ICE 
  Pauline Colinet        : FMM embedding                                 
  Dipayan Datta          : RHF DLPNO-CCSD density                        
  Achintya Kumar Dutta   : EOM-CC, STEOM-CC                              
  Nicolas Foglia         : Exact transition moments, OPA infrastructure, MCD improvements    
  Dmitry Ganyushin       : Spin-Orbit,Spin-Spin,Magnetic field MRCI      
  Miquel Garcia-Rates    : C-PCM and meta-GGA Hessian, CCSD/C-PCM, Gaussian charge scheme 
  Tiago L. C. Gouveia    : GS-ROHF, GS-ROCIS                             
  Yang Guo               : DLPNO-NEVPT2, F12-NEVPT2, CIM, IAO-localization        
  Andreas Hansen         : Spin unrestricted coupled pair/coupled cluster methods 
  Ingolf Harden          : AUTO-CI MPn and infrastructure                
  Benjamin Helmich-Paris : MC-RPA, TRAH-(SCF,CASSCF), AVAS, COSX integrals, SCF dyn. polar. 
  Lee Huntington         : MR-EOM, pCC                                   
  Robert Izsak           : Overlap fitted RIJCOSX, COSX-SCS-MP3, EOM     
  Riya Kayal             : Wick's Theorem for AUTO-CI, AUTO-CI UHF-CCSDT 
  Emily Kempfer          : AUTO-CI, RHF CISDT and CCSDT                  
  Christian Kollmar      : KDIIS, OOCD, Brueckner-CCSD(T), CCSD density, CASPT2, CASPT2-K, improved NEVPT2 
  Axel Koslowski         : Symmetry handling                             
  Simone Kossmann        : meta-GGA functionals, TD-DFT gradient, OOMP2, (MP2 Hessian; deprecated post 5.0) 
  Lucas Lang             : DCDCAS                                        
  Marvin Lechner         : AUTO-CI (C++ implementation), FIC-MRCC        
  Spencer Leger          : CASSCF response                               
  Dagmar Lenk            : GEPOL surface, SMD, ORCA-2-JSON               
  Dimitrios Liakos       : Extrapolation schemes; Compound Job, initial MDCI parallelization 
  Dimitrios Manganas     : Further ROCIS development; embedding schemes. LFT, Crystal Embedding 
  Dimitrios Pantazis     : SARC Basis sets                               
  Anastasios Papadopoulos: AUTO-CI, single reference methods and gradients 
  Taras Petrenko         : pre 6.0 DFT Hessian and TD-DFT gradient, (ASA, deprecated), ECA, 1-Electron XAS/XES, NRVS 
  Peter Pinski           : DLPNO-MP2, DLPNO-MP2 Gradient                 
  Christoph Reimann      : Effective Core Potentials                     
  Marius Retegan         : Local ZFS, SOC                                
  Christoph Riplinger    : Optimizer, TS searches, QM/MM, DLPNO-CCSD(T), (RO)-DLPNO pert. Triples 
  Michael Roemelt        : Original ROCIS implementation                 
  Masaaki Saitow         : Open-shell DLPNO-CCSD energy and density      
  Barbara Sandhoefer     : DKH picture change effects                    
  Kantharuban Sivalingam : CASSCF convergence/infrastructure, NEVPT2 and variants, FIC-MRCI 
  Bernardo de Souza      : ESD, SOC TD-DFT                               
  Georgi L. Stoychev     : AutoAux, RI-MP2 NMR, DLPNO-MP2 response, X2C  
  Van Anh Tran           : RI-MP2 g-tensors                              
  Willem Van den Heuvel  : Paramagnetic NMR                              
  Zikuan Wang            : NOTCH, Electric field optimization            
  Frank Wennmohs         : Technical directorship and infrastructure     
  Hang Xu                : AUTO-CI-Response properties                   
                                                                         
[FACCTs GmbH]                                                            
  Markus Bursch, Miquel Garcia-Rates, Christoph Riplinger, Bernardo de Souza, Georgi L. Stoychev 
                                                                 
  APM, Basis sets (HGBS, AHGBS, def-TZVP (Ac-Lr), def2-XVPD (La-Lu)), CI-OPT, improved COSX, DLPNO-Multilevel,           
  DOCKER, DRACO, updates on ESD, GOAT, IRC, LR-CPCM, MBIS, meta-GGA TD-DFT gradient, ML-optimized integration grids, 
  MM, NACMEs, nearIR, NEB, NEB-TS, NL-DFT gradient (VV10), 2- and 3-layer-ONIOM, interface openCOSMO-RS, QMMM,   
  Crystal-QMMM, SF, symmetry and pop. for TD-DFT, r2SCAN hybrids, SOLVATOR                                   
                                                                         
[Other institutions]                                                     
  V. Asgeirsson          : NEB                                           
  Christoph Bannwarth    : sTDA-DFT, sTD-DFT, PBEh-3c, B97-3c, D3        
  Sebastian Ehlert       : rSCAN, r2SCAN, r2SCAN-3c, D4, dhf basis sets  
  Marvin Friede          : D4 for Fr, Ra, Ac-Lr                          
  Lars Goerigk           : TD-DFT with DH, B97 family of functionals     
  Stefan Grimme          : VdW corrections, initial TS optimization, DFT functionals, gCP, sTDA/sTD-DF 
  Waldemar Hujo          : DFT-NL                                        
  H. Jonsson             : NEB                                           
  Holger Kruse           : gCP                                           
  Marcel Mueller         : wB97X-3c, vDZP basis set                      
  Hagen Neugebauer       : wr2SCAN                                       
  Tobias Risthaus        : range-separated hybrid DFT                    
  Lukas Wittmann         : regularized MP2, r2SCAN double-hybrids, wr2SCAN        
                                                                         
We gratefully acknowledge several colleagues who have allowed us to      
interface, adapt or use parts of their codes:                            
  Ed Valeev, F. Pavosevic, A. Kumar             : LibInt (2-el integral package), F12 methods 
  Garnet Chan, S. Sharma, J. Yang, R. Olivares  : DMRG                   
  Ulf Ekstrom                                   : XCFun DFT Library      
  Mihaly Kallay                                 : mrcc  (arbitrary order and MRCC methods)
  Frank Weinhold                                : gennbo (NPA and NBO analysis)           
  Simon Mueller                                 : openCOSMO-RS                            
  Christopher J. Cramer and Donald G. Truhlar   : smd solvation model                     
  S Lehtola, MJT Oliveira, MAL Marques          : LibXC Library                           
  Liviu Ungur et al                             : ANISO software                          


 Your calculation uses the libint2 library for the computation of 2-el integrals
 For citations please refer to: http://libint.valeyev.net

 Your ORCA version has been built with support for libXC version: 6.2.2
 For citations please refer to: https://libxc.gitlab.io

 This ORCA versions uses:
   CBLAS   interface :  Fast vector & matrix operations
   LAPACKE interface :  Fast linear algebra routines
   SCALAPACK package :  Parallel linear algebra routines
   Shared memory     :  Shared parallel matrices
   BLAS/LAPACK       :  OpenBLAS 0.3.27  USE64BITINT DYNAMIC_ARCH NO_AFFINITY Zen SINGLE_THREADED
        Core in use  :  Zen
   Copyright (c) 2011-2014, The OpenBLAS Project


Your calculation utilizes the geometrical counterpoise correction gCP
Please cite in your paper:
H.Kruse, S. Grimme J.Chem.Phys., 136, (2012), 154101 
   

Your calculation utilizes the atom-pairwise dispersion correction
based on EEQ partial charges (D4)


================================================================================

----- Orbital basis set information -----
Your calculation utilizes the basis: def2-mTZVPP
   Stefan Grimme, Andreas Hansen, Sebastian Ehlert, and Jan-Michael Mewes 
   J. Chem. Phys. 154, 064103 (2021). DOI: 10.1063/5.0040021

----- AuxJ basis set information -----
Your calculation utilizes the auxiliary basis: def2/J
   F. Weigend, Phys. Chem. Chem. Phys. 8, 1057 (2006).

================================================================================
                                        WARNINGS
                       Please study these warnings very carefully!
================================================================================

WARNING: Old DensityContainer found on disk!
         Will remove this file - 
         If you want to keep old densities, please start your calculation with a different basename. 



WARNING: SCAN, rSCAN, or r2SCAN functional requested.
  ===> : libXC variant has now been activated.



================================================================================
                                       INPUT FILE
================================================================================
NAME = sp.inp
|  1> ! r2scan-3c def2/J RI DEFGRID2 scfconv6 printgap
|  2> %output
|  3>     printlevel normal
|  4> end
|  5> * xyz 0 1
|  6> C -2.1359566261 -0.0086090025 0.2214246164
|  7> C -0.8980333765 -0.1931318177 -0.6351107438
|  8> S 0.5806391014 0.5277120978 0.182957895
|  9> C 1.7438285762 -0.8569098561 0.0184330022
| 10> H -2.3202790992 1.0486328394 0.3956883776
| 11> H -3.0027787177 -0.4376476098 -0.2779670838
| 12> H -2.0075290848 -0.4974509006 1.1844118339
| 13> H -1.0122816412 0.3038807674 -1.5988730737
| 14> H -0.6861464937 -1.2485851435 -0.7965680992
| 15> H 1.9022451632 -1.0796729581 -1.033149207
| 16> H 1.3571344613 -1.7253441938 0.5448798979
| 17> H 2.6749229403 -0.5338659631 0.4720974196
| 18> *
| 19> 
| 20>                          ****END OF INPUT****
================================================================================

                       ****************************
                       * Single Point Calculation *
                       ****************************

---------------------------------
CARTESIAN COORDINATES (ANGSTROEM)
---------------------------------
  C     -2.135957   -0.008609    0.221425
  C     -0.898033   -0.193132   -0.635111
  S      0.580639    0.527712    0.182958
  C      1.743829   -0.856910    0.018433
  H     -2.320279    1.048633    0.395688
  H     -3.002779   -0.437648   -0.277967
  H     -2.007529   -0.497451    1.184412
  H     -1.012282    0.303881   -1.598873
  H     -0.686146   -1.248585   -0.796568
  H      1.902245   -1.079673   -1.033149
  H      1.357134   -1.725344    0.544880
  H      2.674923   -0.533866    0.472097

----------------------------
CARTESIAN COORDINATES (A.U.)
----------------------------
  NO LB      ZA    FRAG     MASS         X           Y           Z
   0 C     6.0000    0    12.011   -4.036373   -0.016269    0.418432
   1 C     6.0000    0    12.011   -1.697037   -0.364966   -1.200185
   2 S    16.0000    0    32.060    1.097249    0.997231    0.345740
   3 C     6.0000    0    12.011    3.295358   -1.619325    0.034833
   4 H     1.0000    0     1.008   -4.384692    1.981629    0.747743
   5 H     1.0000    0     1.008   -5.674429   -0.827034   -0.525282
   6 H     1.0000    0     1.008   -3.793680   -0.940046    2.238214
   7 H     1.0000    0     1.008   -1.912935    0.574251   -3.021432
   8 H     1.0000    0     1.008   -1.296629   -2.359484   -1.505296
   9 H     1.0000    0     1.008    3.594722   -2.040286   -1.952369
  10 H     1.0000    0     1.008    2.564612   -3.260428    1.029674
  11 H     1.0000    0     1.008    5.054872   -1.008860    0.892135

--------------------------------
INTERNAL COORDINATES (ANGSTROEM)
--------------------------------
 C      0   0   0     0.000000000000     0.00000000     0.00000000
 C      1   0   0     1.516626343073     0.00000000     0.00000000
 S      2   1   0     1.837205634979   110.96093193     0.00000000
 C      3   2   1     1.815834835512   100.13930651   131.06258748
 H      1   2   3     1.087245577053   110.31657925    59.78860643
 H      1   2   3     1.088506653755   110.05609494   179.81997334
 H      1   2   3     1.087568120060   110.42594244   300.01876978
 H      2   1   3     1.090372415402   110.98987467   240.66013164
 H      2   1   3     1.088552365143   111.13796047   118.74066803
 H      4   3   2     1.086528581012   109.72000100    60.70240845
 H      4   3   2     1.086672384570   109.72710673   298.60770383
 H      4   3   2     1.084944918085   106.54772540   179.64757928

---------------------------
INTERNAL COORDINATES (A.U.)
---------------------------
 C      0   0   0     0.000000000000     0.00000000     0.00000000
 C      1   0   0     2.866008435898     0.00000000     0.00000000
 S      2   1   0     3.471815501808   110.96093193     0.00000000
 C      3   2   1     3.431430543551   100.13930651   131.06258748
 H      1   2   3     2.054596380947   110.31657925    59.78860643
 H      1   2   3     2.056979470548   110.05609494   179.81997334
 H      1   2   3     2.055205898897   110.42594244   300.01876978
 H      2   1   3     2.060505249092   110.98987467   240.66013164
 H      2   1   3     2.057065852552   111.13796047   118.74066803
 H      4   3   2     2.053241454790   109.72000100    60.70240845
 H      4   3   2     2.053513204132   109.72710673   298.60770383
 H      4   3   2     2.050248765570   106.54772540   179.64757928

---------------------
BASIS SET INFORMATION
---------------------
There are 3 groups of distinct atoms

 Group   1 Type C   : 11s6p1d contracted to 5s3p1d pattern {62111/411/1}
 Group   2 Type S   : 14s9p2d contracted to 5s4p2d pattern {73211/6111/11}
 Group   3 Type H   : 4s1p contracted to 2s1p pattern {31/1}

Atom   0C    basis set group =>   1
Atom   1C    basis set group =>   1
Atom   2S    basis set group =>   2
Atom   3C    basis set group =>   1
Atom   4H    basis set group =>   3
Atom   5H    basis set group =>   3
Atom   6H    basis set group =>   3
Atom   7H    basis set group =>   3
Atom   8H    basis set group =>   3
Atom   9H    basis set group =>   3
Atom  10H    basis set group =>   3
Atom  11H    basis set group =>   3
---------------------------------
AUXILIARY/J BASIS SET INFORMATION
---------------------------------
There are 3 groups of distinct atoms

 Group   1 Type C   : 12s5p4d2f1g contracted to 6s4p3d1f1g pattern {711111/2111/211/2/1}
 Group   2 Type S   : 14s5p5d2f1g contracted to 8s4p3d1f1g pattern {71111111/2111/311/2/1}
 Group   3 Type H   : 5s2p1d contracted to 3s1p1d pattern {311/2/1}

Atom   0C    basis set group =>   1
Atom   1C    basis set group =>   1
Atom   2S    basis set group =>   2
Atom   3C    basis set group =>   1
Atom   4H    basis set group =>   3
Atom   5H    basis set group =>   3
Atom   6H    basis set group =>   3
Atom   7H    basis set group =>   3
Atom   8H    basis set group =>   3
Atom   9H    basis set group =>   3
Atom  10H    basis set group =>   3
Atom  11H    basis set group =>   3

Checking for AutoStart:
The File: sp.gbw exists
Trying to determine its content:
     ... Fine, the file contains calculation information
     ... Fine, the calculation information was read
     ... Fine, the file contains a basis set
     ... Fine, the basis set was read
     ... Fine, the file contains a geometry
     ... Fine, the geometry was read
     ... Fine, the file contains a set of orbitals
     ... Fine, the orbitals can be read
     => possible old guess file was deleted
     => GBW file was renamed to GES file
     => GES file is set as startup file
     => Guess is set to MORead
     ... now leaving AutoStart

------------------------------------------------------------------------------
                             ORCA STARTUP CALCULATIONS
                           -- RI-GTO INTEGRALS CHOSEN --
------------------------------------------------------------------------------
------------------------------------------------------------------------------
                   ___                                                        
                  /   \      - P O W E R E D   B Y -                         
                 /     \                                                     
                 |  |  |   _    _      __       _____    __    __             
                 |  |  |  | |  | |    /  \     |  _  \  |  |  /  |          
                  \  \/   | |  | |   /    \    | | | |  |  | /  /          
                 / \  \   | |__| |  /  /\  \   | |_| |  |  |/  /          
                |  |  |   |  __  | /  /__\  \  |    /   |      \           
                |  |  |   | |  | | |   __   |  |    \   |  |\   \          
                \     /   | |  | | |  |  |  |  | |\  \  |  | \   \       
                 \___/    |_|  |_| |__|  |__|  |_| \__\ |__|  \__/        
                                                                              
                      - O R C A' S   B I G   F R I E N D -                    
                                      &                                       
                       - I N T E G R A L  F E E D E R -                       
                                                                              
 v1 FN, 2020, v2 2021, v3 2022-2024                                           
------------------------------------------------------------------------------


----------------------
SHARK INTEGRAL PACKAGE
----------------------

Number of atoms                             ...     12
Number of basis functions                   ...    124
Number of shells                            ...     62
Maximum angular momentum                    ...      2
Integral batch strategy                     ... SHARK/LIBINT Hybrid
RI-J (if used) integral strategy            ... SPLIT-RIJ (Revised 2003 algorithm where possible)
Printlevel                                  ...      1
Contraction scheme used                     ... SEGMENTED contraction
Prescreening option                         ... SCHWARTZ
   Thresh                                   ... 1.000e-10
   Tcut                                     ... 1.000e-11
   Tpresel                                  ... 1.000e-11 
Coulomb Range Separation                    ... NOT USED
Exchange Range Separation                   ... NOT USED
Multipole approximations                    ... NOT USED
Finite Nucleus Model                        ... NOT USED
CABS basis                                  ... NOT available
Auxiliary Coulomb fitting basis             ... AVAILABLE
   # of basis functions in Aux-J            ...    286
   # of shells in Aux-J                     ...    102
   Maximum angular momentum in Aux-J        ...      4
Auxiliary J/K fitting basis                 ... NOT available
Auxiliary Correlation fitting basis         ... NOT available
Auxiliary 'external' fitting basis          ... NOT available

Checking pre-screening integrals            ... done (  0.0 sec) Dimension = 62
Check shell pair data                       ... done (  0.0 sec)
Shell pair information
Shell pair cut-off parameter TPreSel        ...   1.0e-11
Total number of shell pairs                 ...      1953
Shell pairs after pre-screening             ...      1833
Total number of primitive shell pairs       ...      7270
Primitive shell pairs kept                  ...      5168
          la=0 lb=0:    618 shell pairs
          la=1 lb=0:    707 shell pairs
          la=1 lb=1:    217 shell pairs
          la=2 lb=0:    174 shell pairs
          la=2 lb=1:    102 shell pairs
          la=2 lb=2:     15 shell pairs

Calculating one electron integrals          ... done (  0.0 sec)
Calculating RI/J V-Matrix + Cholesky decomp.... done (  0.0 sec)
Calculating Nuclear repulsion               ... done (  0.0 sec) ENN=    169.295761497329 Eh

Diagonalization of the overlap matrix:
Smallest eigenvalue                        ... 6.545e-04
Time for diagonalization                   ...    0.001 sec
Threshold for overlap eigenvalues          ... 1.000e-07
Number of eigenvalues below threshold      ... 0
Time for construction of square roots      ...    0.000 sec
Total time needed                          ...    0.002 sec

-------------------
DFT GRID GENERATION
-------------------

General Integration Accuracy     IntAcc      ... 4.388
Radial Grid Type                 RadialGrid  ... OptM3 with GC (2021)
Angular Grid (max. ang.)         AngularGrid ... 4 (Lebedev-302)
Angular grid pruning method      GridPruning ... 4 (adaptive)
Weight generation scheme         WeightScheme... mBecke (2022)
Basis function cutoff            BFCut       ... 1.0000e-10
Integration weight cutoff        WCut        ... 1.0000e-14
Partially contracted basis set               ... off
Rotationally invariant grid construction     ... off
Angular grids for H and He will be reduced by one unit

Total number of grid points                  ...    51412
Total number of batches                      ...      810
Average number of points per batch           ...       63
Average number of grid points per atom       ...     4284
Initializing property integral containers    ... done (  0.0 sec)

SHARK setup successfully completed in   0.3 seconds

Maximum memory used throughout the entire STARTUP-calculation: 22.9 MB
-------------------------------------------------------------------------------
                                 ORCA GUESS
                   Start orbitals & Density for SCF / CASSCF
-------------------------------------------------------------------------------

------------
SCF SETTINGS
------------
Hamiltonian:
 Density Functional     Method          .... DFT(GTOs)
  Functional kind                       .... Exchange
  Functional name                       .... Re-regularized SCAN exchange by Furness et al
  Functional family                     .... MGGA
  Functional refs                              
    [ 0] J. W. Furness, A. D. Kaplan, J. Ning, J. P. Perdew, and J. Sun.,  J. Phys. Chem. Lett. 11, 8208-8215 (2020), doi: 10.1021/acs.jpclett.0c02405
    [ 1] J. W. Furness, A. D. Kaplan, J. Ning, J. P. Perdew, and J. Sun.,  J. Phys. Chem. Lett. 11, 9248-9248 (2020), doi: 10.1021/acs.jpclett.0c03077
  Functional external parameters        .... 6
    Parameter  0 _c1        =  6.670000e-01 : c1 parameter        
    Parameter  1 _c2        =  8.000000e-01 : c2 parameter        
    Parameter  2 _d         =  1.240000e+00 : d parameter         
    Parameter  3 _k1        =  6.500000e-02 : k1 parameter        
    Parameter  4 _eta       =  1.000000e-03 : eta parameter       
    Parameter  5 _dp2       =  3.610000e-01 : dp2 parameter       
  Functional kind                       .... Correlation
  Functional name                       .... Re-regularized SCAN correlation by Furness et al
  Functional family                     .... MGGA
  Functional refs                              
    [ 0] J. W. Furness, A. D. Kaplan, J. Ning, J. P. Perdew, and J. Sun.,  J. Phys. Chem. Lett. 11, 8208-8215 (2020), doi: 10.1021/acs.jpclett.0c02405
    [ 1] J. W. Furness, A. D. Kaplan, J. Ning, J. P. Perdew, and J. Sun.,  J. Phys. Chem. Lett. 11, 9248-9248 (2020), doi: 10.1021/acs.jpclett.0c03077
  Functional external parameters        .... 1
    Parameter  0 _eta       =  1.000000e-03 : Regularization parameter
 Gradients option       PostSCFGGA      .... off
 RI-approximation to the Coulomb term is turned on
   Number of AuxJ basis functions       .... 286


General Settings:
 Integral files         IntName         .... sp
 Hartree-Fock type      HFTyp           .... RHF
 Total Charge           Charge          ....    0
 Multiplicity           Mult            ....    1
 Number of Electrons    NEL             ....   42
 Basis Dimension        Dim             ....  124
 Nuclear Repulsion      ENuc            ....    169.2957614973 Eh

Convergence Acceleration:
 AO-DIIS                CNVDIIS         .... on
   Start iteration      DIISMaxIt       ....    12
   Startup error        DIISStart       ....  0.200000
   # of expansion vecs  DIISMaxEq       ....     5
   Bias factor          DIISBfac        ....   1.050
   Max. coefficient     DIISMaxC        ....  10.000
 MO-DIIS                CNVKDIIS        .... off
 Trust-Rad. Augm. Hess. CNVTRAH         .... auto
   Auto Start mean grad. ratio tolernc. ....  1.125000
   Auto Start start iteration           ....     1
   Auto Start num. interpolation iter.  ....    10
   Max. Number of Micro iterations      ....    24
   Max. Number of Macro iterations      .... Maxiter - #DIIS iter
   Number of Davidson start vectors     ....     2
   Converg. threshold    (grad. norm)   ....   3.330e-04
   Grad. Scal. Fac. for Micro threshold ....   0.100
   Minimum threshold for Micro iter.    ....   1.000e-02
   NR start threshold (gradient norm)   ....   1.000e-04
   Initial trust radius                 ....   0.400
   Minimum AH scaling param. (alpha)    ....   1.000
   Maximum AH scaling param. (alpha)    .... 1000.000
   Quad. conv. algorithm                .... NR
   White noise on init. David. guess    .... on
   Maximum white noise                  ....   0.010
   Pseudo random numbers                .... off
   Inactive MOs                         .... canonical
   Orbital update algorithm             .... Taylor
   Preconditioner                       .... Diag
   Full preconditioner red. dimension   ....   250
   COSX micro iterations for RIJONX calc.... off
 SOSCF                  CNVSOSCF        .... on
   Start iteration      SOSCFMaxIt      ....   150
   Startup grad/error   SOSCFStart      ....  0.003300
   Hessian update       SOSCFHessUp     .... L-BFGS
 Level Shifting         CNVShift        .... on
   Level shift para.    LevelShift      ....    0.2500
   Turn off err/grad.   ShiftErr        ....    0.0010
 Zerner damping         CNVZerner       .... off
 Static damping         CNVDamp         .... on
   Fraction old density DampFac         ....    0.7000
   Max. Damping (<1)    DampMax         ....    0.9800
   Min. Damping (>=0)   DampMin         ....    0.0000
   Turn off err/grad.   DampErr         ....    0.1000

SCF Procedure:
 Maximum # iterations   MaxIter         ....   125
 SCF integral mode      SCFMode         .... Direct
   Integral package                     .... SHARK and LIBINT hybrid scheme
 Reset frequency        DirectResetFreq ....    20
 Integral Threshold     Thresh          ....  1.000e-10 Eh
 Primitive CutOff       TCut            ....  1.000e-11 Eh

Convergence Tolerance:
 Convergence Check Mode ConvCheckMode   .... Total+1el-Energy
 Convergence forced     ConvForced      .... 0
 Energy Change          TolE            ....  1.000e-06 Eh
 1-El. energy change                    ....  1.000e-03 Eh
 Orbital Gradient       TolG            ....  3.330e-04
 Orbital Rotation angle TolX            ....  3.330e-04
 DIIS Error             TolErr          ....  1.000e-06

---------------------
INITIAL GUESS: MOREAD
---------------------
Guess MOs are being read from file: sp.ges
Input Geometry matches current geometry (good)
Atom 0: N(Shells)= 9 and 6 - projection required
Input basis set needs projection
NBasis(read)= 76
NBasis(calc)= 124
Basis set overlap was calculated
Using GuessMode=FMatrix for the initial guess
C*T matrix was formed
Effective Fockian was calculated
Effective Fockian was diagonalized
Initial density was built
                      ------------------
                      INITIAL GUESS DONE (   0.0 sec)
                      ------------------
             **** ENERGY FILE WAS UPDATED (sp.en.tmp) ****
Finished Guess after   0.0 sec
Maximum memory used throughout the entire GUESS-calculation: 9.1 MB

-------------------------------------------------------------------------------------------
                                      ORCA LEAN-SCF
                              memory conserving SCF solver
-------------------------------------------------------------------------------------------

----------------------------------------D-I-I-S--------------------------------------------
Iteration    Energy (Eh)           Delta-E    RMSDP     MaxDP     DIISErr   Damp  Time(sec)
-------------------------------------------------------------------------------------------
               ***  Starting incremental Fock matrix formation  ***
    1    -517.1696600775198931     0.00e+00  2.97e-03  5.74e-02  4.65e-01  0.700   0.4
    2    -517.1960923135681014    -2.64e-02  2.51e-03  4.14e-02  3.26e-01  0.700   0.4
    3    -517.2148348766990011    -1.87e-02  1.87e-03  3.13e-02  2.28e-01  0.700   0.4
                               ***Turning on AO-DIIS***
    4    -517.2280011892460152    -1.32e-02  1.38e-03  2.47e-02  1.59e-01  0.700   0.4
    5    -517.2372395450520344    -9.24e-03  9.94e-04  1.78e-02  1.12e-01  0.700   0.4
    6    -517.2437187184420964    -6.48e-03  7.05e-04  1.26e-02  7.81e-02  0.700   0.4
    7    -517.2482607592629620    -4.54e-03  1.66e-03  2.99e-02  5.47e-02  0.000   0.4
                              *** Initializing SOSCF ***
---------------------------------------S-O-S-C-F--------------------------------------
Iteration    Energy (Eh)           Delta-E    RMSDP     MaxDP     MaxGrad    Time(sec)
--------------------------------------------------------------------------------------
    8    -517.2588801947977117    -1.06e-02  1.52e-05  4.27e-04  1.50e-04     0.4
               *** Restarting incremental Fock matrix formation ***
    9    -517.2588802890930992    -9.43e-08  1.02e-05  1.84e-04  4.33e-05     0.4
                  *** Gradient check signals convergence ***

               *****************************************************
               *                     SUCCESS                       *
               *           SCF CONVERGED AFTER   9 CYCLES          *
               *****************************************************

             **** ENERGY FILE WAS UPDATED (sp.en.tmp) ****

----------------
TOTAL SCF ENERGY
----------------

Total Energy       :       -517.25888028909310 Eh          -14075.32971 eV

Components:
Nuclear Repulsion  :        169.29576149732929 Eh            4606.77187 eV
Electronic Energy  :       -686.55464178642251 Eh          -18682.10158 eV
One Electron Energy:      -1045.06164043563217 Eh          -28437.57297 eV
Two Electron Energy:        358.50699864920972 Eh            9755.47139 eV

Virial components:
Potential Energy   :      -1032.92748285986067 Eh          -28107.38576 eV
Kinetic Energy     :        515.66860257076758 Eh           14032.05605 eV
Virial Ratio       :          2.00308391418519

DFT components:
N(Alpha)           :       20.999984061967 electrons
N(Beta)            :       20.999984061967 electrons
N(Total)           :       41.999968123933 electrons
E(X)               :      -43.478324098113 Eh       
E(C)               :       -1.401456719655 Eh       
E(XC)              :      -44.879780817768 Eh       

---------------
SCF CONVERGENCE
---------------

  Last Energy change         ...    9.4295e-08  Tolerance :   1.0000e-06
  Last MAX-Density change    ...    1.8351e-04  Tolerance :   1.0000e-05
  Last RMS-Density change    ...    1.0194e-05  Tolerance :   1.0000e-06
  Last DIIS Error            ...    1.5007e-04  Tolerance :   1.0000e-06
  Last Orbital Gradient      ...    4.3300e-05  Tolerance :   3.3300e-04
  Last Orbital Rotation      ...    1.2909e-04  Tolerance :   3.3300e-04


----------------
ORBITAL ENERGIES
----------------

  NO   OCC          E(Eh)            E(eV) 
   0   2.0000     -88.542544     -2409.3651 
   1   2.0000     -10.059647      -273.7369 
   2   2.0000     -10.054025      -273.5839 
   3   2.0000     -10.025469      -272.8069 
   4   2.0000      -7.836465      -213.2410 
   5   2.0000      -5.784090      -157.3931 
   6   2.0000      -5.780193      -157.2871 
   7   2.0000      -5.772954      -157.0901 
   8   2.0000      -0.771102       -20.9828 
   9   2.0000      -0.709554       -19.3080 
  10   2.0000      -0.615176       -16.7398 
  11   2.0000      -0.547009       -14.8849 
  12   2.0000      -0.433059       -11.7841 
  13   2.0000      -0.411501       -11.1975 
  14   2.0000      -0.399496       -10.8708 
  15   2.0000      -0.388316       -10.5666 
  16   2.0000      -0.349765        -9.5176 
  17   2.0000      -0.337170        -9.1749 
  18   2.0000      -0.314742        -8.5646 
  19   2.0000      -0.277267        -7.5448 
  20   2.0000      -0.187908        -5.1132 
  21   0.0000       0.018433         0.5016 
  22   0.0000       0.054347         1.4789 
  23   0.0000       0.090931         2.4743 
  24   0.0000       0.117429         3.1954 
  25   0.0000       0.148216         4.0332 
  26   0.0000       0.152465         4.1488 
  27   0.0000       0.160001         4.3538 
  28   0.0000       0.163492         4.4489 
  29   0.0000       0.173865         4.7311 
  30   0.0000       0.178389         4.8542 
  31   0.0000       0.193749         5.2722 
*Only the first 10 virtual orbitals were printed.

                    ********************************
                    * MULLIKEN POPULATION ANALYSIS *
                    ********************************

-----------------------
MULLIKEN ATOMIC CHARGES
-----------------------
   0 C :   -0.440351
   1 C :   -0.221028
   2 S :   -0.130396
   3 C :   -0.425579
   4 H :    0.147643
   5 H :    0.141100
   6 H :    0.152905
   7 H :    0.160266
   8 H :    0.142945
   9 H :    0.159546
  10 H :    0.157308
  11 H :    0.155642
Sum of atomic charges:    0.0000000

--------------------------------
MULLIKEN REDUCED ORBITAL CHARGES
--------------------------------
  0 C s       :     3.308454  s :     3.308454
      pz      :     1.037172  p :     3.104833
      px      :     0.977419
      py      :     1.090242
      dz2     :     0.005443  d :     0.027065
      dxz     :     0.006702
      dyz     :     0.004121
      dx2y2   :     0.006916
      dxy     :     0.003883

  1 C s       :     3.214480  s :     3.214480
      pz      :     1.014120  p :     2.970600
      px      :     0.891590
      py      :     1.064891
      dz2     :     0.008274  d :     0.035948
      dxz     :     0.008801
      dyz     :     0.004766
      dx2y2   :     0.008192
      dxy     :     0.005916

  2 S s       :     5.873025  s :     5.873025
      pz      :     3.771344  p :    10.156533
      px      :     3.021867
      py      :     3.363321
      dz2     :     0.013986  d :     0.100838
      dxz     :     0.019958
      dyz     :     0.013622
      dx2y2   :     0.024797
      dxy     :     0.028475

  3 C s       :     3.287950  s :     3.287950
      pz      :     1.094024  p :     3.111434
      px      :     1.030803
      py      :     0.986608
      dz2     :     0.005643  d :     0.026195
      dxz     :     0.004078
      dyz     :     0.005557
      dx2y2   :     0.004932
      dxy     :     0.005984

  4 H s       :     0.833994  s :     0.833994
      pz      :     0.003903  p :     0.018363
      px      :     0.003819
      py      :     0.010642

  5 H s       :     0.840582  s :     0.840582
      pz      :     0.005017  p :     0.018318
      px      :     0.008470
      py      :     0.004831

  6 H s       :     0.828875  s :     0.828875
      pz      :     0.009672  p :     0.018221
      px      :     0.003533
      py      :     0.005015

  7 H s       :     0.821670  s :     0.821670
      pz      :     0.009531  p :     0.018064
      px      :     0.003504
      py      :     0.005029

  8 H s       :     0.838533  s :     0.838533
      pz      :     0.003787  p :     0.018522
      px      :     0.003787
      py      :     0.010948

  9 H s       :     0.822067  s :     0.822067
      pz      :     0.010799  p :     0.018388
      px      :     0.003751
      py      :     0.003837

 10 H s       :     0.824322  s :     0.824322
      pz      :     0.005366  p :     0.018370
      px      :     0.004485
      py      :     0.008519

 11 H s       :     0.825667  s :     0.825667
      pz      :     0.005021  p :     0.018691
      px      :     0.009496
      py      :     0.004174


------------------------
MULLIKEN OVERLAP CHARGES
------------------------
B(  0-C ,  1-C ) :   0.5333 B(  0-C ,  2-S ) :  -0.0923 B(  0-C ,  4-H ) :   0.8349 
B(  0-C ,  5-H ) :   0.8021 B(  0-C ,  6-H ) :   0.8384 B(  0-C ,  7-H ) :  -0.0646 
B(  0-C ,  8-H ) :  -0.0624 B(  1-C ,  2-S ) :   0.4314 B(  1-C ,  3-C ) :  -0.1027 
B(  1-C ,  4-H ) :  -0.0717 B(  1-C ,  5-H ) :  -0.0754 B(  1-C ,  6-H ) :  -0.0789 
B(  1-C ,  7-H ) :   0.8228 B(  1-C ,  8-H ) :   0.8308 B(  2-S ,  3-C ) :   0.4860 
B(  2-S ,  7-H ) :  -0.0946 B(  2-S ,  8-H ) :  -0.0715 B(  2-S ,  9-H ) :  -0.0931 
B(  2-S , 10-H ) :  -0.0996 B(  3-C ,  9-H ) :   0.8243 B(  3-C , 10-H ) :   0.8170 
B(  3-C , 11-H ) :   0.7752 B(  7-H ,  8-H ) :  -0.0507 B(  9-H , 10-H ) :  -0.0640 



                     *******************************
                     * LOEWDIN POPULATION ANALYSIS *
                     *******************************

----------------------
LOEWDIN ATOMIC CHARGES
----------------------
   0 C :   -0.429981
   1 C :   -0.355852
   2 S :   -0.000866
   3 C :   -0.465641
   4 H :    0.154053
   5 H :    0.150663
   6 H :    0.155541
   7 H :    0.158405
   8 H :    0.161610
   9 H :    0.153579
  10 H :    0.152477
  11 H :    0.166013

-------------------------------
LOEWDIN REDUCED ORBITAL CHARGES
-------------------------------
  0 C s       :     2.983311  s :     2.983311
      pz      :     1.131990  p :     3.382821
      px      :     1.090579
      py      :     1.160252
      dz2     :     0.012547  d :     0.063849
      dxz     :     0.015948
      dyz     :     0.009920
      dx2y2   :     0.016859
      dxy     :     0.008576

  1 C s       :     2.975110  s :     2.975110
      pz      :     1.114930  p :     3.300102
      px      :     1.054880
      py      :     1.130292
      dz2     :     0.018089  d :     0.080640
      dxz     :     0.020319
      dyz     :     0.010832
      dx2y2   :     0.019415
      dxy     :     0.011987

  2 S s       :     5.449381  s :     5.449381
      pz      :     3.743244  p :    10.228207
      px      :     3.071076
      py      :     3.413887
      dz2     :     0.045760  d :     0.323278
      dxz     :     0.061838
      dyz     :     0.039081
      dx2y2   :     0.079479
      dxy     :     0.097121

  3 C s       :     3.017398  s :     3.017398
      pz      :     1.158147  p :     3.383403
      px      :     1.114606
      py      :     1.110650
      dz2     :     0.014526  d :     0.064840
      dxz     :     0.009397
      dyz     :     0.013536
      dx2y2   :     0.012211
      dxy     :     0.015170

  4 H s       :     0.802512  s :     0.802512
      pz      :     0.008549  p :     0.043434
      px      :     0.008250
      py      :     0.026635

  5 H s       :     0.805776  s :     0.805776
      pz      :     0.011869  p :     0.043561
      px      :     0.020616
      py      :     0.011075

  6 H s       :     0.800874  s :     0.800874
      pz      :     0.024043  p :     0.043585
      px      :     0.007730
      py      :     0.011812

  7 H s       :     0.797344  s :     0.797344
      pz      :     0.023984  p :     0.044251
      px      :     0.008117
      py      :     0.012149

  8 H s       :     0.793914  s :     0.793914
      pz      :     0.008681  p :     0.044476
      px      :     0.008598
      py      :     0.027197

  9 H s       :     0.801983  s :     0.801983
      pz      :     0.027316  p :     0.044437
      px      :     0.008428
      py      :     0.008693

 10 H s       :     0.803104  s :     0.803104
      pz      :     0.012882  p :     0.044419
      px      :     0.010328
      py      :     0.021209

 11 H s       :     0.790139  s :     0.790139
      pz      :     0.011551  p :     0.043849
      px      :     0.022877
      py      :     0.009421


---------------------------------
LOEWDIN BOND ORDERS (THRESH 0.050000)
---------------------------------
B(  0-C ,  1-C ) :   1.1475 B(  0-C ,  2-S ) :   0.1344 B(  0-C ,  4-H ) :   0.9283 
B(  0-C ,  5-H ) :   0.9223 B(  0-C ,  6-H ) :   0.9299 B(  1-C ,  2-S ) :   1.3035 
B(  1-C ,  3-C ) :   0.0681 B(  1-C ,  7-H ) :   0.8872 B(  1-C ,  8-H ) :   0.8799 
B(  2-S ,  3-C ) :   1.3717 B(  2-S ,  7-H ) :   0.0613 B(  2-S ,  8-H ) :   0.0559 
B(  2-S ,  9-H ) :   0.0696 B(  2-S , 10-H ) :   0.0698 B(  2-S , 11-H ) :   0.0578 
B(  3-C ,  9-H ) :   0.9156 B(  3-C , 10-H ) :   0.9158 B(  3-C , 11-H ) :   0.9138 


------------------------------------------
LOEWDIN REDUCED ORBITAL POPULATIONS PER MO
-------------------------------------------
THRESHOLD FOR PRINTING IS 0.1%%
                      0         1         2         3         4         5   
                 -88.54254 -10.05965 -10.05402 -10.02547  -7.83646  -5.78409
                   2.00000   2.00000   2.00000   2.00000   2.00000   2.00000
                  --------  --------  --------  --------  --------  --------
 0 C  s               0.0       0.0       0.0      99.7       0.0       0.0
 1 C  s               0.0      99.7       0.0       0.0       0.0       0.0
 1 C  px              0.0       0.0       0.0       0.1       0.1       0.0
 2 S  s             100.0       0.0       0.0       0.0      99.6       0.0
 2 S  pz              0.0       0.0       0.0       0.0       0.0       5.5
 2 S  px              0.0       0.0       0.0       0.0       0.0      87.5
 2 S  py              0.0       0.0       0.0       0.0       0.0       7.0
 3 C  s               0.0       0.0      99.7       0.0       0.0       0.0
 3 C  py              0.0       0.0       0.0       0.0       0.1       0.0

                      6         7         8         9        10        11   
                  -5.78019  -5.77295  -0.77110  -0.70955  -0.61518  -0.54701
                   2.00000   2.00000   2.00000   2.00000   2.00000   2.00000
                  --------  --------  --------  --------  --------  --------
 0 C  s               0.0       0.0      11.7      17.2      15.7       3.4
 0 C  pz              0.0       0.0       0.7       0.3       0.8       4.1
 0 C  px              0.0       0.0       2.5       0.2       3.2       2.0
 0 C  py              0.0       0.0       0.0       0.0       0.0       0.7
 0 C  dxz             0.0       0.0       0.1       0.0       0.0       0.1
 1 C  s               0.0       0.0      25.0       6.9       5.1      10.2
 1 C  pz              0.0       0.0       1.4       0.1       0.8       8.3
 1 C  px              0.0       0.0       0.5       6.8       9.0       0.6
 1 C  py              0.0       0.0       0.3       0.0       0.2       3.9
 1 C  dxz             0.0       0.0       0.0       0.1       0.2       0.0
 1 C  dx2y2           0.0       0.0       0.1       0.0       0.0       0.1
 2 S  s               0.0       0.0      21.7       7.3      10.4      22.6
 2 S  pz             19.0      75.5       0.6       0.1       0.5       1.1
 2 S  px              2.0      10.4       0.5       5.2       3.5       0.3
 2 S  py             78.9      14.1       2.1       1.3       0.5       1.7
 2 S  dz2             0.0       0.0       0.3       0.1       0.2       0.0
 2 S  dxz             0.0       0.0       0.3       0.2       0.4       0.4
 2 S  dyz             0.0       0.0       0.2       0.0       0.0       0.2
 2 S  dx2y2           0.0       0.0       0.1       0.3       0.0       0.0
 2 S  dxy             0.0       0.0       0.0       1.7       1.2       0.0
 3 C  s               0.0       0.0      11.2      24.1      11.6       3.0
 3 C  pz              0.0       0.0       0.0       0.0       0.0       0.4
 3 C  px              0.0       0.0       1.7       0.1       2.6       2.2
 3 C  py              0.0       0.0       1.4       0.5       1.9       6.6
 3 C  dxy             0.0       0.0       0.1       0.0       0.1       0.2
 4 H  s               0.0       0.0       1.6       3.0       4.6       2.5
 4 H  py              0.0       0.0       0.1       0.3       0.4       0.2
 5 H  s               0.0       0.0       1.6       3.2       5.3       1.1
 5 H  pz              0.0       0.0       0.0       0.1       0.1       0.0
 5 H  px              0.0       0.0       0.1       0.2       0.2       0.0
 6 H  s               0.0       0.0       1.5       2.9       4.6       2.3
 6 H  pz              0.0       0.0       0.1       0.2       0.3       0.1
 7 H  s               0.0       0.0       3.3       1.3       1.8       6.2
 7 H  pz              0.0       0.0       0.2       0.1       0.1       0.3
 7 H  py              0.0       0.0       0.1       0.0       0.0       0.2
 8 H  s               0.0       0.0       3.7       1.0       1.5       7.6
 8 H  py              0.0       0.0       0.3       0.1       0.1       0.4
 9 H  s               0.0       0.0       1.6       4.4       3.6       2.4
 9 H  pz              0.0       0.0       0.1       0.4       0.3       0.2
10 H  s               0.0       0.0       1.5       4.4       3.7       2.3
10 H  py              0.0       0.0       0.1       0.2       0.2       0.1
11 H  s               0.0       0.0       1.5       4.8       4.5       1.4
11 H  px              0.0       0.0       0.1       0.3       0.2       0.0

                     12        13        14        15        16        17   
                  -0.43306  -0.41150  -0.39950  -0.38832  -0.34977  -0.33717
                   2.00000   2.00000   2.00000   2.00000   2.00000   2.00000
                  --------  --------  --------  --------  --------  --------
 0 C  s               0.0       0.0       0.1       0.0       0.3       0.1
 0 C  pz              5.0       6.2       0.2       4.1      27.7       2.0
 0 C  px              0.2       9.2       6.4      11.2       4.4       2.9
 0 C  py             15.2       7.6       0.1       1.0       4.6      24.9
 0 C  dz2             0.0       0.0       0.0       0.0       0.0       0.1
 0 C  dxz             0.0       0.0       0.1       0.1       0.1       0.1
 0 C  dyz             0.0       0.0       0.0       0.0       0.1       0.1
 0 C  dx2y2           0.0       0.0       0.0       0.0       0.4       0.1
 0 C  dxy             0.0       0.0       0.0       0.0       0.0       0.2
 1 C  s               0.1       0.0       0.4       0.3       0.2       0.1
 1 C  pz              6.9       7.7       2.3       4.8      12.4       1.5
 1 C  px              1.6       1.9       2.4       0.1      13.3       1.9
 1 C  py             27.4       5.8       0.0       0.2       1.1       6.8
 1 C  dx2y2           0.0       0.0       0.0       0.0       0.3       0.0
 1 C  dxy             0.0       0.0       0.0       0.0       0.0       0.4
 2 S  s               0.1       1.0       0.0       0.1       0.8       1.2
 2 S  pz              0.5       0.2       6.6       0.2       1.2       0.7
 2 S  px              0.0      14.4       0.0       0.1       0.1       6.2
 2 S  py              3.8       0.1       0.1       1.2       0.6       6.9
 2 S  dz2             0.1       0.1       0.3       0.1       0.1       0.4
 2 S  dxz             0.2       0.0       0.5       0.2       0.4       0.2
 2 S  dyz             0.0       0.0       1.1       0.1       0.0       0.1
 2 S  dx2y2           0.9       0.0       0.3       1.8       0.0       0.0
 2 S  dxy             0.5       0.2       0.0       0.1       0.0       0.1
 3 C  s               0.1       0.1       0.0       0.0       0.0       0.1
 3 C  pz              0.0       0.6      44.3       7.0       3.3       0.2
 3 C  px              6.0       0.8       2.8      22.9       0.8       3.6
 3 C  py              0.8      19.4       0.0       8.8       1.0       6.6
 3 C  dz2             0.0       0.1       0.3       0.1       0.0       0.0
 3 C  dyz             0.0       0.1       0.0       0.2       0.0       0.0
 3 C  dx2y2           0.0       0.0       0.0       0.1       0.0       0.0
 3 C  dxy             0.0       0.1       0.1       0.0       0.0       0.1
 4 H  s               3.8       2.2       0.4       0.7       6.0      12.0
 4 H  pz              0.1       0.0       0.0       0.0       0.2       0.1
 4 H  px              0.0       0.1       0.0       0.1       0.0       0.1
 4 H  py              0.1       0.0       0.0       0.0       0.1       0.1
 5 H  s               0.0       8.8       1.7       4.9       1.7       4.4
 5 H  pz              0.0       0.0       0.0       0.0       0.1       0.1
 5 H  px              0.0       0.2       0.0       0.0       0.2       0.0
 6 H  s               4.8       0.5       0.0       2.6       6.5       6.1
 6 H  pz              0.2       0.0       0.0       0.1       0.0       0.1
 6 H  py              0.0       0.1       0.0       0.0       0.2       0.0
 7 H  s               8.8       0.7       0.1       1.1       3.3       2.8
 7 H  pz              0.3       0.0       0.0       0.0       0.0       0.0
 7 H  px              0.0       0.0       0.0       0.0       0.2       0.0
 8 H  s               8.3       1.8       0.0       0.0       3.1       3.6
 8 H  pz              0.1       0.0       0.0       0.0       0.1       0.0
 8 H  py              0.2       0.1       0.0       0.0       0.1       0.0
 9 H  s               0.2       1.4      17.0       3.3       2.1       0.1
 9 H  pz              0.0       0.1       0.3       0.1       0.0       0.0
 9 H  px              0.0       0.0       0.1       0.1       0.0       0.0
 9 H  py              0.0       0.1       0.0       0.1       0.0       0.1
10 H  s               0.7       5.8       2.9      13.5       0.1       1.4
10 H  pz              0.0       0.1       0.1       0.1       0.0       0.0
10 H  py              0.0       0.0       0.1       0.3       0.0       0.0
11 H  s               2.3       1.8       8.2       7.4       2.1       0.5
11 H  pz              0.0       0.0       0.0       0.3       0.0       0.0
11 H  px              0.0       0.1       0.3       0.0       0.0       0.0
11 H  py              0.0       0.1       0.0       0.0       0.0       0.1

                     18        19        20        21        22        23   
                  -0.31474  -0.27727  -0.18791   0.01843   0.05435   0.09093
                   2.00000   2.00000   2.00000   0.00000   0.00000   0.00000
                  --------  --------  --------  --------  --------  --------
 0 C  s               0.1       0.1       0.6       2.0       0.1       5.1
 0 C  pz              4.6       0.8       0.2       0.0       0.5       1.5
 0 C  px             10.3       0.8       1.2       0.7       0.6       3.2
 0 C  py              2.9       1.0       0.0       0.2       0.0       0.5
 0 C  dz2             0.4       0.0       0.0       0.0       0.3       0.0
 0 C  dxz             0.1       0.0       0.0       0.0       0.0       0.6
 0 C  dyz             0.2       0.0       0.0       0.0       0.0       0.1
 0 C  dx2y2           0.0       0.1       0.0       0.1       0.4       0.1
 0 C  dxy             0.0       0.1       0.0       0.0       0.2       0.1
 1 C  s               0.0       0.7       0.0       4.1       3.3      15.4
 1 C  pz              4.5       3.8       1.1       1.3       4.3       2.2
 1 C  px              9.6       4.5       0.3       5.2       7.3       1.9
 1 C  py              4.2       6.2       0.3       0.5       5.2       2.0
 1 C  dz2             0.4       0.0       0.3       0.1       0.0       0.0
 1 C  dxz             0.1       0.0       0.3       0.1       0.3       0.1
 1 C  dyz             0.3       0.0       0.0       0.2       0.0       0.1
 1 C  dx2y2           0.0       0.4       0.0       0.2       1.0       0.1
 1 C  dxy             0.0       0.0       0.0       0.2       0.2       0.2
 2 S  s               0.5       7.2       0.0       0.1      13.7       2.7
 2 S  pz              0.1      11.4      64.0       1.6       4.5       0.1
 2 S  px             11.9       2.9       8.5      28.1       1.5       0.3
 2 S  py              1.9      38.5      12.0       2.9      16.2       0.4
 2 S  dz2             0.0       0.2       0.2       1.6       4.8       1.5
 2 S  dxz             0.1       0.3       0.0       4.3       5.2       1.0
 2 S  dyz             0.1       0.0       0.1       0.3       1.8       1.5
 2 S  dx2y2           0.0       0.4       0.0       2.4       1.0       0.0
 2 S  dxy             0.8       0.1       0.0      20.9       0.4       0.5
 3 C  s               0.3       0.7       0.0       5.3       2.1      24.3
 3 C  pz              0.1       0.8       1.2       0.1       0.0       0.0
 3 C  px             11.5       0.5       0.1       4.4       8.0       0.9
 3 C  py              2.2       6.1       0.2       5.1       7.4       1.4
 3 C  dz2             0.0       0.1       0.1       0.0       0.3       0.1
 3 C  dxz             0.1       0.1       0.1       0.1       0.0       0.0
 3 C  dyz             0.0       0.0       0.4       0.0       0.0       0.0
 3 C  dx2y2           0.1       0.2       0.2       0.3       0.1       0.0
 3 C  dxy             0.1       0.0       0.0       0.2       1.0       0.5
 4 H  s               2.1       1.0       0.1       0.5       0.4       0.6
 4 H  px              0.1       0.0       0.0       0.0       0.0       0.2
 4 H  py              0.0       0.0       0.0       0.2       0.0       0.2
 5 H  s               5.6       1.7       0.4       0.1       1.4       1.4
 5 H  pz              0.0       0.0       0.0       0.1       0.1       0.4
 5 H  px              0.0       0.0       0.0       0.0       0.3       0.1
 5 H  py              0.1       0.0       0.0       0.1       0.0       0.1
 6 H  s               7.9       0.1       0.0       0.1       0.3       1.3
 6 H  pz              0.1       0.0       0.0       0.1       0.0       0.1
 6 H  px              0.0       0.0       0.0       0.0       0.0       0.4
 6 H  py              0.0       0.0       0.0       0.0       0.0       0.2
 7 H  s               7.8       0.2       2.4       0.1       0.2       2.7
 7 H  pz              0.1       0.0       0.0       0.1       0.4       0.8
 7 H  px              0.1       0.0       0.0       0.2       0.4       0.0
 7 H  py              0.0       0.1       0.0       0.0       0.3       0.6
 8 H  s               4.1       4.7       0.2       1.9       1.5       3.3
 8 H  pz              0.1       0.0       0.0       0.1       0.1       0.0
 8 H  px              0.0       0.1       0.0       0.2       0.5       0.5
 8 H  py              0.0       0.0       0.0       0.4       0.0       1.7
 9 H  s               0.0       1.5       2.6       0.7       0.2       3.7
 9 H  pz              0.0       0.0       0.0       0.1       0.0       1.7
 9 H  px              0.1       0.0       0.0       0.2       0.3       0.0
 9 H  py              0.0       0.1       0.0       0.3       0.2       0.0
10 H  s               0.0       1.3       2.6       0.6       0.1       4.1
10 H  pz              0.0       0.0       0.0       0.0       0.0       0.5
10 H  px              0.1       0.0       0.0       0.1       0.4       0.8
10 H  py              0.0       0.0       0.0       0.4       0.2       0.7
11 H  s               4.2       0.9       0.0       0.5       0.1       4.0
11 H  pz              0.0       0.0       0.0       0.0       0.0       0.3
11 H  px              0.0       0.0       0.0       0.2       0.3       0.7
11 H  py              0.1       0.0       0.0       0.0       0.6       0.5

                     24        25        26        27        28        29   
                   0.11743   0.14822   0.15246   0.16000   0.16349   0.17386
                   0.00000   0.00000   0.00000   0.00000   0.00000   0.00000
                  --------  --------  --------  --------  --------  --------
 0 C  s              27.1       0.7       0.1       3.6       2.9       3.0
 0 C  pz              0.8       0.5      12.1       5.3       3.3       2.6
 0 C  px             14.0       0.8       3.9       4.7       2.9       8.3
 0 C  py              0.1       8.0       0.8       0.2       1.4       6.0
 0 C  dz2             0.0       0.4       0.2       0.1       0.0       0.4
 0 C  dxz             0.2       0.2       1.0       0.0       0.3       0.1
 0 C  dyz             0.0       0.3       0.0       0.6       0.6       0.0
 0 C  dx2y2           0.0       0.1       0.0       0.1       0.7       0.7
 0 C  dxy             0.1       0.4       0.2       0.2       0.3       0.2
 1 C  s               1.2       0.3       7.1       1.9       0.4       0.9
 1 C  pz              7.9       1.5      14.1       8.3       0.5       5.0
 1 C  px             10.2       1.7       4.3       0.0       0.1       0.2
 1 C  py              0.1      18.7       0.6       0.4       3.5       2.5
 1 C  dz2             0.0       1.3       0.4       0.0       0.7       0.0
 1 C  dxz             1.3       0.0       0.1       0.1       0.0       0.0
 1 C  dyz             0.3       1.1       0.0       0.7       0.1       0.6
 1 C  dx2y2           0.6       0.5       0.1       0.0       0.0       0.6
 1 C  dxy             0.0       0.1       0.1       0.3       0.0       0.0
 2 S  s               0.3       2.4       0.6       0.2       0.1       0.4
 2 S  pz              0.2       0.0       0.8       0.3       0.1       2.5
 2 S  px              1.0       0.1       3.3       0.6       0.6       0.0
 2 S  py              0.3       1.3       0.0       0.0       0.3       0.3
 2 S  dz2             2.7       0.6       0.8       3.2       0.4       0.1
 2 S  dxz             0.4       2.2       0.2       0.5      13.3       0.9
 2 S  dyz             1.4       0.0       0.1       0.8       0.3      10.2
 2 S  dx2y2           1.2       3.2       0.9       3.8       6.3       0.2
 2 S  dxy             1.3       2.3       0.4       2.7       0.2       1.0
 3 C  s               0.2       0.6      10.0       0.2       0.2       0.1
 3 C  pz              1.9       1.3       3.6      10.1       2.9       1.3
 3 C  px              1.5       0.4       5.0       0.6       1.6       6.8
 3 C  py              0.2      18.6       3.3       0.4       5.4       3.5
 3 C  dz2             0.3       0.1       0.3       2.0       0.4       0.7
 3 C  dxz             0.2       0.0       0.0       0.5       0.4       1.1
 3 C  dyz             0.2       0.1       0.2       0.0       1.8       0.0
 3 C  dx2y2           0.2       0.1       0.0       0.5       0.7       0.5
 3 C  dxy             0.0       0.0       0.3       0.4       0.6       0.1
 4 H  s               2.2       3.0       0.0       1.2       3.0       2.5
 4 H  pz              0.0       0.0       0.0       0.6       0.5       0.1
 4 H  px              0.4       0.0       0.3       0.1       0.2       0.0
 4 H  py              1.4       1.0       0.0       0.3       1.0       0.0
 5 H  s               1.3       0.2       3.3       4.7       4.5       5.7
 5 H  pz              0.1       0.0       0.6       0.1       0.0       0.8
 5 H  px              1.5       0.0       0.4       0.6       0.2       1.1
 5 H  py              0.1       0.0       0.3       0.8       0.0       0.0
 6 H  s               2.3       0.6       0.3       1.0       3.8       1.5
 6 H  pz              1.3       0.3       0.3       0.0       0.2       0.9
 6 H  px              0.0       0.2       0.3       0.0       0.1       0.1
 6 H  py              0.4       0.0       0.1       0.1       1.3       0.3
 7 H  s               1.8       6.5       3.7       4.2       0.4       2.2
 7 H  pz              0.0       2.1       2.1       0.1       0.1       0.1
 7 H  px              0.6       0.1       0.0       0.2       0.0       0.0
 7 H  py              0.3       0.0       0.5       0.6       0.4       1.0
 8 H  s               0.2      10.9       0.7       0.8       0.8       0.8
 8 H  pz              0.7       0.5       0.0       0.6       0.1       0.5
 8 H  px              0.4       0.1       0.2       0.3       0.0       0.1
 8 H  py              0.1       3.2       0.8       0.4       0.1       0.2
 9 H  s               2.0       0.2       1.6      13.9       3.3       3.1
 9 H  pz              0.6       0.0       0.7       2.7       0.2       0.3
 9 H  px              0.2       0.0       0.0       0.3       0.2       0.8
 9 H  py              0.1       0.2       0.2       0.0       1.2       0.1
10 H  s               2.0       0.4       3.8       0.4      18.1       2.2
10 H  pz              0.0       0.0       0.8       0.8       0.6       1.2
10 H  px              0.0       0.0       0.5       0.6       0.4       0.0
10 H  py              0.4       0.5       0.3       0.3       2.1       0.2
11 H  s               1.4       0.1       1.6       8.7       2.0      10.6
11 H  pz              0.5       0.0       0.2       0.1       1.3       0.4
11 H  px              0.0       0.0       0.7       1.9       0.1       2.3
11 H  py              0.0       0.0       0.5       0.2       0.2       0.1

                     30        31        32        33        34        35   
                   0.17839   0.19375   0.20659   0.21145   0.21921   0.23296
                   0.00000   0.00000   0.00000   0.00000   0.00000   0.00000
                  --------  --------  --------  --------  --------  --------
 0 C  s               2.4       0.4       0.4       0.7       0.6       0.0
 0 C  pz              9.0       1.0       6.8      26.2       3.9       7.9
 0 C  px              9.8       5.4       1.2       0.7       1.5       1.6
 0 C  py              3.5       9.7      27.7       7.0       4.6      13.7
 0 C  dz2             0.3       1.3       0.9       0.1       0.0       0.1
 0 C  dxz             0.9       0.1       0.9       0.5       0.1       0.2
 0 C  dyz             0.3       0.8       0.7       0.1       0.1       0.1
 0 C  dx2y2           0.7       1.5       0.0       0.1       0.9       0.5
 0 C  dxy             0.1       0.1       0.0       0.1       0.0       0.8
 1 C  s               0.8       0.4       0.8       0.2       0.2       0.0
 1 C  pz              6.8       2.9       0.7       0.5       5.0       4.8
 1 C  px              2.6       2.0       2.2       5.9       2.0       4.7
 1 C  py              0.3       0.3       7.5       0.4       1.0      14.1
 1 C  dz2             0.4       0.0       0.1       0.0       0.2       0.0
 1 C  dxz             0.2       0.3       0.0       0.2       0.0       0.2
 1 C  dyz             0.1       0.0       0.0       0.2       0.0       0.1
 1 C  dx2y2           0.4       0.0       0.0       0.2       0.0       0.5
 1 C  dxy             0.0       0.4       0.2       0.0       0.0       0.7
 2 S  s               0.5       0.1       0.0       0.0       0.1       0.8
 2 S  pz              2.7       0.4       0.3       0.8       1.5       0.5
 2 S  px              0.6       1.7       1.2       0.3       0.7       3.2
 2 S  py              0.3       2.0       0.1       1.2       0.2       2.3
 2 S  dz2             5.9       0.0       0.8       0.5       1.1       0.3
 2 S  dxz             0.5       0.5       0.3       0.7       0.1       2.2
 2 S  dyz             1.3       5.7       0.7       0.9       0.2       2.6
 2 S  dx2y2           0.2       0.4       0.0       0.1       0.1       1.8
 2 S  dxy             0.3       2.3       1.1       0.1       0.2       0.4
 3 C  s               3.0       0.7       1.2       0.6       0.0       1.7
 3 C  pz              5.6       4.4       5.2      22.5      35.3       0.7
 3 C  px             13.8       6.8       2.0       7.6       9.7       4.9
 3 C  py              2.9       8.6      13.8       1.4      17.3       2.1
 3 C  dz2             0.0       0.5       0.0       0.7       0.1       0.2
 3 C  dxz             0.0       0.1       0.2       0.0       0.4       0.0
 3 C  dyz             0.1       0.0       0.0       0.0       0.0       0.0
 3 C  dx2y2           0.1       0.0       0.2       0.0       0.0       0.1
 3 C  dxy             0.0       0.2       0.2       0.0       0.1       0.7
 4 H  s               0.3      15.9       2.3       3.8       2.1       3.7
 4 H  pz              0.4       0.5       0.5       0.2       0.1       0.0
 4 H  px              0.3       0.1       0.0       0.2       0.0       1.2
 4 H  py              0.1       3.5       0.2       1.1       0.3       1.2
 5 H  s               0.3       0.9       0.4       3.3       0.1       6.7
 5 H  pz              0.7       0.0       0.6       0.9       0.1       0.0
 5 H  px              0.1       0.0       0.0       1.1       0.0       1.3
 5 H  py              0.0       2.0       0.7       0.0       0.2       0.3
 6 H  s               8.2       6.9       8.7       1.2       0.9       1.0
 6 H  pz              1.9       2.0       0.7       0.0       0.0       0.2
 6 H  px              0.7       0.1       0.3       0.1       0.0       0.1
 6 H  py              0.9       0.0       0.0       0.1       0.5       0.0
 7 H  s               3.1       1.0       0.6       0.8       2.0       1.1
 7 H  pz              0.5       0.1       0.1       0.1       0.8       0.0
 7 H  px              0.2       0.3       0.0       0.2       0.0       0.2
 7 H  py              0.2       0.1       0.0       0.0       0.1       0.5
 8 H  s               0.4       0.3       1.0       0.6       0.1       1.6
 8 H  pz              0.1       0.0       0.0       0.0       0.0       0.1
 8 H  px              0.1       0.0       0.3       0.3       0.0       0.0
 8 H  py              0.1       0.0       0.5       0.1       0.0       0.0
 9 H  s               1.4       2.2       0.9       2.6       0.7       1.2
 9 H  pz              1.0       0.6       0.3       0.0       0.6       0.3
 9 H  px              0.0       0.0       0.2       0.0       0.4       0.1
 9 H  py              0.2       0.0       0.0       0.0       0.0       0.1
10 H  s               0.1       0.3       0.5       0.1       1.6       2.8
10 H  pz              0.0       0.0       0.1       0.4       0.4       0.3
10 H  px              0.0       0.0       0.0       0.0       0.0       0.4
10 H  py              0.0       0.5       0.3       0.1       0.6       0.4
11 H  s               1.4       0.7       2.6       1.1       0.1       0.4
11 H  pz              0.1       0.0       0.2       0.6       0.3       0.1
11 H  px              0.6       0.5       0.4       0.2       0.2       0.0
11 H  py              0.1       0.0       0.1       0.0       0.2       0.4

                     36        37        38        39        40        41   
                   0.25205   0.26216   0.26668   0.29472   0.31727   0.34912
                   0.00000   0.00000   0.00000   0.00000   0.00000   0.00000
                  --------  --------  --------  --------  --------  --------
 0 C  s               0.3       0.4       1.7       0.6       0.9       1.2
 0 C  pz              8.1       2.7       1.5       4.7       2.4       1.3
 0 C  px             19.6       1.5       9.9       4.3       0.3       0.9
 0 C  py              0.0      24.1       0.5       0.5       2.2       0.4
 0 C  dz2             0.1       0.0       0.0       0.0       0.1       0.0
 0 C  dxz             0.1       0.0       0.3       0.2       0.3       0.1
 0 C  dyz             0.0       0.1       0.6       0.1       0.1       0.0
 0 C  dx2y2           0.0       0.3       0.0       0.0       0.1       0.1
 0 C  dxy             0.0       0.4       0.0       0.1       0.4       0.1
 1 C  s               2.4       0.3       0.8       4.6       0.7       0.7
 1 C  pz             16.9       3.3       4.9       0.7       2.1       5.9
 1 C  px              9.2       1.7       2.1       0.6       7.4       3.4
 1 C  py              0.3       3.2      10.8       3.2      25.7       0.1
 1 C  dz2             0.2       0.4       0.8       0.0       0.5       0.0
 1 C  dxz             0.7       0.0       1.0       0.0       0.7       0.2
 1 C  dyz             0.2       0.1       0.4       0.1       0.3       0.6
 1 C  dx2y2           0.0       1.0       0.1       0.4       0.1       0.1
 1 C  dxy             0.1       0.0       0.1       0.0       0.0       0.0
 2 S  s               0.6       0.2       0.2       2.5       0.0       0.0
 2 S  pz              1.9       0.6       3.2       2.1       0.1      37.0
 2 S  px              1.0       0.9       0.2       3.3       1.1       0.0
 2 S  py              5.6       3.8       1.7      32.0       7.6       0.9
 2 S  dz2             2.3       2.8      10.7       0.7       0.2       8.6
 2 S  dxz             0.6       0.0       0.2       0.0       1.5       0.4
 2 S  dyz             0.1       8.0       3.0       0.0       0.2      13.9
 2 S  dx2y2           1.5       2.4       3.2      11.3       0.5       0.3
 2 S  dxy             0.1       0.1       5.6       0.7       0.3       0.8
 3 C  s               2.0       0.2       0.0       4.5       2.5       0.3
 3 C  pz              2.1       0.8       2.5       0.0       3.1       4.1
 3 C  px              7.8       1.4       4.3       3.1      16.9       0.1
 3 C  py              0.7      11.6       3.4       0.6       0.3       0.2
 3 C  dz2             0.0       0.0       0.2       0.1       0.1       0.0
 3 C  dxz             0.1       0.0       0.0       0.2       0.2       0.1
 3 C  dyz             0.0       0.1       1.0       0.1       0.1       0.0
 3 C  dx2y2           0.2       0.0       0.2       0.0       0.0       0.0
 3 C  dxy             0.3       0.1       0.0       0.3       0.5       0.0
 4 H  s               0.1       1.3       0.3       0.4       0.2       1.5
 4 H  pz              0.0       0.4       0.6       0.1       0.1       0.0
 4 H  px              0.0       0.1       0.0       0.1       0.8       0.0
 4 H  py              0.0       0.4       0.0       0.4       0.0       0.7
 5 H  s               3.0       2.2       2.8       1.6       0.7       1.1
 5 H  pz              0.1       0.0       0.3       0.0       0.0       0.2
 5 H  px              1.8       0.1       0.1       0.0       0.1       0.0
 5 H  py              0.1       0.0       0.0       0.1       1.1       0.1
 6 H  s               1.3       3.0       0.3       0.4       0.4       2.5
 6 H  pz              1.1       0.6       0.1       0.4       0.0       0.5
 6 H  px              0.3       0.0       0.6       0.0       0.8       0.0
 6 H  py              0.0       1.1       0.1       0.0       0.1       0.2
 7 H  s               1.3       1.7       2.0       2.0       2.6       4.9
 7 H  pz              0.3       1.2       0.0       0.7       0.3       0.5
 7 H  px              0.2       0.1       0.2       0.0       0.8       0.9
 7 H  py              0.1       0.1       0.5       0.4       0.0       0.7
 8 H  s               0.5      10.4       5.1       0.8       0.9       0.6
 8 H  pz              0.1       0.1       0.4       0.1       0.0       0.7
 8 H  px              0.3       0.0       0.1       0.0       0.1       0.1
 8 H  py              0.1       2.5       0.3       0.0       1.5       0.3
 9 H  s               0.5       0.4       3.8       1.2       0.1       1.1
 9 H  pz              0.5       0.3       0.9       0.5       0.2       0.5
 9 H  px              0.0       0.0       0.0       0.2       0.3       0.1
 9 H  py              0.0       0.0       0.9       0.1       0.2       0.1
10 H  s               0.4       1.1       3.7       0.6       1.7       0.5
10 H  pz              0.0       0.3       0.1       0.0       0.1       0.1
10 H  px              0.4       0.1       0.0       0.1       0.4       0.0
10 H  py              0.1       0.4       0.4       0.0       1.3       0.4
11 H  s               2.3       0.1       0.8       5.5       5.3       0.1
11 H  pz              0.0       0.0       0.3       0.9       0.1       0.0
11 H  px              0.0       0.0       0.1       1.4       0.2       0.1
11 H  py              0.0       0.0       0.0       0.4       0.5       0.0

                     42        43        44        45        46        47   
                   0.37521   0.39225   0.42069   0.43336   0.45566   0.46700
                   0.00000   0.00000   0.00000   0.00000   0.00000   0.00000
                  --------  --------  --------  --------  --------  --------
 0 C  s               3.6       2.4       4.1       5.7       3.5       7.1
 0 C  pz              6.5       0.2       7.0       0.1       0.0       1.1
 0 C  px              4.4       0.0      12.0       0.5       0.9       1.2
 0 C  py              0.8       0.0       0.3       0.1       1.7       1.2
 0 C  dz2             0.0       0.0       0.0       0.0       0.0       0.2
 0 C  dxz             0.3       0.0       1.6       0.0       0.3       0.0
 0 C  dyz             0.1       0.0       0.0       0.0       0.0       0.2
 0 C  dx2y2           0.0       0.0       0.8       0.2       0.2       0.0
 0 C  dxy             0.1       0.3       0.1       0.0       0.5       0.0
 1 C  s               1.3       4.1       6.8       0.6       2.2       0.9
 1 C  pz              0.0       0.0       9.2       0.2       3.5       2.4
 1 C  px              7.8       2.1       3.6      26.2       1.3       3.8
 1 C  py              0.1       2.2       2.1       0.1       5.3       0.9
 1 C  dz2             0.2       0.0       0.0       0.0       0.1       0.3
 1 C  dxz             0.5       0.0       0.5       0.1       0.2       0.1
 1 C  dyz             0.1       0.0       0.2       0.0       0.2       0.5
 1 C  dx2y2           0.3       0.0       0.5       0.5       0.1       0.0
 1 C  dxy             0.1       0.8       0.0       0.0       1.1       0.1
 2 S  s               0.4       1.1       0.4       1.8       0.2       0.1
 2 S  pz              2.3      10.8       0.7       5.8       5.4      17.6
 2 S  px             12.2       4.5      25.1       0.4       3.4      14.3
 2 S  py              0.9       5.9       1.0       6.1      16.1       0.1
 2 S  dz2             0.3       5.6       5.7       4.2       6.5      14.8
 2 S  dxz            17.3       9.1       0.8       3.9       2.7       2.8
 2 S  dyz             0.3      16.8       0.2       5.2       0.2       8.7
 2 S  dx2y2          19.4       2.7       5.0       0.2       4.9       1.4
 2 S  dxy             0.8       2.1       0.9       0.7       4.7       0.1
 3 C  s               0.9       1.6       0.3      11.1       9.4       1.2
 3 C  pz              1.4       5.1       0.4       0.4       0.1       0.4
 3 C  px              1.4       1.2       0.1       2.0       1.2       0.2
 3 C  py              2.9       1.9       0.2       0.6       0.2       0.6
 3 C  dz2             0.0       0.4       0.1       0.0       0.0       0.4
 3 C  dxz             0.9       0.1       0.1       0.1       0.0       0.3
 3 C  dyz             0.0       0.4       0.2       0.1       0.2       0.1
 3 C  dx2y2           0.5       0.1       0.2       0.1       0.5       0.1
 3 C  dxy             0.0       0.4       0.0       0.3       0.1       0.0
 4 H  s               0.4       1.0       1.0       1.8       4.0       0.8
 4 H  pz              0.1       0.0       0.0       0.0       0.0       0.6
 4 H  px              0.3       0.2       0.5       0.1       0.0       0.0
 4 H  py              0.0       0.1       0.2       0.5       1.6       0.2
 5 H  s               0.5       0.8       0.1       4.0       0.8       4.4
 5 H  pz              0.2       0.1       0.0       0.0       0.0       0.9
 5 H  px              0.0       0.3       0.1       1.8       0.1       0.8
 5 H  py              0.1       0.0       0.0       0.0       1.1       0.2
 6 H  s               0.3       0.6       1.1       3.4       0.3       1.3
 6 H  pz              0.0       0.1       0.3       0.7       0.0       1.0
 6 H  px              0.1       0.2       0.3       0.1       0.5       0.1
 6 H  py              0.2       0.1       0.1       0.4       0.1       0.1
 7 H  s               0.4       0.5       2.0       0.8       0.4       1.6
[...]
 7 H  pz              4.7       1.2       2.5       3.3       0.1      12.0
 7 H  px              0.2       0.0       5.7       0.3       0.0       0.1
 7 H  py             12.7       1.1       0.4       1.4       0.0       4.6
 8 H  s               0.0       0.1       0.1       0.3       0.2       2.4
 8 H  pz             18.0       5.9       0.1       0.0       0.0       0.1
 8 H  px              0.5       3.8       2.4       0.6       0.0       0.7
 8 H  py              0.0       0.3       0.1       3.7       0.8      13.2
 9 H  s               0.0       0.0       0.0       0.0       2.5       0.1
 9 H  pz              0.0       0.0       0.0       0.1      18.7       0.5
 9 H  px              0.1       0.1       0.2       0.6       0.2       0.0
 9 H  py              1.1       0.1       0.0       0.0       0.6       0.0
10 H  s               0.0       0.0       0.1       0.0       2.5       0.0
10 H  pz              0.6       0.1       0.1       0.1       4.5       0.1
10 H  px              0.1       0.1       0.7       0.0       3.2       0.1
10 H  py              0.2       0.0       0.2       0.1      11.8       0.1
11 H  s               0.0       0.0       0.0       0.0       2.8       0.0
11 H  pz              0.1       0.1       0.0       0.0       4.0       0.1
11 H  px              0.2       0.0       0.1       0.6      14.0       0.0
11 H  py              0.5       0.1       0.2       0.2       2.9       0.1

                    114       115       116       117       118       119   
                   3.49475   3.49825   3.51355   3.51805   3.56222   3.61000
                   0.00000   0.00000   0.00000   0.00000   0.00000   0.00000
                  --------  --------  --------  --------  --------  --------
 0 C  s               2.1       0.0       0.2       0.2       0.5       0.1
 0 C  pz              0.3       0.8       0.1       0.1      11.1       0.1
 0 C  px             10.8       0.0       0.7       0.7       0.7       0.1
 0 C  py              0.1       6.3       0.2       3.0       0.6       3.4
 0 C  dz2             1.4       4.7       0.1       1.0       3.5       4.3
 0 C  dxz            13.1       0.8       0.8       2.1       0.1       0.2
 0 C  dyz             0.5       3.2       0.0       0.6       7.0       2.2
 0 C  dx2y2           0.7       2.5       0.5       1.4      10.1       4.0
 0 C  dxy             2.2       1.6       0.0       1.9       3.3       0.1
 1 C  s               1.6       0.0       0.1       0.1       0.6       0.0
 1 C  pz              5.6       0.3       0.7       0.1       1.5       0.9
 1 C  px              2.9       0.3       0.3       0.5       1.0       0.8
 1 C  py              0.0       2.7       0.1       1.0       0.1       7.2
 1 C  dz2             1.7       2.6       0.3       0.6       0.2       9.4
 1 C  dxz             5.5       0.0       0.5       0.3       1.1       0.1
 1 C  dyz             1.0       1.9       0.3       0.7       1.1       5.6
 1 C  dx2y2           5.4       1.0       0.3       0.8       3.1       5.0
 1 C  dxy             0.0       0.3       0.0       0.1       0.3       0.4
 2 S  px              0.0       0.0       0.1       0.0       0.2       0.1
 2 S  py              0.0       0.1       0.1       0.0       0.0       0.2
 3 C  pz              0.6       3.6       0.3       8.9       0.1       0.0
 3 C  px              0.4       0.1       6.8       0.0       0.1       0.0
 3 C  py              0.2       0.5       5.3       0.1       0.0       0.0
 3 C  dz2             0.9       3.7       1.1      11.2       0.1       0.1
 3 C  dxz             1.1       0.1       9.5       0.7       0.0       0.0
 3 C  dyz             0.0       2.9       5.4       4.9       0.2       0.0
 3 C  dx2y2           0.7       0.4      10.1       0.0       0.1       0.0
 3 C  dxy             0.2       1.6       0.0       2.1       0.0       0.0
 4 H  s               0.5       4.6       0.2       1.9       1.0       3.4
 4 H  pz              0.1       0.5       0.0       0.2       0.1       0.3
 4 H  px              0.3       0.1       0.0       0.1       0.3       0.7
 4 H  py              2.3      10.4       0.8       3.8       3.1       7.8
 5 H  s               4.7       0.4       0.1       1.3       5.7       0.1
 5 H  pz              4.5       0.7       0.1       1.5       1.4       0.0
 5 H  px              6.3       0.7       0.1       2.4       9.6       0.2
 5 H  py              3.7       0.1       0.2       0.1       2.0       0.1
 6 H  s               0.2       3.0       0.0       0.7       6.2       1.5
 6 H  pz              0.0       6.3       0.0       1.9      11.4       3.3
 6 H  px              0.2       0.4       0.0       0.3       0.2       0.0
 6 H  py              0.0       0.7       0.0       0.1       5.0       0.5
 7 H  s               2.4       1.4       0.4       0.4       0.8       4.4
 7 H  pz              4.1       3.0       0.9       0.9       2.4       8.8
 7 H  px              0.5       0.0       0.1       0.0       0.1       0.0
 7 H  py              2.7       0.2       0.3       0.0       0.5       1.4
 8 H  s               0.3       2.1       0.0       0.8       0.5       6.6
 8 H  pz              0.3       0.1       0.2       0.0       0.1       0.8
 8 H  px              0.0       0.0       0.0       0.0       0.0       0.7
 8 H  py              1.7       5.0       0.1       1.6       1.9      14.9
 9 H  s               0.5       2.7       0.4       7.2       0.1       0.0
 9 H  pz              1.3       5.9       0.9      17.0       0.2       0.1
 9 H  px              0.0       0.1       0.4       0.5       0.0       0.0
 9 H  py              0.0       0.4       0.0       1.0       0.0       0.0
10 H  s               0.1       2.2       5.8       2.8       0.1       0.0
10 H  pz              0.1       1.0       4.7       0.9       0.0       0.0
10 H  px              0.0       0.8       1.2       1.1       0.0       0.0
10 H  py              0.1       4.2       8.8       4.8       0.2       0.0
11 H  s               1.0       0.1       8.9       0.8       0.0       0.0
11 H  pz              0.3       0.0       4.4       0.0       0.0       0.0
11 H  px              2.1       0.3      15.4       1.8       0.0       0.0
11 H  py              0.3       0.1       1.5       0.3       0.0       0.0

                    120       121       122       123   
                  18.77785  21.83329  21.89962  21.96128
                   0.00000   0.00000   0.00000   0.00000
                  --------  --------  --------  --------
 0 C  s               0.0      45.5      18.3      35.9
 1 C  s               0.2      33.9       3.4      62.3
 2 S  s              99.4       0.0       0.0       0.0
 3 C  s               0.1      20.2      77.9       1.6


                      *****************************
                      * MAYER POPULATION ANALYSIS *
                      *****************************

  NA   - Mulliken gross atomic population
  ZA   - Total nuclear charge
  QA   - Mulliken gross atomic charge
  VA   - Mayer's total valence
  BVA  - Mayer's bonded valence
  FA   - Mayer's free valence

  ATOM       NA         ZA         QA         VA         BVA        FA
  0 C      6.4404     6.0000    -0.4404     3.8422     3.8422     0.0000
  1 C      6.2210     6.0000    -0.2210     3.7142     3.7142     0.0000
  2 S     16.1304    16.0000    -0.1304     1.9550     1.9550     0.0000
  3 C      6.4256     6.0000    -0.4256     3.8628     3.8628    -0.0000
  4 H      0.8524     1.0000     0.1476     0.9621     0.9621     0.0000
  5 H      0.8589     1.0000     0.1411     0.9624     0.9624     0.0000
  6 H      0.8471     1.0000     0.1529     0.9626     0.9626     0.0000
  7 H      0.8397     1.0000     0.1603     0.9508     0.9508    -0.0000
  8 H      0.8571     1.0000     0.1429     0.9657     0.9657     0.0000
  9 H      0.8405     1.0000     0.1595     0.9538     0.9538    -0.0000
 10 H      0.8427     1.0000     0.1573     0.9539     0.9539    -0.0000
 11 H      0.8444     1.0000     0.1556     0.9629     0.9629    -0.0000

  Mayer bond orders larger than 0.100000
B(  0-C ,  1-C ) :   0.9224 B(  0-C ,  4-H ) :   0.9735 B(  0-C ,  5-H ) :   0.9642 
B(  0-C ,  6-H ) :   0.9733 B(  1-C ,  2-S ) :   0.9239 B(  1-C ,  7-H ) :   0.9504 
B(  1-C ,  8-H ) :   0.9555 B(  2-S ,  3-C ) :   0.9813 B(  3-C ,  9-H ) :   0.9547 
B(  3-C , 10-H ) :   0.9544 B(  3-C , 11-H ) :   0.9527 

-------
TIMINGS
-------

Total SCF time: 0 days 0 hours 0 min 3 sec 

Total time                  ....       3.664 sec
Sum of individual times     ....       3.653 sec  ( 99.7%)

SCF preparation             ....       0.026 sec  (  0.7%)
Fock matrix formation       ....       3.530 sec  ( 96.4%)
  Startup                   ....       0.001 sec  (  0.0% of F)
  Split-RI-J                ....       0.514 sec  ( 14.6% of F)
  XC integration            ....       3.007 sec  ( 85.2% of F)
    Basis function eval.    ....       0.621 sec  ( 20.6% of XC)
    Density eval.           ....       0.865 sec  ( 28.7% of XC)
    XC-Functional eval.     ....       0.550 sec  ( 18.3% of XC)
    XC-Potential eval.      ....       0.899 sec  ( 29.9% of XC)
Diagonalization             ....       0.000 sec  (  0.0%)
Density matrix formation    ....       0.016 sec  (  0.4%)
Total Energy calculation    ....       0.001 sec  (  0.0%)
Population analysis         ....       0.037 sec  (  1.0%)
Orbital Transformation      ....       0.013 sec  (  0.4%)
Orbital Orthonormalization  ....       0.000 sec  (  0.0%)
DIIS solution               ....       0.026 sec  (  0.7%)
  MO trafo                  ....       0.000 sec  (  0.0 % of DIIS)
  Orb grad                  ....       0.000 sec  (  0.0 % of DIIS)
  Energy W gradient         ....       0.000 sec  (  0.0 % of DIIS)
  DIIS error                ....       0.002 sec  (  6.7 % of DIIS)
  DIIS work                 ....       0.015 sec  ( 57.3 % of DIIS)
  Form Q                    ....       0.000 sec  (  0.0 % of DIIS)
  Form QpQm                 ....       0.000 sec  (  0.0 % of DIIS)
  Exp/Cayley                ....       0.000 sec  (  0.0 % of DIIS)
  Orb update                ....       0.000 sec  (  0.0 % of DIIS)
  Wake-sleep                ....       0.000 sec  (  1.2 % of DIIS)
SOSCF solution              ....       0.004 sec  (  0.1%)
  MO trafo                  ....       0.004 sec  ( 86.5 % of SOSCF)
  Orb grad                  ....       0.000 sec  (  0.6 % of SOSCF)
  Rot update                ....       0.000 sec  (  0.2 % of SOSCF)
  Step                      ....       0.001 sec  ( 12.1 % of SOSCF)
Finished LeanSCF after   3.7 sec

Maximum memory used throughout the entire LEANSCF-calculation: 13.1 MB


-------------------------------------------------------------------------------
                          DFT DISPERSION CORRECTION                            
                                                                               
                                DFTD4 V3.4.0                                   
-------------------------------------------------------------------------------
The R2SCAN3C composite method is recognized
Using three-body term ABC
Active option DFTDOPT                   ...         5   

-------------------------   ----------------
Dispersion correction           -0.002508668
-------------------------   ----------------

------------------   -----------------
gCP correction             0.009614687
------------------   -----------------

-------------------------   --------------------
FINAL SINGLE POINT ENERGY      -517.251774270288
-------------------------   --------------------


------------------------------------------------------------------------------
                              ORCA PROPERTY CALCULATIONS
------------------------------------------------------------------------------

GBWName                                 ... sp.gbw
Number of atoms                         ...     12
Number of basis functions               ...    124
Max core memory                         ...   1024 MB

Electric properties:
Dipole moment                           ... YES
Quadrupole moment                       ...  NO
Static polarizability (Dipole/Dipole)   ...  NO
Static polarizability (Dipole/Quad.)    ...  NO
Static polarizability (Quad./Quad.)     ...  NO
Static polarizability (Velocity)        ...  NO

Atomic electric properties:
Dipole moment                           ...  NO
Quadrupole moment                       ...  NO
Static polarizability                   ...  NO

Choice of electric origin               ... Center of mass
Position of electric origin             ...    -0.000008    -0.000010    -0.000003

General magnetic properties:
Magnetizability                         ...  NO

EPR properties:
g-Tensor (aka g-matrix)                 ...  NO
Zero-Field splitting spin-orbit         ...  NO
Zero-field splitting spin-spin          ...  NO
Hyperfine couplings                     ...  NO (   0 nuclei)
Quadrupole couplings                    ...  NO (   0 nuclei)
Contact density                         ...  NO (   0 nuclei)

NMR properties:
Chemical shifts                         ...  NO (   0 nuclei)
Spin-rotation constants                 ...  NO (   0 nuclei)
Spin-spin couplings                     ...  NO (   0 nuclei,    0 pairs)

Choice of magnetic origin               ... GIAO
Position of magnetic origin             ...     0.000000     0.000000     0.000000

Properties with geometric perturbations:
SCF Hessian                             ...  NO
IR spectrum                             ...  NO
VCD spectrum                            ...  NO
X-ray spectroscopy properties:
SCF XES/XAS/RIXS spectra                ...  NO


-------------
DIPOLE MOMENT
-------------

Method             : SCF
Type of density    : Electron Density
Multiplicity       :   1
Irrep              :   0
Energy             :  -517.2588802890930992 Eh
Relativity type    : 
Basis              : AO
                                X                 Y                 Z
Electronic contribution:      2.786395223       3.297503670       0.778685220
Nuclear contribution   :     -2.920164949      -3.927481470      -1.046173514
                        -----------------------------------------
Total Dipole Moment    :     -0.133769726      -0.629977800      -0.267488294
                        -----------------------------------------
Magnitude (a.u.)       :      0.697363862
Magnitude (Debye)      :      1.772558069



--------------------
Rotational spectrum 
--------------------
 
Rotational constants in cm-1:             0.447643             0.107550             0.097701 
Rotational constants in MHz :         13420.002973          3224.282679          2929.002586 

Dipole components along the rotational axes: 
x,y,z [a.u.] :    -0.083615    -0.691850    -0.025852 
x,y,z [Debye]:    -0.212533    -1.758543    -0.065711 

 

Dipole moment calculation done in   0.0 sec 

Maximum memory used throughout the entire PROP-calculation: 7.3 MB

--------------------------------
SUGGESTED CITATIONS FOR THIS RUN
--------------------------------

Below you find a list of papers that are relevant to this ORCA run
We neither can nor want to force you to cite these papers, but we appreciate if you do
You receive ORCA, which is the product of decades of hard work by many enthusiastic individuals, for free
The only thing we kindly ask in return is that you cite our papers,
We deeply appreciate it, if you show your appreciation for ORCA by not just citing the generic ORCA reference.

Please note that relegating all ORCA citations to the supporting information does *not* help us.
SI sections are not indexed - citations you put there will not count into any citation statistics
But we need these citations in order to attract the funding resources that allow us to do what we are doing

Therefore, if you are a happy ORCA user, please consider citing a few of the papers listed below in the main body of your paper

In addition to the list printed below, the program has created the file sp.bibtex that contains the list in bibtex format
You can import this file easily into all common literature databanks and citation aid programs


List of essential papers. We consider these as the minimum necessary citations

  1. Neese,F.
     Software update: the ORCA program system, version 5.0
     WIRES Comput. Molec. Sci., 2022 12(1)e1606
     doi.org/10.1002/wcms.1606
  2. Grimme,S.; Hansen,A.; Ehlert,S.; Mewes,J.
     r2SCAN-3c: A 'Swiss army knife' composite electronic-structure method
     J. Chem. Phys., 2021 154 064103
     doi.org/10.1063/5.0040021

List of papers to cite with high priority. The work reported in these papers was absolutely
necessary for this run to complete.
Our perspective: the developers of density functionals and basis sets usually get cited in chemistry papers
Good! But without the algorithms to do something with them, the functionals or basis sets would not do anything.
Hence, in our opinion, the algorithm design and method developments papers are equally worthy of getting cited

  1. Neese,F.
     An improvement of the resolution of the identity approximation for the formation of the Coulomb matrix
     J. Comp. Chem., 2003 24(14)1740-1747
     doi.org/10.1002/jcc.10318
  2. Neese,F.
     The SHARK Integral Generation and Digestion System
     J. Comp. Chem., 2022  1-16
     doi.org/10.1002/jcc.26942
  3. Lehtola,S.; Steigemann,C.; Oliveira,M.; Marques,M.
     Recent developments in Libxc - A comprehensive library of functionals for density functional theory
     Software X, 2018 7 
     doi.org/10.1016/j.softx.2017.11.002
  4. Caldeweyher,E.; Bannwarth,C.; Grimme,S.
     Extension of the D3 dispersion coefficient model
     J. Chem. Phys., 2017 147 034112
     doi.org/10.1063/1.4993215
  5. Caldeweyher,E.; Ehlert,S.; Hansen,A.; Neugebauer,H.; Spicher,S.; Bannwarth,C.; Grimme,S.
     A generally applicable atomic-charge dependent London dispersion correction
     J. Chem. Phys., 2019 150 154122
     doi.org/10.1063/1.5090222
  6. Caldeweyher,E.; Mewes,J.; Ehlert,S.; Grimme,S.
     Extension and evaluation of the D4 London-dispersion model for periodic systems
     Phys. Chem. Chem. Phys., 2020 22(16)8499-8512
     doi.org/10.1039/D0CP00502A
  7. Wittmann,L.; Gordiy,I.; Friede,M.; Helmich-Paris,B.; Grimme,S.; Hansen,A.; Bursch,M.
     Extension of the D3 and D4 London Dispersion Corrections to the full Actinides Series
     Phys. Chem. Chem. Phys., 2024 26(32)21379-21394
     doi.org/https://doi.org/10.1039/D4CP01514B 

List of suggested additional citations. These are papers that are important in the 'surrounding' of 
of this run, or papers that preceded the highly important papers. If you like your results we are grateful for a citation.

  1. Neese,F.
     The ORCA program system
     WIRES Comput. Molec. Sci., 2012 2(1)73-78
     doi.org/10.1002/wcms.81
  2. Neese,F.
     Software update: the ORCA program system, version 4.0
     WIRES Comput. Molec. Sci., 2018 8(1)1-6
     doi.org/10.1002/wcms.1327
  3. Neese,F.; Wennmohs,F.; Becker,U.; Riplinger,C.
     The ORCA quantum chemistry program package
     J. Chem. Phys., 2020 152 Art. No. L224108
     doi.org/10.1063/5.0004608

List of optional additional citations

  1. Neese,F.
     Approximate second-order SCF convergence for spin unrestricted wavefunctions
     Chem. Phys. Lett., 2000 325(1-3)93-98
     doi.org/10.1016/s0009-2614(00)00662-x

Timings for individual modules:

Sum of individual times          ...        4.033 sec (=   0.067 min)
Startup calculation              ...        0.281 sec (=   0.005 min)   7.0 %
SCF iterations                   ...        3.718 sec (=   0.062 min)  92.2 %
Property calculations            ...        0.034 sec (=   0.001 min)   0.8 %
                             ****ORCA TERMINATED NORMALLY****
TOTAL RUN TIME: 0 days 0 hours 0 minutes 4 seconds 104 msec
