16
 energy: -30.747733917508 gnorm: 0.029356237331 xtb: 6.7.1 (41059b4)
C           -2.59411569230507       -0.69872005127372       -0.00017544663030
C           -2.59423555858982        0.69828831839993       -0.00005887327056
C           -1.39900198860609        1.42066275885630        0.00005245941623
C           -0.22054453573627        0.69684018488715        0.00003631937705
C           -0.22042530612995       -0.69686252709226       -0.00006848294124
C           -1.39875668951737       -1.42088834229568       -0.00016972790663
C            1.19227903264020       -1.17164718644124       -0.00008117517930
O            1.61967623671486       -2.30317806465920       -0.00009584762808
N            1.96237745876965        0.00017539045887        0.00001465462591
C            1.19208304468621        1.17186653006950        0.00010973888590
O            1.61928065130489        2.30347136316441        0.00021827959511
H           -3.54044972729458       -1.22945545275507       -0.00027902470303
H           -3.54066350221434        1.22885646755421       -0.00004108769068
H           -1.38634196629169        2.50523449290112        0.00015653493076
H           -1.38591192364418       -2.50545767662111       -0.00028677755436
H            2.97078553996435        0.00024687335112        0.00011968037503
16
 energy: -30.748647549693 gnorm: 0.007357552644 xtb: 6.7.1 (41059b4)
C           -2.58952213504727       -0.69475586691056       -0.00018062619861
C           -2.58964082713998        0.69432473743984       -0.00005178736481
C           -1.39952760929965        1.41539990418319        0.00005874862621
C           -0.22053480555027        0.69747795389246        0.00004321805528
C           -0.22041563812019       -0.69750238374331       -0.00007744176121
C           -1.39928486208804       -1.41562692948941       -0.00019886704388
C            1.18946526890084       -1.16551823007195       -0.00004729079145
O            1.62446280354148       -2.28569443151201       -0.00009321007298
N            1.95141593926992        0.00017428621246        0.00002087457492
C            1.18926837440744        1.16573592935623        0.00011841491263
O            1.62406907885492        2.28598817067386        0.00022007461655
H           -3.53232820977494       -1.22305184629596       -0.00026662580382
H           -3.53253869338203        1.22245709293549       -0.00004842520071
H           -1.38984610641900        2.49510885572252        0.00014844060462
H           -1.38941926296691       -2.49533412953216       -0.00028351454647
H            2.96041175856446        0.00024996564363        0.00008924109552
16
 energy: -30.748721930377 gnorm: 0.002629803138 xtb: 6.7.1 (41059b4)
C           -2.58957119866604       -0.69363085981775       -0.00017279353706
C           -2.58968961254171        0.69319975061630       -0.00005879977512
C           -1.40026554326478        1.41370168318032        0.00004695249286
C           -0.22022951555900        0.69852949861602        0.00003295907086
C           -0.22011015378955       -0.69855517519422       -0.00007737696556
C           -1.40002382051022       -1.41392940296763       -0.00018037441525
C            1.18930355344440       -1.16426087775866       -0.00007114576232
O            1.63081798841224       -2.28131543405470       -0.00011361925478
N            1.94586625506148        0.00017343981422        0.00003493702830
C            1.18910545563583        1.16447739298135        0.00011542220426
O            1.63042473353864        2.28160904175573        0.00022937335997
H           -3.53089028664149       -1.22224002987089       -0.00025975370429
H           -3.53109950416822        1.22164732455360       -0.00004606426440
H           -1.39169599977244        2.49210211776203        0.00014093233574
H           -1.39127018047526       -2.49232832720650       -0.00027894081718
H            2.95536290304692        0.00025293609512        0.00010951570579
16
 energy: -30.748729377062 gnorm: 0.000928132946 xtb: 6.7.1 (41059b4)
C           -2.59047233059221       -0.69353248579923       -0.00017524263071
C           -2.59059077216905        0.69310125321445       -0.00005614785405
C           -1.40061032618498        1.41327151494804        0.00004948151284
C           -0.22012784230201        0.69906148100243        0.00003712595760
C           -0.22000834378956       -0.69908759373359       -0.00007972938352
C           -1.40036883454189       -1.41349941160895       -0.00019186832865
C            1.18956920324937       -1.16425322607703       -0.00005422698057
O            1.63389945002185       -2.28068982953433       -0.00011628478944
N            1.94452003045907        0.00017295996826        0.00003989178272
C            1.18937049213999        1.16446912510445        0.00012428735637
O            1.63350679910485        2.28098292707588        0.00023202450064
H           -3.53129389214033       -1.22305823407571       -0.00025544408884
H           -3.53150290926541        1.22246609923550       -0.00005181448312
H           -1.39229804299731        2.49174877657153        0.00013606748099
H           -1.39187234243718       -2.49197522744646       -0.00027634763086
H            2.95431473519561        0.00025494965909        0.00008945128041
16
 energy: -30.748730282517 gnorm: 0.000475159561 xtb: 6.7.1 (41059b4)
C           -2.59122911715283       -0.69353825711812       -0.00016929888878
C           -2.59134763618719        0.69310689554748       -0.00006190985272
C           -1.40072082733737        1.41298653083392        0.00004193114051
C           -0.22010097755687        0.69934516721458        0.00002843361882
C           -0.21998138540271       -0.69937137977840       -0.00007966964506
C           -1.40047934608294       -1.41321442483237       -0.00017499711330
C            1.18972154019103       -1.16443650484273       -0.00007854160144
O            1.63536838355482       -2.28062865004767       -0.00013405148866
N            1.94436795303278        0.00017248500398        0.00005266960174
C            1.18952244619855        1.16465189121754        0.00011666456685
O            1.63497689821162        2.28092085663268        0.00023544696160
H           -3.53167414339268       -1.22404604414872       -0.00025190836677
H           -3.53188326342492        1.22345403394718       -0.00004904788754
H           -1.39261832126298        2.49174985748333        0.00013329516980
H           -1.39219251522815       -2.49197635570567       -0.00027184463522
H            2.95430538559063        0.00025697709732        0.00011405212198
16
 energy: -30.748730441760 gnorm: 0.000089348169 xtb: 6.7.1 (41059b4)
C           -2.59111518831872       -0.69350271390735       -0.00017443226792
C           -2.59123371141885        0.69307135517047       -0.00005689994918
C           -1.40063724225262        1.41296788114641        0.00004735535572
C           -0.22009940146796        0.69928830713714        0.00003703256013
C           -0.21997981959006       -0.69931439569286       -0.00008050355644
C           -1.40039569803604       -1.41319572216661       -0.00019296247565
C            1.18964358322604       -1.16446684695201       -0.00004991005633
O            1.63494417833118       -2.28068034122244       -0.00012662906982
N            1.94455730268820        0.00017238287237        0.00005003190629
C            1.18944451550591        1.16468216668808        0.00013032770211
O            1.63455316554145        2.28097222591825        0.00023386383728
H           -3.53150951875125       -1.22403914908339       -0.00025201258701
H           -3.53171871427812        1.22344703990344       -0.00005527118181
H           -1.39263483880634        2.49171114803248        0.00013210926230
H           -1.39220895658537       -2.49193761031971       -0.00027259226878
H            2.95442541796336        0.00025735098005        0.00008171649092
16
 energy: -30.748730448834 gnorm: 0.000023786683 xtb: 6.7.1 (41059b4)
C           -2.59110383000466       -0.69347716398262       -0.00016793729203
C           -2.59122236058686        0.69304579596026       -0.00006277621698
C           -1.40061639382623        1.41295220912795        0.00004122239597
C           -0.22008603140166        0.69929583429476        0.00002558251237
C           -0.21996644828554       -0.69932185856574       -0.00008108772733
C           -1.40037481312857       -1.41318002880237       -0.00017133556873
C            1.18962529760769       -1.16448131969159       -0.00008649201358
O            1.63493241171038       -2.28067584630123       -0.00014181242597
N            1.94455156682226        0.00017224729028        0.00005974027076
C            1.18942619277312        1.16469653040281        0.00011188857135
O            1.63454185549899        2.28096741995311        0.00023330282596
H           -3.53144274998249       -1.22407676529923       -0.00024957665053
H           -3.53165198282801        1.22348462646668       -0.00004793276747
H           -1.39270345491804        2.49167496261132        0.00013253707472
H           -1.39227749714601       -2.49190141498461       -0.00027004027599
H            2.95440331144642        0.00025785002456        0.00012594098928
