15
 energy: -17.731134891836 gnorm: 0.025432516932 xtb: 6.7.1 (41059b4)
C            0.75496706227392       -1.25793276097141       -0.47440254167320
C            0.00516739463958        0.00004117833639       -0.03417112369892
C           -1.42049179247698       -0.00137206173945       -0.57099404671243
C            0.75222593268871        1.25990849771192       -0.47363672940497
O           -0.13975600664485       -0.00055259979440        1.40407587720936
H            1.77239024356496       -1.26487784454973       -0.06648629059079
H            0.23358405389389       -2.15049657314192       -0.11763697035106
H            0.83227182632256       -1.30950167914471       -1.56542321012579
H           -1.95432919021581       -0.88848678777741       -0.21940622311449
H           -1.42014664476255       -0.00138347578479       -1.66467144735938
H           -1.95615131132672        0.88465242569579       -0.21942284470882
H            1.76978566328847        1.26860496687237       -0.06608575749284
H            0.82902804053455        1.31254732745477       -1.56464203995629
H            0.22912106720073        2.15109345758765       -0.11594314222321
H            0.74551832542912        0.00061292643804        1.78644056943913
15
 energy: -17.731696412459 gnorm: 0.011752737328 xtb: 6.7.1 (41059b4)
C            0.75495850470507       -1.25414660504608       -0.47133094262183
C            0.00125063107684        0.00003242476181       -0.02705486535020
C           -1.42064533031223       -0.00136740585371       -0.57816117140391
C            0.75221424239752        1.25611930282431       -0.47057747199866
O           -0.13199739912415       -0.00054254701516        1.40042816031081
H            1.76858740396301       -1.25949610725745       -0.06751920391806
H            0.23819274617786       -2.14413135697731       -0.11684393716167
H            0.81934460603785       -1.29620825325093       -1.55735480832469
H           -1.95090020778860       -0.88331849345444       -0.22570403290248
H           -1.41328981195798       -0.00134297343162       -1.66663698377465
H           -1.95268573184775        0.87949783056124       -0.22567877488888
H            1.76596914171172        1.26324347383706       -0.06710680818732
H            0.81614451508478        1.29918888063378       -1.55658840957014
H            0.23371988007962        2.14474710373803       -0.11520691126456
H            0.75232147420604        0.00058172312359        1.78293024029253
15
 energy: -17.731814300674 gnorm: 0.003230029537 xtb: 6.7.1 (41059b4)
C            0.75532028421053       -1.25449537241347       -0.47252245893702
C            0.00201024418296        0.00003314205165       -0.01931440931911
C           -1.41920692637215       -0.00136051840426       -0.57775143479941
C            0.75257230669275        1.25647166228139       -0.47178158653102
O           -0.13465205725389       -0.00053832748307        1.39783881345313
H            1.76753542929793       -1.25825761523014       -0.07217602238202
H            0.24116106912219       -2.14359496266691       -0.11764048472262
H            0.81207771701285       -1.29171109915423       -1.55637508220842
H           -1.94833493822334       -0.88197258779809       -0.22686630862750
H           -1.40172081037161       -0.00129327545890       -1.66309928328004
H           -1.95011563366564        0.87814743341039       -0.22678731142462
H            1.76489862122017        1.26203921193551       -0.07173763046359
H            0.80892498407946        1.29463858531871       -1.55562181785758
H            0.23666258812659        2.14422673381636       -0.11607039132792
H            0.74605178635080        0.00052398698817        1.78749948766405
15
 energy: -17.731825898622 gnorm: 0.000945436853 xtb: 6.7.1 (41059b4)
C            0.75615991197239       -1.25463310591597       -0.47240273475195
C            0.00140276944494        0.00003521293184       -0.01751825442915
C           -1.42035484443829       -0.00135818440707       -0.57801248375547
C            0.75341453088046        1.25661349698809       -0.47166961830263
O           -0.13511464600416       -0.00053018177673        1.39697738379980
H            1.76955680030690       -1.25708642132971       -0.07394556274286
H            0.24294118687999       -2.14427875227526       -0.11603901584807
H            0.81072213959672       -1.29129131006846       -1.55653750131607
H           -1.94997300637117       -0.88244585739711       -0.22773696895511
H           -1.40133428001895       -0.00126423026091       -1.66349467009669
H           -1.95176820304998        0.87859999665861       -0.22761656242092
H            1.76691076073182        1.26089682138097       -0.07348139289986
H            0.80760950687134        1.29418989249409       -1.55579083674080
H            0.23842319167215        2.14491886275430       -0.11451690502452
H            0.74458884593543        0.00049075741646        1.78937920272058
15
 energy: -17.731827149112 gnorm: 0.000540084129 xtb: 6.7.1 (41059b4)
C            0.75616960340289       -1.25527991803207       -0.47250078689684
C            0.00165253812922        0.00003995134758       -0.01669741445867
C           -1.42005006059754       -0.00135338893718       -0.57820693623309
C            0.75342772352914        1.25726364203242       -0.47177842891349
O           -0.13590959767223       -0.00051832075338        1.39671432048210
H            1.77073986745632       -1.25659740530287       -0.07572606454809
H            0.24401674563510       -2.14530075840072       -0.11407031077318
H            0.80931298526936       -1.29324694626181       -1.55706508683695
H           -1.95014641362606       -0.88293211856457       -0.22830122979841
H           -1.40074741535181       -0.00121999035935       -1.66415185475679
H           -1.95196569566025        0.87905594883446       -0.22811761485464
H            1.76807827799714        1.26044409188028       -0.07522058638711
H            0.80625701747917        1.29610465729932       -1.55632650490312
H            0.23947127363873        2.14595036680380       -0.11261815096561
H            0.74287781478043        0.00044718560722        1.79166072908019
15
 energy: -17.731827575566 gnorm: 0.000092288316 xtb: 6.7.1 (41059b4)
C            0.75632700810173       -1.25495807657742       -0.47238583906070
C            0.00147335851949        0.00004096445973       -0.01724938927185
C           -1.42020305885180       -0.00135222242361       -0.57826822708102
C            0.75358706143038        1.25694247494858       -0.47166715664873
O           -0.13602154466338       -0.00051501961232        1.39650551840424
H            1.77086330011387       -1.25617518793935       -0.07575474828748
H            0.24432767110276       -2.14475856553843       -0.11364101344154
H            0.80930082002742       -1.29337673697637       -1.55685434231771
H           -1.95028969534666       -0.88279021999413       -0.22835355150938
H           -1.40116590130352       -0.00120533210985       -1.66412159548168
H           -1.95211542600071        0.87890347472879       -0.22814778794225
H            1.76819737280275        1.26003190743475       -0.07523615614714
H            0.80626341748590        1.29622182978469       -1.55611886516285
H            0.23977510358140        2.14541099528788       -0.11221125501257
H            0.74286517740996        0.00043671172018        1.79109848819695
15
 energy: -17.731827638329 gnorm: 0.000051915035 xtb: 6.7.1 (41059b4)
C            0.75622754418433       -1.25500906377341       -0.47228975834414
C            0.00153230494605        0.00004285099342       -0.01725865897943
C           -1.41997572219181       -0.00134950399841       -0.57852031949694
C            0.75348971666572        1.25699384055363       -0.47157678085291
O           -0.13608649398588       -0.00050959592228        1.39655231762846
H            1.77088206426621       -1.25589587701662       -0.07613684071201
H            0.24455657076635       -2.14475540151201       -0.11304622501472
H            0.80867098720238       -1.29374498305000       -1.55673267410776
H           -1.95001152485963       -0.88275329652337       -0.22861214357522
H           -1.40087704713417       -0.00117844891607       -1.66434312921541
H           -1.95184865921893        0.87884964265861       -0.22836746035270
H            1.76820735260237        1.25977029039610       -0.07559500017612
H            0.80566582442567        1.29656621971478       -1.55600196984018
H            0.23998946396811        2.14541212223420       -0.11165553936332
H            0.74276228277285        0.00041820135455        1.79117826163869
