20
 energy: -572.564199804327 gnorm: 0.001619572772 xtb: 6.7.1 (41059b4)
C            0.67170616695430        1.68599345587520       -0.04515237399203
C            1.41151863880347        0.37849481782042       -0.30023746400138
H            1.57899132924271        0.26168490209899       -1.38411059055381
C            0.54472111709559       -0.77192785969182        0.18060656381969
H            0.40995753914470       -0.66767458292483        1.27524455387450
C           -0.81251323249315       -0.71477161533388       -0.51519102502506
H           -0.65706369282418       -0.86173766324770       -1.59109365993924
C           -1.47463446024885        0.65551876210535       -0.30498787809258
H           -2.35605357925865        0.75205606487232       -0.94520569489990
O           -0.60643452125877        1.69766745990096       -0.68981481379107
O           -1.97619984501995        0.78180583099947        1.02197863841184
O           -1.65422653133765       -1.77801572182843       -0.07866436181138
O            1.22446870567819       -1.98962892436222       -0.10107729241241
O            2.64537464201691        0.44742172012366        0.40181767626568
H            1.22787294068044        2.52949023321579       -0.45923570979560
H            0.58137994554221        1.85280738042166        1.04137586667050
H           -1.23483331731652        0.82294306547524        1.63899958292924
H           -2.08242963867963       -1.47196648045819        0.73385828056538
H            0.59824014391897       -2.70579533855876        0.06552507057490
H            3.04478651514206       -0.43010642803654        0.35562284749993
20
 energy: -572.564204835336 gnorm: 0.000608737799 xtb: 6.7.1 (41059b4)
C            0.67192948327895        1.68622247116270       -0.04584312375775
C            1.41150619479947        0.37867230505380       -0.30013012808322
H            1.58027218760281        0.26072898556792       -1.38355784893703
C            0.54490644879390       -0.77146444295305        0.18080344022496
H            0.41071728350898       -0.66842922984275        1.27541481650458
C           -0.81204769220594       -0.71456718683828       -0.51464537210132
H           -0.65672834645633       -0.86191697996336       -1.59037998073162
C           -1.47459364925605        0.65517640380205       -0.30499926430083
H           -2.35650491327950        0.75145174404186       -0.94450518227090
O           -0.60681640009878        1.69796818532365       -0.69022552083910
O           -1.97608633981096        0.78173184679289        1.02243447182425
O           -1.65339276948457       -1.77833058602564       -0.07708074750986
O            1.22452375315194       -1.98955518247781       -0.10155533690699
O            2.64543951375884        0.44812928006745        0.40262441965257
H            1.22779322546341        2.52942115941339       -0.46084744390121
H            0.58105324968390        1.85351716349443        1.04038932270448
H           -1.23449864328652        0.82012085761224        1.63972930748227
H           -2.08485602147898       -1.46922890147240        0.73290829565761
H            0.59703752751326       -2.70594809408911        0.06266681180062
H            3.04497471389481       -0.42944066665259        0.35705730942338
20
 energy: -572.564207318287 gnorm: 0.000388883674 xtb: 6.7.1 (41059b4)
C            0.67212446101363        1.68643177812846       -0.04703136472822
C            1.41161352508084        0.37872227990694       -0.29994129421879
H            1.58189821492466        0.25984396274659       -1.38293141001424
C            0.54525102299643       -0.77127401802841        0.18102559681315
H            0.41186310458778       -0.66894909371932        1.27570138197687
C           -0.81165544467361       -0.71426956531078       -0.51387328647742
H           -0.65679825744641       -0.86212251660177       -1.58962069283401
C           -1.47443363708123        0.65495025093043       -0.30464164483958
H           -2.35680688318534        0.75067754431116       -0.94353148825544
O           -0.60719048507178        1.69773957357425       -0.69115267217218
O           -1.97583329628060        0.78189910240241        1.02325439802321
O           -1.65290177028309       -1.77834997965469       -0.07508810397050
O            1.22466634912071       -1.98973162962305       -0.10225808067478
O            2.64526698325020        0.44928619894213        0.40417739407903
H            1.22779781497590        2.52909399814801       -0.46325232268887
H            0.58139673909517        1.85488048954517        1.03891531616800
H           -1.23412356806800        0.81486464174189        1.64079648697015
H           -2.08851931666282       -1.46579252870269        0.73142210165464
H            0.59573430447665       -2.70554299297474        0.05905309834735
H            3.04527886949462       -0.42809827387391        0.35923488513736
20
 energy: -572.564207318287 gnorm: 0.000388883674 xtb: 6.7.1 (41059b4)
C            0.67212446101363        1.68643177812846       -0.04703136472822
C            1.41161352508084        0.37872227990694       -0.29994129421879
H            1.58189821492466        0.25984396274659       -1.38293141001424
C            0.54525102299643       -0.77127401802841        0.18102559681315
H            0.41186310458778       -0.66894909371932        1.27570138197687
C           -0.81165544467361       -0.71426956531078       -0.51387328647742
H           -0.65679825744641       -0.86212251660177       -1.58962069283401
C           -1.47443363708123        0.65495025093043       -0.30464164483958
H           -2.35680688318534        0.75067754431116       -0.94353148825544
O           -0.60719048507178        1.69773957357425       -0.69115267217218
O           -1.97583329628060        0.78189910240241        1.02325439802321
O           -1.65290177028309       -1.77834997965469       -0.07508810397050
O            1.22466634912071       -1.98973162962305       -0.10225808067478
O            2.64526698325020        0.44928619894213        0.40417739407903
H            1.22779781497590        2.52909399814801       -0.46325232268887
H            0.58139673909517        1.85488048954517        1.03891531616800
H           -1.23412356806800        0.81486464174189        1.64079648697015
H           -2.08851931666282       -1.46579252870269        0.73142210165464
H            0.59573430447665       -2.70554299297474        0.05905309834735
H            3.04527886949462       -0.42809827387391        0.35923488513736
