11
 energy: -13.803537587122 gnorm: 0.013089812250 xtb: 6.7.1 (41059b4)
C           -3.59808529692576       -0.60041635579422       -0.22682869785042
C           -2.15115516759876       -0.67016944115987        0.27221930819122
C           -1.25474150698003        0.18639241280584       -0.59748483359675
I            0.83149053977637        0.12803591773606        0.06556783641321
H           -4.25036551732500       -1.21721217042016        0.39781543040550
H           -3.97751558095569        0.42595542838030       -0.19813846988986
H           -3.67946749788050       -0.96186353080177       -1.25691450890728
H           -1.79781926026761       -1.70631431838047        0.25883003516277
H           -2.09434609228356       -0.32799139357671        1.31065250475227
H           -1.52614831456368        1.24186111143122       -0.56585095187611
H           -1.22626007940755       -0.15509091258061       -1.63247468663158
11
 energy: -13.803904926123 gnorm: 0.004986693380 xtb: 6.7.1 (41059b4)
C           -3.58621328329534       -0.59902695055313       -0.22528562208759
C           -2.14421380286627       -0.66580050624394        0.26847927326187
C           -1.25149793167896        0.19060836365611       -0.60211655820483
I            0.79025045818781        0.10731868467846        0.08115088283056
H           -4.22891794993259       -1.21522146905815        0.40129693266805
H           -3.95833247427846        0.42455621283270       -0.19434664297978
H           -3.66080755764379       -0.95996796767312       -1.25064116156454
H           -1.80043653788874       -1.70330019805837        0.24874259869652
H           -2.09792856000345       -0.31997942068894        1.30446130467162
H           -1.54260450620231        1.23800019019724       -0.57076420426727
H           -1.24371162880968       -0.15400019144926       -1.63358383685162
11
 energy: -13.803958342147 gnorm: 0.003376443702 xtb: 6.7.1 (41059b4)
C           -3.58973608251047       -0.59799759734559       -0.22760487695481
C           -2.15148273146582       -0.66849765099501        0.26996506981449
C           -1.24473240358426        0.18416835290635       -0.59181136177499
I            0.81569667791081        0.12901983346465        0.05999383341265
H           -4.23184680613125       -1.21278958225486        0.39731166775543
H           -3.95644240366902        0.42546577122732       -0.19631705354945
H           -3.65912988472542       -0.95776982071291       -1.25165906564242
H           -1.81114363573553       -1.70626551804959        0.24923741551292
H           -2.10862468549831       -0.32263341198190        1.30522629046473
H           -1.54254460640475        1.22938460120599       -0.56350076647495
H           -1.24442721259777       -0.15889822982484       -1.62344818639058
11
 energy: -13.803985444279 gnorm: 0.000937762675 xtb: 6.7.1 (41059b4)
C           -3.58831624878635       -0.59781450606145       -0.22743881376591
C           -2.14893426412140       -0.66894601121491        0.27126283533041
C           -1.24932286942753        0.18669694098772       -0.59640683565111
I            0.80992149925324        0.12147176702362        0.06826941675631
H           -4.23107636651267       -1.21266986018768        0.39735746747950
H           -3.95671231674983        0.42561753010083       -0.19662308901674
H           -3.65942729776984       -0.95755702139123       -1.25194511695966
H           -1.80605347848120       -1.70604386804869        0.25087091459882
H           -2.10343430281929       -0.32288377874153        1.30650591107147
H           -1.54485400560829        1.23294501251887       -0.56640449984019
H           -1.24620412338862       -0.15762945734592       -1.62805522382989
11
 energy: -13.803974165063 gnorm: 0.001959821381 xtb: 6.7.1 (41059b4)
C           -3.58883834284306       -0.59784032602859       -0.22752775972436
C           -2.14961628413591       -0.67019704101829        0.27268559226972
C           -1.25020341367735        0.18572061124161       -0.59542486491742
I            0.80517386185878        0.12571167395439        0.06153556199897
H           -4.23325713450952       -1.21218002199941        0.39610502486369
H           -3.95604601682289        0.42607683927290       -0.19702072995180
H           -3.65878688246482       -0.95704066929719       -1.25235021160421
H           -1.80648325517393       -1.70708039197104        0.25225545071668
H           -2.10379131352039       -0.32409854913131        1.30777079526584
H           -1.54075958252867        1.23305261900520       -0.56396979011480
H           -1.24180541059401       -0.15893799638865       -1.62666610262932
11
 energy: -13.803987891513 gnorm: 0.000229551986 xtb: 6.7.1 (41059b4)
C           -3.58837884091619       -0.59781959597502       -0.22742184756683
C           -2.14912697525018       -0.66946635039597        0.27186852433683
C           -1.24908151797289        0.18623150950929       -0.59576578708862
I            0.80864382756103        0.12348919278499        0.06540377496725
H           -4.23236637388865       -1.21220141267652        0.39637832075410
H           -3.95530850867589        0.42599331245248       -0.19676359657834
H           -3.65805751536839       -0.95704788158895       -1.25205288768740
H           -1.80638197774597       -1.70640444240296        0.25123722284605
H           -2.10372229914168       -0.32327710259225        1.30687169042729
H           -1.54469184597211        1.23224979919989       -0.56529917931955
H           -1.24594174704086       -0.15856028067536       -1.62706326891779
11
 energy: -13.803987951048 gnorm: 0.000152663306 xtb: 6.7.1 (41059b4)
C           -3.58831410366316       -0.59771383365640       -0.22752571410822
C           -2.14912557805940       -0.66969006720351        0.27214650788840
C           -1.24954069197336        0.18623293352548       -0.59592236018642
I            0.80882815193886        0.12362788443032        0.06536161998670
H           -4.23237141054749       -1.21211032856104        0.39625222670647
H           -3.95540951836611        0.42612917262776       -0.19683208638009
H           -3.65815494692585       -0.95698422130450       -1.25222195316395
H           -1.80625123170423       -1.70662852940487        0.25154726681099
H           -2.10357488004422       -0.32350568450196        1.30718772483975
H           -1.54465570437347        1.23241397558157       -0.56536419266897
H           -1.24584386069335       -0.15858455389325       -1.62723607355166
