      -----------------------------------------------------------      
     |                   =====================                   |     
     |                           x T B                           |     
     |                   =====================                   |     
     |                         S. Grimme                         |     
     |          Mulliken Center for Theoretical Chemistry        |     
     |                    University of Bonn                     |     
      -----------------------------------------------------------      

   * xtb version 6.7.1 (41059b4) compiled by 'michael@archlinux' on 2025-03-24

   xtb is free software: you can redistribute it and/or modify it under
   the terms of the GNU Lesser General Public License as published by
   the Free Software Foundation, either version 3 of the License, or
   (at your option) any later version.
   
   xtb is distributed in the hope that it will be useful,
   but WITHOUT ANY WARRANTY; without even the implied warranty of
   MERCHANTABILITY or FITNESS FOR A PARTICULAR PURPOSE.  See the
   GNU Lesser General Public License for more details.
   
   Cite this work as:
   * C. Bannwarth, E. Caldeweyher, S. Ehlert, A. Hansen, P. Pracht,
     J. Seibert, S. Spicher, S. Grimme, WIREs Comput. Mol. Sci., 2020, 11,
     e01493. DOI: 10.1002/wcms.1493
   
   for GFN2-xTB:
   * C. Bannwarth, S. Ehlert and S. Grimme., J. Chem. Theory Comput., 2019,
     15, 1652-1671. DOI: 10.1021/acs.jctc.8b01176
   for GFN1-xTB:
   * S. Grimme, C. Bannwarth, P. Shushkov, J. Chem. Theory Comput., 2017,
     13, 1989-2009. DOI: 10.1021/acs.jctc.7b00118
   for GFN0-xTB:
   * P. Pracht, E. Caldeweyher, S. Ehlert, S. Grimme, ChemRxiv, 2019, preprint.
     DOI: 10.26434/chemrxiv.8326202.v1
   for GFN-FF:
   * S. Spicher and S. Grimme, Angew. Chem. Int. Ed., 2020, 59, 15665-15673.
     DOI: 10.1002/anie.202004239
   
   for ALPB and GBSA implicit solvation:
   * S. Ehlert, M. Stahn, S. Spicher, S. Grimme, J. Chem. Theory Comput.,
     2021, 17, 4250-4261. DOI: 10.1021/acs.jctc.1c00471
   
   for ddCOSMO and CPCM-X implicit solvation:
   * M. Stahn, S. Ehlert, S. Grimme, J. Phys. Chem. A,
     2023, XX, XXXX-XXXX. DOI: 10.1021/acs.jpca.3c04382
   
   for DFT-D4:
   * E. Caldeweyher, C. Bannwarth and S. Grimme, J. Chem. Phys., 2017,
     147, 034112. DOI: 10.1063/1.4993215
   * E. Caldeweyher, S. Ehlert, A. Hansen, H. Neugebauer, S. Spicher,
     C. Bannwarth and S. Grimme, J. Chem. Phys., 2019, 150, 154122.
     DOI: 10.1063/1.5090222
   * E. Caldeweyher, J.-M. Mewes, S. Ehlert and S. Grimme, Phys. Chem. Chem. Phys.
     2020, 22, 8499-8512. DOI: 10.1039/D0CP00502A
   
   for sTDA-xTB:
   * S. Grimme and C. Bannwarth, J. Chem. Phys., 2016, 145, 054103.
     DOI: 10.1063/1.4959605
   
   in the mass-spec context:
   * V. Asgeirsson, C. Bauer and S. Grimme, Chem. Sci., 2017, 8, 4879.
     DOI: 10.1039/c7sc00601b
   * J. Koopman and S. Grimme, ACS Omega 2019, 4, 12, 15120-15133.
     DOI: 10.1021/acsomega.9b02011
   
   for metadynamics refer to:
   * S. Grimme, J. Chem. Theory Comput., 2019, 155, 2847-2862
     DOI: 10.1021/acs.jctc.9b00143
   
   for SPH calculations refer to:
   * S. Spicher and S. Grimme, J. Chem. Theory Comput., 2021, 17, 1701-1714
     DOI: 10.1021/acs.jctc.0c01306
   
   for ONIOM refer to:
   * C. Plett, A. Katbashev, S. Ehlert, S. Grimme, M. Bursch,
     Phys. Chem. Chem. Phys., 2023, 25, 17860-17868. DOI: 10.1039/D3CP02178E
   
   for DIPRO refer to:
   * J. Kohn, N. Gildemeister, S. Grimme, D. Fazzi, A. Hansen,
     J. Chem. Phys., 2023, just accepted.
   
   for PTB refer to:
   * S. Grimme, M. Mueller, A. Hansen, J. Chem. Phys., 2023, 158, 124111.
     DOI: 10.1063/5.0137838
   
   with help from (in alphabetical order)
   P. Atkinson, C. Bannwarth, F. Bohle, G. Brandenburg, E. Caldeweyher
   M. Checinski, S. Dohm, S. Ehlert, S. Ehrlich, I. Gerasimov, C. Hölzer
   A. Katbashev, J. Kohn, J. Koopman, C. Lavigne, S. Lehtola, F. März, M. Müller,
   F. Musil, H. Neugebauer, J. Pisarek, C. Plett, P. Pracht, F. Pultar,
   J. Seibert, P. Shushkov, S. Spicher, M. Stahn, M. Steiner, T. Strunk,
   J. Stückrath, T. Rose, and J. Unsleber
   
 * started run on 2025/04/08 at 23:42:04.722     
   ID    Z sym.   atoms
    1    6 C      1-4
    2    9 F      5-12

           -------------------------------------------------
          |                Calculation Setup                |
           -------------------------------------------------

          program call               : /usr/bin/xtb xtb_opt.coord --opt normal --orca -I xtb_opt-xcontrol-inp
          coordinate file            : xtb_opt.coord
          omp threads                :                    16

           -------------------------------------------------
          |                   Orca driver                   |
           -------------------------------------------------
orca executable           : /home/michael/Documents/CHEM4561/orca_avx2/orca
orca input file           : xtb_opt.inp
orca input line           : 
orca parallel             : true
orca number of threads    : 16
                         * ORCA takes the control...
  ------------------------------------------------------------------------

                                 *****************
                                 * O   R   C   A *
                                 *****************

                                            #,                                       
                                            ###                                      
                                            ####                                     
                                            #####                                    
                                            ######                                   
                                           ########,                                 
                                     ,,################,,,,,                         
                               ,,#################################,,                 
                          ,,##########################################,,             
                       ,#########################################, ''#####,          
                    ,#############################################,,   '####,        
                  ,##################################################,,,,####,       
                ,###########''''           ''''###############################       
              ,#####''   ,,,,##########,,,,          '''####'''          '####       
            ,##' ,,,,###########################,,,                        '##       
           ' ,,###''''                  '''############,,,                           
         ,,##''                                '''############,,,,        ,,,,,,###''
      ,#''                                            '''#######################'''  
     '                                                          ''''####''''         
             ,#######,   #######,   ,#######,      ##                                
            ,#'     '#,  ##    ##  ,#'     '#,    #''#        ,####,   ,####,        
            ##       ##  ##   ,#'  ##            #'  '#       #'       #'  '#        
            ##       ##  #######   ##           ,######,      #####,   #    #        
            '#,     ,#'  ##    ##  '#,     ,#' ,#      #,     #,   #   #,  ,#        
             '#######'   ##     ##  '#######'  #'      '#     '####' # '####'        



                #########################################################
                #                        -***-                          #
                #          Department of theory and spectroscopy        #
                #                                                       #
                #                      Frank Neese                      #
                #                                                       #
                #     Directorship, Architecture, Infrastructure        #
                #                    SHARK, DRIVERS                     #
                #        Core code/Algorithms in most modules           #
                #                                                       #
                #        Max Planck Institute fuer Kohlenforschung      #
                #                Kaiser Wilhelm Platz 1                 #
                #                 D-45470 Muelheim/Ruhr                 #
                #                      Germany                          #
                #                                                       #
                #                  All rights reserved                  #
                #                        -***-                          #
                #########################################################


                         Program Version 6.0.1  -  RELEASE   -


 With contributions from (in alphabetic order):
[Max-Planck-Institut fuer Kohlenforschung]                               
  Daniel Aravena         : Magnetic Suceptibility                        
  Michael Atanasov       : Ab Initio Ligand Field Theory (pilot matlab implementation)
  Alexander A. Auer      : GIAO ZORA, VPT2 properties, NMR spectrum      
  Ute Becker             : All parallelization in ORCA, NUMFREQ, NUMCALC 
  Giovanni Bistoni       : ED, misc. LED, open-shell LED, HFLD           
  Martin Brehm           : Molecular dynamics                            
  Dmytro Bykov           : pre 5.0 version of the SCF Hessian            
  Marcos Casanova-Páez   : Triplet and SCS-CIS(D). UHF-(DLPNO)-IP/EA/STEOM-CCSD. UHF-CVS-IP/STEOM-CCSD   
  Vijay G. Chilkuri      : MRCI spin determinant printing, contributions to CSF-ICE 
  Pauline Colinet        : FMM embedding                                 
  Dipayan Datta          : RHF DLPNO-CCSD density                        
  Achintya Kumar Dutta   : EOM-CC, STEOM-CC                              
  Nicolas Foglia         : Exact transition moments, OPA infrastructure, MCD improvements    
  Dmitry Ganyushin       : Spin-Orbit,Spin-Spin,Magnetic field MRCI      
  Miquel Garcia-Rates    : C-PCM and meta-GGA Hessian, CCSD/C-PCM, Gaussian charge scheme 
  Tiago L. C. Gouveia    : GS-ROHF, GS-ROCIS                             
  Yang Guo               : DLPNO-NEVPT2, F12-NEVPT2, CIM, IAO-localization        
  Andreas Hansen         : Spin unrestricted coupled pair/coupled cluster methods 
  Ingolf Harden          : AUTO-CI MPn and infrastructure                
  Benjamin Helmich-Paris : MC-RPA, TRAH-(SCF,CASSCF), AVAS, COSX integrals, SCF dyn. polar. 
  Lee Huntington         : MR-EOM, pCC                                   
  Robert Izsak           : Overlap fitted RIJCOSX, COSX-SCS-MP3, EOM     
  Riya Kayal             : Wick's Theorem for AUTO-CI, AUTO-CI UHF-CCSDT 
  Emily Kempfer          : AUTO-CI, RHF CISDT and CCSDT                  
  Christian Kollmar      : KDIIS, OOCD, Brueckner-CCSD(T), CCSD density, CASPT2, CASPT2-K, improved NEVPT2 
  Axel Koslowski         : Symmetry handling                             
  Simone Kossmann        : meta-GGA functionals, TD-DFT gradient, OOMP2, (MP2 Hessian; deprecated post 5.0) 
  Lucas Lang             : DCDCAS                                        
  Marvin Lechner         : AUTO-CI (C++ implementation), FIC-MRCC        
  Spencer Leger          : CASSCF response                               
  Dagmar Lenk            : GEPOL surface, SMD, ORCA-2-JSON               
  Dimitrios Liakos       : Extrapolation schemes; Compound Job, initial MDCI parallelization 
  Dimitrios Manganas     : Further ROCIS development; embedding schemes. LFT, Crystal Embedding 
  Dimitrios Pantazis     : SARC Basis sets                               
  Anastasios Papadopoulos: AUTO-CI, single reference methods and gradients 
  Taras Petrenko         : pre 6.0 DFT Hessian and TD-DFT gradient, (ASA, deprecated), ECA, 1-Electron XAS/XES, NRVS 
  Peter Pinski           : DLPNO-MP2, DLPNO-MP2 Gradient                 
  Christoph Reimann      : Effective Core Potentials                     
  Marius Retegan         : Local ZFS, SOC                                
  Christoph Riplinger    : Optimizer, TS searches, QM/MM, DLPNO-CCSD(T), (RO)-DLPNO pert. Triples 
  Michael Roemelt        : Original ROCIS implementation                 
  Masaaki Saitow         : Open-shell DLPNO-CCSD energy and density      
  Barbara Sandhoefer     : DKH picture change effects                    
  Kantharuban Sivalingam : CASSCF convergence/infrastructure, NEVPT2 and variants, FIC-MRCI 
  Bernardo de Souza      : ESD, SOC TD-DFT                               
  Georgi L. Stoychev     : AutoAux, RI-MP2 NMR, DLPNO-MP2 response, X2C  
  Van Anh Tran           : RI-MP2 g-tensors                              
  Willem Van den Heuvel  : Paramagnetic NMR                              
  Zikuan Wang            : NOTCH, Electric field optimization            
  Frank Wennmohs         : Technical directorship and infrastructure     
  Hang Xu                : AUTO-CI-Response properties                   
                                                                         
[FACCTs GmbH]                                                            
  Markus Bursch, Miquel Garcia-Rates, Christoph Riplinger, Bernardo de Souza, Georgi L. Stoychev 
                                                                 
  APM, Basis sets (HGBS, AHGBS, def-TZVP (Ac-Lr), def2-XVPD (La-Lu)), CI-OPT, improved COSX, DLPNO-Multilevel,           
  DOCKER, DRACO, updates on ESD, GOAT, IRC, LR-CPCM, MBIS, meta-GGA TD-DFT gradient, ML-optimized integration grids, 
  MM, NACMEs, nearIR, NEB, NEB-TS, NL-DFT gradient (VV10), 2- and 3-layer-ONIOM, interface openCOSMO-RS, QMMM,   
  Crystal-QMMM, SF, symmetry and pop. for TD-DFT, r2SCAN hybrids, SOLVATOR                                   
                                                                         
[Other institutions]                                                     
  V. Asgeirsson          : NEB                                           
  Christoph Bannwarth    : sTDA-DFT, sTD-DFT, PBEh-3c, B97-3c, D3        
  Sebastian Ehlert       : rSCAN, r2SCAN, r2SCAN-3c, D4, dhf basis sets  
  Marvin Friede          : D4 for Fr, Ra, Ac-Lr                          
  Lars Goerigk           : TD-DFT with DH, B97 family of functionals     
  Stefan Grimme          : VdW corrections, initial TS optimization, DFT functionals, gCP, sTDA/sTD-DF 
  Waldemar Hujo          : DFT-NL                                        
  H. Jonsson             : NEB                                           
  Holger Kruse           : gCP                                           
  Marcel Mueller         : wB97X-3c, vDZP basis set                      
  Hagen Neugebauer       : wr2SCAN                                       
  Tobias Risthaus        : range-separated hybrid DFT                    
  Lukas Wittmann         : regularized MP2, r2SCAN double-hybrids, wr2SCAN        
                                                                         
We gratefully acknowledge several colleagues who have allowed us to      
interface, adapt or use parts of their codes:                            
  Ed Valeev, F. Pavosevic, A. Kumar             : LibInt (2-el integral package), F12 methods 
  Garnet Chan, S. Sharma, J. Yang, R. Olivares  : DMRG                   
  Ulf Ekstrom                                   : XCFun DFT Library      
  Mihaly Kallay                                 : mrcc  (arbitrary order and MRCC methods)
  Frank Weinhold                                : gennbo (NPA and NBO analysis)           
  Simon Mueller                                 : openCOSMO-RS                            
  Christopher J. Cramer and Donald G. Truhlar   : smd solvation model                     
  S Lehtola, MJT Oliveira, MAL Marques          : LibXC Library                           
  Liviu Ungur et al                             : ANISO software                          


 Your calculation uses the libint2 library for the computation of 2-el integrals
 For citations please refer to: http://libint.valeyev.net

 Your ORCA version has been built with support for libXC version: 6.2.2
 For citations please refer to: https://libxc.gitlab.io

 This ORCA versions uses:
   CBLAS   interface :  Fast vector & matrix operations
   LAPACKE interface :  Fast linear algebra routines
   SCALAPACK package :  Parallel linear algebra routines
   Shared memory     :  Shared parallel matrices
   BLAS/LAPACK       :  OpenBLAS 0.3.27  USE64BITINT DYNAMIC_ARCH NO_AFFINITY Zen SINGLE_THREADED
        Core in use  :  Zen
   Copyright (c) 2011-2014, The OpenBLAS Project




***************************************
The coordinates will be read from file: xtb_opt.xyz
***************************************


Your calculation utilizes the geometrical counterpoise correction gCP
Please cite in your paper:
H.Kruse, S. Grimme J.Chem.Phys., 136, (2012), 154101 
   

Your calculation utilizes the atom-pairwise dispersion correction
based on EEQ partial charges (D4)


================================================================================

----- Orbital basis set information -----
Your calculation utilizes the basis: def2-mTZVPP
   Stefan Grimme, Andreas Hansen, Sebastian Ehlert, and Jan-Michael Mewes 
   J. Chem. Phys. 154, 064103 (2021). DOI: 10.1063/5.0040021

----- AuxJ basis set information -----
Your calculation utilizes the auxiliary basis: def2/J
   F. Weigend, Phys. Chem. Chem. Phys. 8, 1057 (2006).

================================================================================
                                        WARNINGS
                       Please study these warnings very carefully!
================================================================================

WARNING: Old DensityContainer found on disk!
         Will remove this file - 
         If you want to keep old densities, please start your calculation with a different basename. 



WARNING: SCAN, rSCAN, or r2SCAN functional requested.
  ===> : libXC variant has now been activated.



================================================================================
                                       INPUT FILE
================================================================================
NAME = xtb_opt.inp
|  1> ! r2scan-3c def2/J RI DEFGRID2 scfconv7 ENGRAD tightSCF miniprint
|  2> * xyzfile 0 1 xtb_opt.xyz
|  3> 
|  4>                          ****END OF INPUT****
================================================================================

                     *******************************
                     * Energy+Gradient Calculation *
                     *******************************

---------------------------------
CARTESIAN COORDINATES (ANGSTROEM)
---------------------------------
  C     -1.106619   -0.018517   -0.047851
  C     -0.018512    1.106571    0.048069
  C      1.106612    0.018510   -0.047863
  C      0.018514   -1.106594    0.048215
  F      0.029546   -1.760947    1.212520
  F      0.033412   -2.002898   -0.938004
  F      2.003465    0.033535    0.937943
  F      1.760462    0.029392   -1.212604
  F     -0.033433    2.003056   -0.938016
  F     -0.029521    1.760860    1.212438
  F     -1.760461   -0.029660   -1.212594
  F     -2.003466   -0.033319    0.937956

----------------------------
CARTESIAN COORDINATES (A.U.)
----------------------------
  NO LB      ZA    FRAG     MASS         X           Y           Z
   0 C     6.0000    0    12.011   -2.091207   -0.034992   -0.090425
   1 C     6.0000    0    12.011   -0.034984    2.091117    0.090837
   2 C     6.0000    0    12.011    2.091194    0.034980   -0.090447
   3 C     6.0000    0    12.011    0.034986   -2.091160    0.091113
   4 F     9.0000    0    18.998    0.055834   -3.327708    2.291331
   5 F     9.0000    0    18.998    0.063140   -3.784929   -1.772571
   6 F     9.0000    0    18.998    3.785999    0.063371    1.772455
   7 F     9.0000    0    18.998    3.326790    0.055543   -2.291489
   8 F     9.0000    0    18.998   -0.063179    3.785228   -1.772594
   9 F     9.0000    0    18.998   -0.055786    3.327543    2.291175
  10 F     9.0000    0    18.998   -3.326789   -0.056048   -2.291470
  11 F     9.0000    0    18.998   -3.786003   -0.062964    1.772481

------------------------------------------------------------------------------
                   ___                                                        
                  /   \      - P O W E R E D   B Y -                         
                 /     \                                                     
                 |  |  |   _    _      __       _____    __    __             
                 |  |  |  | |  | |    /  \     |  _  \  |  |  /  |          
                  \  \/   | |  | |   /    \    | | | |  |  | /  /          
                 / \  \   | |__| |  /  /\  \   | |_| |  |  |/  /          
                |  |  |   |  __  | /  /__\  \  |    /   |      \           
                |  |  |   | |  | | |   __   |  |    \   |  |\   \          
                \     /   | |  | | |  |  |  |  | |\  \  |  | \   \       
                 \___/    |_|  |_| |__|  |__|  |_| \__\ |__|  \__/        
                                                                              
                      - O R C A' S   B I G   F R I E N D -                    
                                      &                                       
                       - I N T E G R A L  F E E D E R -                       
                                                                              
 v1 FN, 2020, v2 2021, v3 2022-2024                                           
------------------------------------------------------------------------------


----------------------
SHARK INTEGRAL PACKAGE
----------------------

Number of atoms                             ...     12
Number of basis functions                   ...    268
Number of shells                            ...    116
Maximum angular momentum                    ...      2
Integral batch strategy                     ... SHARK/LIBINT Hybrid
RI-J (if used) integral strategy            ... SPLIT-RIJ (Revised 2003 algorithm where possible)
Printlevel                                  ...      1
Contraction scheme used                     ... SEGMENTED contraction
Prescreening option                         ... SCHWARTZ
   Thresh                                   ... 3.000e-11
   Tcut                                     ... 1.000e-12
   Tpresel                                  ... 1.000e-12 
Coulomb Range Separation                    ... NOT USED
Exchange Range Separation                   ... NOT USED
Multipole approximations                    ... NOT USED
Finite Nucleus Model                        ... NOT USED
CABS basis                                  ... NOT available
Auxiliary Coulomb fitting basis             ... AVAILABLE
   # of basis functions in Aux-J            ...    588
   # of shells in Aux-J                     ...    180
   Maximum angular momentum in Aux-J        ...      4
Auxiliary J/K fitting basis                 ... NOT available
Auxiliary Correlation fitting basis         ... NOT available
Auxiliary 'external' fitting basis          ... NOT available

Checking pre-screening integrals            ... done (  0.0 sec) Dimension = 116
Check shell pair data                       ... done (  0.0 sec)
Shell pair information
Shell pair cut-off parameter TPreSel        ...   1.0e-12
Total number of shell pairs                 ...      6786
Shell pairs after pre-screening             ...      5982
Total number of primitive shell pairs       ...     25464
Primitive shell pairs kept                  ...     15340
          la=0 lb=0:   1416 shell pairs
          la=1 lb=0:   1936 shell pairs
          la=1 lb=1:    642 shell pairs
          la=2 lb=0:   1096 shell pairs
          la=2 lb=1:    688 shell pairs
          la=2 lb=2:    204 shell pairs

Calculating one electron integrals          ... done (  0.0 sec)
Calculating RI/J V-Matrix + Cholesky decomp.... done (  0.0 sec)
Calculating Nuclear repulsion               ... done (  0.0 sec) ENN=    888.357755572427 Eh

Diagonalization of the overlap matrix:
Smallest eigenvalue                        ... 2.171e-05
Time for diagonalization                   ...    0.005 sec
Threshold for overlap eigenvalues          ... 1.000e-07
Number of eigenvalues below threshold      ... 0
Time for construction of square roots      ...    0.002 sec
Total time needed                          ...    0.008 sec

-------------------
DFT GRID GENERATION
-------------------

General Integration Accuracy     IntAcc      ... 4.388
Radial Grid Type                 RadialGrid  ... OptM3 with GC (2021)
Angular Grid (max. ang.)         AngularGrid ... 4 (Lebedev-302)
Angular grid pruning method      GridPruning ... 4 (adaptive)
Weight generation scheme         WeightScheme... mBecke (2022)
Basis function cutoff            BFCut       ... 1.0000e-11
Integration weight cutoff        WCut        ... 1.0000e-14
Partially contracted basis set               ... off
Rotationally invariant grid construction     ... off
Angular grids for H and He will be reduced by one unit

Total number of grid points                  ...    72889
Total number of batches                      ...     1144
Average number of points per batch           ...       63
Average number of grid points per atom       ...     6074
Initializing property integral containers    ... done (  0.0 sec)

SHARK setup successfully completed in   0.5 seconds

Maximum memory used throughout the entire STARTUP-calculation: 39.4 MB
Occupation numbers will be reassigned to an Aufbau configuration
             **** ENERGY FILE WAS UPDATED (xtb_opt.en.tmp) ****
Finished Guess after   0.1 sec
Maximum memory used throughout the entire GUESS-calculation: 21.1 MB
----------------------------------------D-I-I-S--------------------------------------------
Iteration    Energy (Eh)           Delta-E    RMSDP     MaxDP     DIISErr   Damp  Time(sec)
-------------------------------------------------------------------------------------------
               ***  Starting incremental Fock matrix formation  ***
                              *** Initializing SOSCF ***
---------------------------------------S-O-S-C-F--------------------------------------
Iteration    Energy (Eh)           Delta-E    RMSDP     MaxDP     MaxGrad    Time(sec)
--------------------------------------------------------------------------------------
    1    -951.1121788709237990     0.00e+00  1.95e-05  9.50e-04  1.47e-05     1.9
               *** Restarting incremental Fock matrix formation ***
    2    -951.1121788435409599     2.74e-08  1.19e-05  5.49e-04  6.08e-05     1.9
    3    -951.1121786375178999     2.06e-07  4.99e-06  2.00e-04  1.30e-04     1.4
    4    -951.1121789044391335    -2.67e-07  1.12e-05  5.51e-04  1.66e-06     1.3
                  *** Gradient check signals convergence ***

               *****************************************************
               *                     SUCCESS                       *
               *           SCF CONVERGED AFTER   4 CYCLES          *
               *****************************************************

             **** ENERGY FILE WAS UPDATED (xtb_opt.en.tmp) ****

----------------
TOTAL SCF ENERGY
----------------

Total Energy       :       -951.11217890443913 Eh          -25881.07816 eV

Components:
Nuclear Repulsion  :        888.35775557242664 Eh           24173.44348 eV
Electronic Energy  :      -1839.46993447686577 Eh          -50054.52164 eV
One Electron Energy:      -3087.62720955274290 Eh          -84018.60780 eV
Two Electron Energy:       1248.15727507587712 Eh           33964.08616 eV

Virial components:
Potential Energy   :      -1899.27514217675889 Eh          -51681.90408 eV
Kinetic Energy     :        948.16296327231964 Eh           25800.82592 eV
Virial Ratio       :          2.00311045226017

DFT components:
N(Alpha)           :       47.999922712542 electrons
N(Beta)            :       47.999922712542 electrons
N(Total)           :       95.999845425083 electrons
E(X)               :     -101.802777833294 Eh       
E(C)               :       -3.354483775173 Eh       
E(XC)              :     -105.157261608467 Eh       

---------------
SCF CONVERGENCE
---------------

  Last Energy change         ...    2.6692e-07  Tolerance :   1.0000e-07
  Last MAX-Density change    ...    5.5106e-04  Tolerance :   1.0000e-07
  Last RMS-Density change    ...    1.1173e-05  Tolerance :   5.0000e-09
  Last DIIS Error            ...    6.2034e-05  Tolerance :   1.0000e-07
  Last Orbital Gradient      ...    1.6568e-06  Tolerance :   1.0000e-04
  Last Orbital Rotation      ...    1.6358e-06  Tolerance :   1.0000e-04


----------------
ORBITAL ENERGIES
----------------

  NO   OCC          E(Eh)            E(eV) 
   0   2.0000     -24.552773      -668.1149 
   1   2.0000     -24.552760      -668.1146 
   2   2.0000     -24.552733      -668.1138 
   3   2.0000     -24.552733      -668.1138 
   4   2.0000     -24.551680      -668.0852 
   5   2.0000     -24.551677      -668.0851 
   6   2.0000     -24.551658      -668.0846 
   7   2.0000     -24.551654      -668.0845 
   8   2.0000     -10.256738      -279.1000 
   9   2.0000     -10.256659      -279.0979 
  10   2.0000     -10.256655      -279.0978 
  11   2.0000     -10.256577      -279.0956 
  12   2.0000      -1.296203       -35.2715 
  13   2.0000      -1.278509       -34.7900 
  14   2.0000      -1.278457       -34.7886 
  15   2.0000      -1.265536       -34.4370 
  16   2.0000      -1.227750       -33.4088 
  17   2.0000      -1.217755       -33.1368 
  18   2.0000      -1.217726       -33.1360 
  19   2.0000      -1.209397       -32.9094 
  20   2.0000      -0.877734       -23.8844 
  21   2.0000      -0.702634       -19.1196 
  22   2.0000      -0.702629       -19.1195 
  23   2.0000      -0.634263       -17.2592 
  24   2.0000      -0.615436       -16.7469 
  25   2.0000      -0.602402       -16.3922 
  26   2.0000      -0.596905       -16.2426 
  27   2.0000      -0.567351       -15.4384 
  28   2.0000      -0.567316       -15.4374 
  29   2.0000      -0.558217       -15.1899 
  30   2.0000      -0.558215       -15.1898 
  31   2.0000      -0.542944       -14.7743 
  32   2.0000      -0.466244       -12.6872 
  33   2.0000      -0.466239       -12.6870 
  34   2.0000      -0.458527       -12.4771 
  35   2.0000      -0.454821       -12.3763 
  36   2.0000      -0.451466       -12.2850 
  37   2.0000      -0.450586       -12.2611 
  38   2.0000      -0.436887       -11.8883 
  39   2.0000      -0.436877       -11.8880 
  40   2.0000      -0.428233       -11.6528 
  41   2.0000      -0.414172       -11.2702 
  42   2.0000      -0.407131       -11.0786 
  43   2.0000      -0.407130       -11.0786 
  44   2.0000      -0.400648       -10.9022 
  45   2.0000      -0.364172        -9.9096 
  46   2.0000      -0.364164        -9.9094 
  47   2.0000      -0.304535        -8.2868 
  48   0.0000      -0.079156        -2.1539 
  49   0.0000       0.006977         0.1899 
  50   0.0000       0.077792         2.1168 
  51   0.0000       0.077797         2.1170 
  52   0.0000       0.118785         3.2323 
  53   0.0000       0.118834         3.2336 
  54   0.0000       0.132711         3.6112 
  55   0.0000       0.132755         3.6124 
  56   0.0000       0.142407         3.8751 
  57   0.0000       0.168240         4.5781 
  58   0.0000       0.172851         4.7035 
*Only the first 10 virtual orbitals were printed.
Total SCF time: 0 days 0 hours 0 min 6 sec 
Finished LeanSCF after   6.6 sec

Maximum memory used throughout the entire LEANSCF-calculation: 29.5 MB


-------------------------------------------------------------------------------
                          DFT DISPERSION CORRECTION                            
                                                                               
                                DFTD4 V3.4.0                                   
-------------------------------------------------------------------------------
-------------------------   ----------------
Dispersion correction           -0.003392100
-------------------------   ----------------

------------------   -----------------
gCP correction             0.015008298
------------------   -----------------

-------------------------   --------------------
FINAL SINGLE POINT ENERGY      -951.100562706578
-------------------------   --------------------

------------------------------------------------------------------------------
                         ORCA SCF GRADIENT CALCULATION
------------------------------------------------------------------------------

Nuc. rep. gradient        (SHARK) ... done (  0.0 sec)
HCore & Overlap gradient  (SHARK) ... done (  0.2 sec)
Split-RIJ-J gradient      (SHARK) ... done (  1.7 sec)
XC gradient                       ... done (  5.7 sec)
Dispersion correction             ... done (  0.0 sec)

-------------------
DISPERSION GRADIENT
-------------------

   1   C   :    0.000072952    0.000001218    0.000000629
   2   C   :    0.000001219   -0.000072925   -0.000000625
   3   C   :   -0.000072951   -0.000001223    0.000000629
   4   C   :   -0.000001221    0.000072930   -0.000000636
   5   F   :    0.000000813   -0.000048417    0.000027829
   6   F   :    0.000000886   -0.000053148   -0.000021304
   7   F   :    0.000053166    0.000000889    0.000021305
   8   F   :    0.000048397    0.000000808   -0.000027826
   9   F   :   -0.000000886    0.000053155   -0.000021305
  10   F   :   -0.000000813    0.000048414    0.000027825
  11   F   :   -0.000048397   -0.000000817   -0.000027826
  12   F   :   -0.000053167   -0.000000883    0.000021305

Difference to translation invariance:
           :   -0.0000000000   -0.0000000000    0.0000000000

Difference to rotation invariance:
           :   -0.0000000000    0.0000000000   -0.0000000000

Norm of the Dispersion gradient    ...    0.0002165250
RMS gradient                       ...    0.0000360875
MAX gradient                       ...    0.0000729523
gCP correction                   ... done

------------------
CARTESIAN GRADIENT
------------------

   1   C   :    0.006268004    0.000083971   -0.001323481
   2   C   :    0.000083286   -0.006270184    0.001367573
   3   C   :   -0.006273989   -0.000077861   -0.001324565
   4   C   :   -0.000079712    0.006228407    0.001376089
   5   F   :    0.000015932   -0.000903771   -0.010139556
   6   F   :   -0.000076172    0.001903650    0.009670414
   7   F   :   -0.001831314   -0.000074646   -0.009625199
   8   F   :    0.000926449    0.000012761    0.010049057
   9   F   :    0.000075048   -0.001869828    0.009668498
  10   F   :   -0.000015493    0.000909975   -0.010140381
  11   F   :   -0.000925459   -0.000018575    0.010048233
  12   F   :    0.001833419    0.000076098   -0.009626680

Difference to translation invariance:
           :   -0.0000000000    0.0000000000   -0.0000000000

Difference to rotation invariance:
           :    0.0000003830   -0.0000002665   -0.0004722239

Norm of the Cartesian gradient     ...    0.0310028515
RMS gradient                       ...    0.0051671419
MAX gradient                       ...    0.0101403814

-------
TIMINGS
-------

Total SCF gradient time     ....        7.683 sec

Densities                   ....       0.001 sec  (  0.0%)
One electron gradient       ....       0.201 sec  (  2.6%)
RI-J Coulomb gradient       ....       1.737 sec  ( 22.6%)
XC gradient                 ....       5.722 sec  ( 74.5%)

Maximum memory used throughout the entire SCFGRAD-calculation: 41.3 MB

------------------------------------------------------------------------------
                              ORCA PROPERTY CALCULATIONS
------------------------------------------------------------------------------

GBWName                                 ... xtb_opt.gbw
Number of atoms                         ...     12
Number of basis functions               ...    268
Max core memory                         ...   1024 MB

Electric properties:
Dipole moment                           ... YES
Quadrupole moment                       ...  NO
Static polarizability (Dipole/Dipole)   ...  NO
Static polarizability (Dipole/Quad.)    ...  NO
Static polarizability (Quad./Quad.)     ...  NO
Static polarizability (Velocity)        ...  NO

Atomic electric properties:
Dipole moment                           ...  NO
Quadrupole moment                       ...  NO
Static polarizability                   ...  NO

Choice of electric origin               ... Center of mass
Position of electric origin             ...    -0.000000    -0.000000     0.000000

General magnetic properties:
Magnetizability                         ...  NO

EPR properties:
g-Tensor (aka g-matrix)                 ...  NO
Zero-Field splitting spin-orbit         ...  NO
Zero-field splitting spin-spin          ...  NO
Hyperfine couplings                     ...  NO (   0 nuclei)
Quadrupole couplings                    ...  NO (   0 nuclei)
Contact density                         ...  NO (   0 nuclei)

NMR properties:
Chemical shifts                         ...  NO (   0 nuclei)
Spin-rotation constants                 ...  NO (   0 nuclei)
Spin-spin couplings                     ...  NO (   0 nuclei,    0 pairs)

Choice of magnetic origin               ... GIAO
Position of magnetic origin             ...     0.000000     0.000000     0.000000

Properties with geometric perturbations:
SCF Hessian                             ...  NO
IR spectrum                             ...  NO
VCD spectrum                            ...  NO
X-ray spectroscopy properties:
SCF XES/XAS/RIXS spectra                ...  NO


-------------
DIPOLE MOMENT
-------------

Method             : SCF
Type of density    : Electron Density
Multiplicity       :   1
Irrep              :   0
Energy             :  -951.1121789044391335 Eh
Relativity type    : 
Basis              : AO
                                X                 Y                 Z
Electronic contribution:     -0.000007429      -0.000085083       0.000255252
Nuclear contribution   :     -0.000003201      -0.000017346       0.000334135
                        -----------------------------------------
Total Dipole Moment    :     -0.000010630      -0.000102429       0.000589387
                        -----------------------------------------
Magnitude (a.u.)       :      0.000598316
Magnitude (Debye)      :      0.001520798



--------------------
Rotational spectrum 
--------------------
 
Rotational constants in cm-1:             0.035234             0.035233             0.028118 
Rotational constants in MHz :          1056.285584          1056.248202           842.968112 

Dipole components along the rotational axes: 
x,y,z [a.u.] :    -0.000011    -0.000102     0.000589 
x,y,z [Debye]:    -0.000027    -0.000260     0.001498 

 

Dipole moment calculation done in   0.0 sec 

Maximum memory used throughout the entire PROP-calculation: 20.1 MB

--------------------------------
SUGGESTED CITATIONS FOR THIS RUN
--------------------------------

Below you find a list of papers that are relevant to this ORCA run
We neither can nor want to force you to cite these papers, but we appreciate if you do
You receive ORCA, which is the product of decades of hard work by many enthusiastic individuals, for free
The only thing we kindly ask in return is that you cite our papers,
We deeply appreciate it, if you show your appreciation for ORCA by not just citing the generic ORCA reference.

Please note that relegating all ORCA citations to the supporting information does *not* help us.
SI sections are not indexed - citations you put there will not count into any citation statistics
But we need these citations in order to attract the funding resources that allow us to do what we are doing

Therefore, if you are a happy ORCA user, please consider citing a few of the papers listed below in the main body of your paper

In addition to the list printed below, the program has created the file xtb_opt.bibtex that contains the list in bibtex format
You can import this file easily into all common literature databanks and citation aid programs


List of essential papers. We consider these as the minimum necessary citations

  1. Neese,F.
     Software update: the ORCA program system, version 5.0
     WIRES Comput. Molec. Sci., 2022 12(1)e1606
     doi.org/10.1002/wcms.1606
  2. Grimme,S.; Hansen,A.; Ehlert,S.; Mewes,J.
     r2SCAN-3c: A 'Swiss army knife' composite electronic-structure method
     J. Chem. Phys., 2021 154 064103
     doi.org/10.1063/5.0040021

List of papers to cite with high priority. The work reported in these papers was absolutely
necessary for this run to complete.
Our perspective: the developers of density functionals and basis sets usually get cited in chemistry papers
Good! But without the algorithms to do something with them, the functionals or basis sets would not do anything.
Hence, in our opinion, the algorithm design and method developments papers are equally worthy of getting cited

  1. Neese,F.
     An improvement of the resolution of the identity approximation for the formation of the Coulomb matrix
     J. Comp. Chem., 2003 24(14)1740-1747
     doi.org/10.1002/jcc.10318
  2. Neese,F.
     The SHARK Integral Generation and Digestion System
     J. Comp. Chem., 2022  1-16
     doi.org/10.1002/jcc.26942
  3. Lehtola,S.; Steigemann,C.; Oliveira,M.; Marques,M.
     Recent developments in Libxc - A comprehensive library of functionals for density functional theory
     Software X, 2018 7 
     doi.org/10.1016/j.softx.2017.11.002
  4. Caldeweyher,E.; Bannwarth,C.; Grimme,S.
     Extension of the D3 dispersion coefficient model
     J. Chem. Phys., 2017 147 034112
     doi.org/10.1063/1.4993215
  5. Caldeweyher,E.; Ehlert,S.; Hansen,A.; Neugebauer,H.; Spicher,S.; Bannwarth,C.; Grimme,S.
     A generally applicable atomic-charge dependent London dispersion correction
     J. Chem. Phys., 2019 150 154122
     doi.org/10.1063/1.5090222
  6. Caldeweyher,E.; Mewes,J.; Ehlert,S.; Grimme,S.
     Extension and evaluation of the D4 London-dispersion model for periodic systems
     Phys. Chem. Chem. Phys., 2020 22(16)8499-8512
     doi.org/10.1039/D0CP00502A
  7. Wittmann,L.; Gordiy,I.; Friede,M.; Helmich-Paris,B.; Grimme,S.; Hansen,A.; Bursch,M.
     Extension of the D3 and D4 London Dispersion Corrections to the full Actinides Series
     Phys. Chem. Chem. Phys., 2024 26(32)21379-21394
     doi.org/https://doi.org/10.1039/D4CP01514B 

List of suggested additional citations. These are papers that are important in the 'surrounding' of 
of this run, or papers that preceded the highly important papers. If you like your results we are grateful for a citation.

  1. Neese,F.
     The ORCA program system
     WIRES Comput. Molec. Sci., 2012 2(1)73-78
     doi.org/10.1002/wcms.81
  2. Neese,F.
     Software update: the ORCA program system, version 4.0
     WIRES Comput. Molec. Sci., 2018 8(1)1-6
     doi.org/10.1002/wcms.1327
  3. Neese,F.; Wennmohs,F.; Becker,U.; Riplinger,C.
     The ORCA quantum chemistry program package
     J. Chem. Phys., 2020 152 Art. No. L224108
     doi.org/10.1063/5.0004608

List of optional additional citations

  1. Neese,F.
     Approximate second-order SCF convergence for spin unrestricted wavefunctions
     Chem. Phys. Lett., 2000 325(1-3)93-98
     doi.org/10.1016/s0009-2614(00)00662-x

Timings for individual modules:

Sum of individual times          ...       14.991 sec (=   0.250 min)
Startup calculation              ...        0.559 sec (=   0.009 min)   3.7 %
SCF iterations                   ...        6.650 sec (=   0.111 min)  44.4 %
Property calculations            ...        0.049 sec (=   0.001 min)   0.3 %
SCF Gradient evaluation          ...        7.733 sec (=   0.129 min)  51.6 %
                             ****ORCA TERMINATED NORMALLY****
TOTAL RUN TIME: 0 days 0 hours 0 minutes 15 seconds 70 msec
  ------------------------------------------------------------------------
          * successful ORCA run, taking over control again...

         :::::::::::::::::::::::::::::::::::::::::::::::::::::
         ::                  ORCA SUMMARY                   ::
         :::::::::::::::::::::::::::::::::::::::::::::::::::::
         :: total energy            -951.100562706578 Eh    ::
         :: gradient norm              0.031002851466 Eh/a0 ::
         :: HOMO-LUMO gap              0.000000000000 eV    ::
         :::::::::::::::::::::::::::::::::::::::::::::::::::::

      ----------------------------------------------------------- 
     |                       L-ANC optimizer                     |
      ----------------------------------------------------------- 
          low memory version by Sebastian Ehlert

          ...................................................
          :                      SETUP                      :
          :.................................................:
          :   energy convergence        0.5000000E-05 Eh    :
          :   grad. convergence         0.1000000E-02 Eh/a0 :
          :   optimization log               true           :
          :   writing optlog all                1     steps :
          :   Hessian reset                    20     steps :
          :   maximium step len.        1.0000000     a0    :
          :   LBFGS images                     20           :
          ...................................................
 * calculating model hessian...
Using Lindh-Hessian (1995)
 Shifting diagonal of input Hessian by    1.0000000000000000E-002
 Lowest  eigenvalues of input Hessian
    0.000000    0.000000    0.000000    0.000000    0.000000    0.000000
    0.024301    0.059456    0.064387    0.065469    0.069146    0.070863
    0.070879    0.075925    0.075936    0.077893    0.148790    0.163048
 Highest eigenvalues
    1.608655    1.616136    1.764830    1.765154    1.767007    1.902497


........................................................................
.............................. CYCLE    1 ..............................
........................................................................
                         * ORCA takes the control...
  ------------------------------------------------------------------------

                                 *****************
                                 * O   R   C   A *
                                 *****************

                                            #,                                       
                                            ###                                      
                                            ####                                     
                                            #####                                    
                                            ######                                   
                                           ########,                                 
                                     ,,################,,,,,                         
                               ,,#################################,,                 
                          ,,##########################################,,             
                       ,#########################################, ''#####,          
                    ,#############################################,,   '####,        
                  ,##################################################,,,,####,       
                ,###########''''           ''''###############################       
              ,#####''   ,,,,##########,,,,          '''####'''          '####       
            ,##' ,,,,###########################,,,                        '##       
           ' ,,###''''                  '''############,,,                           
         ,,##''                                '''############,,,,        ,,,,,,###''
      ,#''                                            '''#######################'''  
     '                                                          ''''####''''         
             ,#######,   #######,   ,#######,      ##                                
            ,#'     '#,  ##    ##  ,#'     '#,    #''#        ,####,   ,####,        
            ##       ##  ##   ,#'  ##            #'  '#       #'       #'  '#        
            ##       ##  #######   ##           ,######,      #####,   #    #        
            '#,     ,#'  ##    ##  '#,     ,#' ,#      #,     #,   #   #,  ,#        
             '#######'   ##     ##  '#######'  #'      '#     '####' # '####'        



                #########################################################
                #                        -***-                          #
                #          Department of theory and spectroscopy        #
                #                                                       #
                #                      Frank Neese                      #
                #                                                       #
                #     Directorship, Architecture, Infrastructure        #
                #                    SHARK, DRIVERS                     #
                #        Core code/Algorithms in most modules           #
                #                                                       #
                #        Max Planck Institute fuer Kohlenforschung      #
                #                Kaiser Wilhelm Platz 1                 #
                #                 D-45470 Muelheim/Ruhr                 #
                #                      Germany                          #
                #                                                       #
                #                  All rights reserved                  #
                #                        -***-                          #
                #########################################################


                         Program Version 6.0.1  -  RELEASE   -


 With contributions from (in alphabetic order):
[Max-Planck-Institut fuer Kohlenforschung]                               
  Daniel Aravena         : Magnetic Suceptibility                        
  Michael Atanasov       : Ab Initio Ligand Field Theory (pilot matlab implementation)
  Alexander A. Auer      : GIAO ZORA, VPT2 properties, NMR spectrum      
  Ute Becker             : All parallelization in ORCA, NUMFREQ, NUMCALC 
  Giovanni Bistoni       : ED, misc. LED, open-shell LED, HFLD           
  Martin Brehm           : Molecular dynamics                            
  Dmytro Bykov           : pre 5.0 version of the SCF Hessian            
  Marcos Casanova-Páez   : Triplet and SCS-CIS(D). UHF-(DLPNO)-IP/EA/STEOM-CCSD. UHF-CVS-IP/STEOM-CCSD   
  Vijay G. Chilkuri      : MRCI spin determinant printing, contributions to CSF-ICE 
  Pauline Colinet        : FMM embedding                                 
  Dipayan Datta          : RHF DLPNO-CCSD density                        
  Achintya Kumar Dutta   : EOM-CC, STEOM-CC                              
  Nicolas Foglia         : Exact transition moments, OPA infrastructure, MCD improvements    
  Dmitry Ganyushin       : Spin-Orbit,Spin-Spin,Magnetic field MRCI      
  Miquel Garcia-Rates    : C-PCM and meta-GGA Hessian, CCSD/C-PCM, Gaussian charge scheme 
  Tiago L. C. Gouveia    : GS-ROHF, GS-ROCIS                             
  Yang Guo               : DLPNO-NEVPT2, F12-NEVPT2, CIM, IAO-localization        
  Andreas Hansen         : Spin unrestricted coupled pair/coupled cluster methods 
  Ingolf Harden          : AUTO-CI MPn and infrastructure                
  Benjamin Helmich-Paris : MC-RPA, TRAH-(SCF,CASSCF), AVAS, COSX integrals, SCF dyn. polar. 
  Lee Huntington         : MR-EOM, pCC                                   
  Robert Izsak           : Overlap fitted RIJCOSX, COSX-SCS-MP3, EOM     
  Riya Kayal             : Wick's Theorem for AUTO-CI, AUTO-CI UHF-CCSDT 
  Emily Kempfer          : AUTO-CI, RHF CISDT and CCSDT                  
  Christian Kollmar      : KDIIS, OOCD, Brueckner-CCSD(T), CCSD density, CASPT2, CASPT2-K, improved NEVPT2 
  Axel Koslowski         : Symmetry handling                             
  Simone Kossmann        : meta-GGA functionals, TD-DFT gradient, OOMP2, (MP2 Hessian; deprecated post 5.0) 
  Lucas Lang             : DCDCAS                                        
  Marvin Lechner         : AUTO-CI (C++ implementation), FIC-MRCC        
  Spencer Leger          : CASSCF response                               
  Dagmar Lenk            : GEPOL surface, SMD, ORCA-2-JSON               
  Dimitrios Liakos       : Extrapolation schemes; Compound Job, initial MDCI parallelization 
  Dimitrios Manganas     : Further ROCIS development; embedding schemes. LFT, Crystal Embedding 
  Dimitrios Pantazis     : SARC Basis sets                               
  Anastasios Papadopoulos: AUTO-CI, single reference methods and gradients 
  Taras Petrenko         : pre 6.0 DFT Hessian and TD-DFT gradient, (ASA, deprecated), ECA, 1-Electron XAS/XES, NRVS 
  Peter Pinski           : DLPNO-MP2, DLPNO-MP2 Gradient                 
  Christoph Reimann      : Effective Core Potentials                     
  Marius Retegan         : Local ZFS, SOC                                
  Christoph Riplinger    : Optimizer, TS searches, QM/MM, DLPNO-CCSD(T), (RO)-DLPNO pert. Triples 
  Michael Roemelt        : Original ROCIS implementation                 
  Masaaki Saitow         : Open-shell DLPNO-CCSD energy and density      
  Barbara Sandhoefer     : DKH picture change effects                    
  Kantharuban Sivalingam : CASSCF convergence/infrastructure, NEVPT2 and variants, FIC-MRCI 
  Bernardo de Souza      : ESD, SOC TD-DFT                               
  Georgi L. Stoychev     : AutoAux, RI-MP2 NMR, DLPNO-MP2 response, X2C  
  Van Anh Tran           : RI-MP2 g-tensors                              
  Willem Van den Heuvel  : Paramagnetic NMR                              
  Zikuan Wang            : NOTCH, Electric field optimization            
  Frank Wennmohs         : Technical directorship and infrastructure     
  Hang Xu                : AUTO-CI-Response properties                   
                                                                         
[FACCTs GmbH]                                                            
  Markus Bursch, Miquel Garcia-Rates, Christoph Riplinger, Bernardo de Souza, Georgi L. Stoychev 
                                                                 
  APM, Basis sets (HGBS, AHGBS, def-TZVP (Ac-Lr), def2-XVPD (La-Lu)), CI-OPT, improved COSX, DLPNO-Multilevel,           
  DOCKER, DRACO, updates on ESD, GOAT, IRC, LR-CPCM, MBIS, meta-GGA TD-DFT gradient, ML-optimized integration grids, 
  MM, NACMEs, nearIR, NEB, NEB-TS, NL-DFT gradient (VV10), 2- and 3-layer-ONIOM, interface openCOSMO-RS, QMMM,   
  Crystal-QMMM, SF, symmetry and pop. for TD-DFT, r2SCAN hybrids, SOLVATOR                                   
                                                                         
[Other institutions]                                                     
  V. Asgeirsson          : NEB                                           
  Christoph Bannwarth    : sTDA-DFT, sTD-DFT, PBEh-3c, B97-3c, D3        
  Sebastian Ehlert       : rSCAN, r2SCAN, r2SCAN-3c, D4, dhf basis sets  
  Marvin Friede          : D4 for Fr, Ra, Ac-Lr                          
  Lars Goerigk           : TD-DFT with DH, B97 family of functionals     
  Stefan Grimme          : VdW corrections, initial TS optimization, DFT functionals, gCP, sTDA/sTD-DF 
  Waldemar Hujo          : DFT-NL                                        
  H. Jonsson             : NEB                                           
  Holger Kruse           : gCP                                           
  Marcel Mueller         : wB97X-3c, vDZP basis set                      
  Hagen Neugebauer       : wr2SCAN                                       
  Tobias Risthaus        : range-separated hybrid DFT                    
  Lukas Wittmann         : regularized MP2, r2SCAN double-hybrids, wr2SCAN        
                                                                         
We gratefully acknowledge several colleagues who have allowed us to      
interface, adapt or use parts of their codes:                            
  Ed Valeev, F. Pavosevic, A. Kumar             : LibInt (2-el integral package), F12 methods 
  Garnet Chan, S. Sharma, J. Yang, R. Olivares  : DMRG                   
  Ulf Ekstrom                                   : XCFun DFT Library      
  Mihaly Kallay                                 : mrcc  (arbitrary order and MRCC methods)
  Frank Weinhold                                : gennbo (NPA and NBO analysis)           
  Simon Mueller                                 : openCOSMO-RS                            
  Christopher J. Cramer and Donald G. Truhlar   : smd solvation model                     
  S Lehtola, MJT Oliveira, MAL Marques          : LibXC Library                           
  Liviu Ungur et al                             : ANISO software                          


 Your calculation uses the libint2 library for the computation of 2-el integrals
 For citations please refer to: http://libint.valeyev.net

 Your ORCA version has been built with support for libXC version: 6.2.2
 For citations please refer to: https://libxc.gitlab.io

 This ORCA versions uses:
   CBLAS   interface :  Fast vector & matrix operations
   LAPACKE interface :  Fast linear algebra routines
   SCALAPACK package :  Parallel linear algebra routines
   Shared memory     :  Shared parallel matrices
   BLAS/LAPACK       :  OpenBLAS 0.3.27  USE64BITINT DYNAMIC_ARCH NO_AFFINITY Zen SINGLE_THREADED
        Core in use  :  Zen
   Copyright (c) 2011-2014, The OpenBLAS Project




***************************************
The coordinates will be read from file: xtb_opt.xyz
***************************************


Your calculation utilizes the geometrical counterpoise correction gCP
Please cite in your paper:
H.Kruse, S. Grimme J.Chem.Phys., 136, (2012), 154101 
   

Your calculation utilizes the atom-pairwise dispersion correction
based on EEQ partial charges (D4)


================================================================================

----- Orbital basis set information -----
Your calculation utilizes the basis: def2-mTZVPP
   Stefan Grimme, Andreas Hansen, Sebastian Ehlert, and Jan-Michael Mewes 
   J. Chem. Phys. 154, 064103 (2021). DOI: 10.1063/5.0040021

----- AuxJ basis set information -----
Your calculation utilizes the auxiliary basis: def2/J
   F. Weigend, Phys. Chem. Chem. Phys. 8, 1057 (2006).

================================================================================
                                        WARNINGS
                       Please study these warnings very carefully!
================================================================================

WARNING: Old DensityContainer found on disk!
         Will remove this file - 
         If you want to keep old densities, please start your calculation with a different basename. 



WARNING: SCAN, rSCAN, or r2SCAN functional requested.
  ===> : libXC variant has now been activated.



================================================================================
                                       INPUT FILE
================================================================================
NAME = xtb_opt.inp
|  1> ! r2scan-3c def2/J RI DEFGRID2 scfconv7 ENGRAD tightSCF miniprint
|  2> * xyzfile 0 1 xtb_opt.xyz
|  3> 
|  4>                          ****END OF INPUT****
================================================================================

                     *******************************
                     * Energy+Gradient Calculation *
                     *******************************

---------------------------------
CARTESIAN COORDINATES (ANGSTROEM)
---------------------------------
  C     -1.111576   -0.018551   -0.046614
  C     -0.018551    1.111636    0.046742
  C      1.111572    0.018549   -0.046627
  C      0.018551   -1.111649    0.046860
  F      0.029277   -1.755279    1.223234
  F      0.033580   -2.002499   -0.951272
  F      2.002734    0.033685    0.951245
  F      1.754901    0.029164   -1.223241
  F     -0.033595    2.002578   -0.951315
  F     -0.029258    1.755217    1.223165
  F     -1.754903   -0.029364   -1.223228
  F     -2.002734   -0.033499    0.951261

----------------------------
CARTESIAN COORDINATES (A.U.)
----------------------------
  NO LB      ZA    FRAG     MASS         X           Y           Z
   0 C     6.0000    0    12.011   -2.100573   -0.035056   -0.088088
   1 C     6.0000    0    12.011   -0.035056    2.100687    0.088330
   2 C     6.0000    0    12.011    2.100566    0.035052   -0.088112
   3 C     6.0000    0    12.011    0.035057   -2.100711    0.088553
   4 F     9.0000    0    18.998    0.055326   -3.316996    2.311577
   5 F     9.0000    0    18.998    0.063457   -3.784175   -1.797644
   6 F     9.0000    0    18.998    3.784618    0.063656    1.797593
   7 F     9.0000    0    18.998    3.316282    0.055113   -2.311591
   8 F     9.0000    0    18.998   -0.063486    3.784323   -1.797724
   9 F     9.0000    0    18.998   -0.055290    3.316879    2.311447
  10 F     9.0000    0    18.998   -3.316285   -0.055490   -2.311566
  11 F     9.0000    0    18.998   -3.784619   -0.063304    1.797622

------------------------------------------------------------------------------
                   ___                                                        
                  /   \      - P O W E R E D   B Y -                         
                 /     \                                                     
                 |  |  |   _    _      __       _____    __    __             
                 |  |  |  | |  | |    /  \     |  _  \  |  |  /  |          
                  \  \/   | |  | |   /    \    | | | |  |  | /  /          
                 / \  \   | |__| |  /  /\  \   | |_| |  |  |/  /          
                |  |  |   |  __  | /  /__\  \  |    /   |      \           
                |  |  |   | |  | | |   __   |  |    \   |  |\   \          
                \     /   | |  | | |  |  |  |  | |\  \  |  | \   \       
                 \___/    |_|  |_| |__|  |__|  |_| \__\ |__|  \__/        
                                                                              
                      - O R C A' S   B I G   F R I E N D -                    
                                      &                                       
                       - I N T E G R A L  F E E D E R -                       
                                                                              
 v1 FN, 2020, v2 2021, v3 2022-2024                                           
------------------------------------------------------------------------------


----------------------
SHARK INTEGRAL PACKAGE
----------------------

Number of atoms                             ...     12
Number of basis functions                   ...    268
Number of shells                            ...    116
Maximum angular momentum                    ...      2
Integral batch strategy                     ... SHARK/LIBINT Hybrid
RI-J (if used) integral strategy            ... SPLIT-RIJ (Revised 2003 algorithm where possible)
Printlevel                                  ...      1
Contraction scheme used                     ... SEGMENTED contraction
Prescreening option                         ... SCHWARTZ
   Thresh                                   ... 3.000e-11
   Tcut                                     ... 1.000e-12
   Tpresel                                  ... 1.000e-12 
Coulomb Range Separation                    ... NOT USED
Exchange Range Separation                   ... NOT USED
Multipole approximations                    ... NOT USED
Finite Nucleus Model                        ... NOT USED
CABS basis                                  ... NOT available
Auxiliary Coulomb fitting basis             ... AVAILABLE
   # of basis functions in Aux-J            ...    588
   # of shells in Aux-J                     ...    180
   Maximum angular momentum in Aux-J        ...      4
Auxiliary J/K fitting basis                 ... NOT available
Auxiliary Correlation fitting basis         ... NOT available
Auxiliary 'external' fitting basis          ... NOT available

Checking pre-screening integrals            ... done (  0.0 sec) Dimension = 116
Check shell pair data                       ... done (  0.0 sec)
Shell pair information
Shell pair cut-off parameter TPreSel        ...   1.0e-12
Total number of shell pairs                 ...      6786
Shell pairs after pre-screening             ...      5974
Total number of primitive shell pairs       ...     25464
Primitive shell pairs kept                  ...     15284
          la=0 lb=0:   1408 shell pairs
          la=1 lb=0:   1936 shell pairs
          la=1 lb=1:    642 shell pairs
          la=2 lb=0:   1096 shell pairs
          la=2 lb=1:    688 shell pairs
          la=2 lb=2:    204 shell pairs

Calculating one electron integrals          ... done (  0.0 sec)
Calculating RI/J V-Matrix + Cholesky decomp.... done (  0.0 sec)
Calculating Nuclear repulsion               ... done (  0.0 sec) ENN=    885.887332069007 Eh

Diagonalization of the overlap matrix:
Smallest eigenvalue                        ... 2.215e-05
Time for diagonalization                   ...    0.006 sec
Threshold for overlap eigenvalues          ... 1.000e-07
Number of eigenvalues below threshold      ... 0
Time for construction of square roots      ...    0.002 sec
Total time needed                          ...    0.009 sec

-------------------
DFT GRID GENERATION
-------------------

General Integration Accuracy     IntAcc      ... 4.388
Radial Grid Type                 RadialGrid  ... OptM3 with GC (2021)
Angular Grid (max. ang.)         AngularGrid ... 4 (Lebedev-302)
Angular grid pruning method      GridPruning ... 4 (adaptive)
Weight generation scheme         WeightScheme... mBecke (2022)
Basis function cutoff            BFCut       ... 1.0000e-11
Integration weight cutoff        WCut        ... 1.0000e-14
Partially contracted basis set               ... off
Rotationally invariant grid construction     ... off
Angular grids for H and He will be reduced by one unit

Total number of grid points                  ...    72908
Total number of batches                      ...     1144
Average number of points per batch           ...       63
Average number of grid points per atom       ...     6076
Initializing property integral containers    ... done (  0.0 sec)

SHARK setup successfully completed in   0.6 seconds

Maximum memory used throughout the entire STARTUP-calculation: 39.3 MB
Occupation numbers will be reassigned to an Aufbau configuration
             **** ENERGY FILE WAS UPDATED (xtb_opt.en.tmp) ****
Finished Guess after   0.1 sec
Maximum memory used throughout the entire GUESS-calculation: 21.1 MB
----------------------------------------D-I-I-S--------------------------------------------
Iteration    Energy (Eh)           Delta-E    RMSDP     MaxDP     DIISErr   Damp  Time(sec)
-------------------------------------------------------------------------------------------
               ***  Starting incremental Fock matrix formation  ***
    1    -951.1127563578237414     0.00e+00  9.54e-05  1.86e-03  4.17e-03  0.700   1.9
                              *** Initializing SOSCF ***
---------------------------------------S-O-S-C-F--------------------------------------
Iteration    Energy (Eh)           Delta-E    RMSDP     MaxDP     MaxGrad    Time(sec)
--------------------------------------------------------------------------------------
    2    -951.1129065906123969    -1.50e-04  2.64e-04  5.19e-03  3.20e-03     1.4
               *** Restarting incremental Fock matrix formation ***
    3    -951.1132633665437197    -3.57e-04  4.35e-05  8.49e-04  6.00e-04     1.8
    4    -951.1132572219033818     6.14e-06  3.08e-05  9.03e-04  9.71e-04     1.4
    5    -951.1132709414047213    -1.37e-05  2.57e-05  1.24e-03  1.25e-04     1.4
    6    -951.1132710431962778    -1.02e-07  1.51e-05  7.34e-04  1.13e-04     1.3
    7    -951.1132715040733956    -4.61e-07  5.72e-06  2.81e-04  9.04e-06     1.3
                  *** Gradient check signals convergence ***

               *****************************************************
               *                     SUCCESS                       *
               *           SCF CONVERGED AFTER   7 CYCLES          *
               *****************************************************

             **** ENERGY FILE WAS UPDATED (xtb_opt.en.tmp) ****

----------------
TOTAL SCF ENERGY
----------------

Total Energy       :       -951.11327150407340 Eh          -25881.10789 eV

Components:
Nuclear Repulsion  :        885.88733206900690 Eh           24106.21984 eV
Electronic Energy  :      -1837.00060357308030 Eh          -49987.32773 eV
One Electron Energy:      -3082.76536837390404 Eh          -83886.31037 eV
Two Electron Energy:       1245.76476480082374 Eh           33898.98264 eV

Virial components:
Potential Energy   :      -1899.11884275397892 Eh          -51677.65095 eV
Kinetic Energy     :        948.00557124990553 Eh           25796.54306 eV
Virial Ratio       :          2.00327814555992

DFT components:
N(Alpha)           :       47.999917987227 electrons
N(Beta)            :       47.999917987227 electrons
N(Total)           :       95.999835974454 electrons
E(X)               :     -101.766561613670 Eh       
E(C)               :       -3.352357791375 Eh       
E(XC)              :     -105.118919405044 Eh       

---------------
SCF CONVERGENCE
---------------

  Last Energy change         ...    4.6088e-07  Tolerance :   1.0000e-07
  Last MAX-Density change    ...    2.8095e-04  Tolerance :   1.0000e-07
  Last RMS-Density change    ...    5.7191e-06  Tolerance :   5.0000e-09
  Last DIIS Error            ...    3.2038e-03  Tolerance :   1.0000e-07
  Last Orbital Gradient      ...    9.0425e-06  Tolerance :   1.0000e-04
  Last Orbital Rotation      ...    2.2693e-05  Tolerance :   1.0000e-04


----------------
ORBITAL ENERGIES
----------------

  NO   OCC          E(Eh)            E(eV) 
   0   2.0000     -24.552939      -668.1194 
   1   2.0000     -24.552931      -668.1192 
   2   2.0000     -24.552913      -668.1187 
   3   2.0000     -24.552913      -668.1187 
   4   2.0000     -24.552454      -668.1062 
   5   2.0000     -24.552451      -668.1062 
   6   2.0000     -24.552444      -668.1060 
   7   2.0000     -24.552441      -668.1059 
   8   2.0000     -10.258448      -279.1466 
   9   2.0000     -10.258374      -279.1445 
  10   2.0000     -10.258372      -279.1445 
  11   2.0000     -10.258298      -279.1425 
  12   2.0000      -1.292755       -35.1777 
  13   2.0000      -1.275083       -34.6968 
  14   2.0000      -1.275062       -34.6962 
  15   2.0000      -1.262140       -34.3446 
  16   2.0000      -1.227393       -33.3991 
  17   2.0000      -1.217408       -33.1274 
  18   2.0000      -1.217393       -33.1270 
  19   2.0000      -1.209067       -32.9004 
  20   2.0000      -0.873982       -23.7823 
  21   2.0000      -0.701811       -19.0973 
  22   2.0000      -0.701802       -19.0970 
  23   2.0000      -0.633266       -17.2320 
  24   2.0000      -0.613169       -16.6852 
  25   2.0000      -0.601396       -16.3648 
  26   2.0000      -0.594213       -16.1694 
  27   2.0000      -0.566493       -15.4151 
  28   2.0000      -0.566474       -15.4145 
  29   2.0000      -0.556073       -15.1315 
  30   2.0000      -0.556062       -15.1312 
  31   2.0000      -0.542677       -14.7670 
  32   2.0000      -0.464547       -12.6410 
  33   2.0000      -0.464546       -12.6409 
  34   2.0000      -0.456736       -12.4284 
  35   2.0000      -0.453496       -12.3403 
  36   2.0000      -0.451310       -12.2808 
  37   2.0000      -0.448781       -12.2120 
  38   2.0000      -0.437252       -11.8982 
  39   2.0000      -0.437249       -11.8981 
  40   2.0000      -0.430114       -11.7040 
  41   2.0000      -0.414025       -11.2662 
  42   2.0000      -0.408298       -11.1104 
  43   2.0000      -0.408298       -11.1104 
  44   2.0000      -0.401952       -10.9377 
  45   2.0000      -0.363290        -9.8856 
  46   2.0000      -0.363274        -9.8852 
  47   2.0000      -0.304852        -8.2955 
  48   0.0000      -0.076447        -2.0802 
  49   0.0000       0.002172         0.0591 
  50   0.0000       0.073078         1.9886 
  51   0.0000       0.073091         1.9889 
  52   0.0000       0.118324         3.2198 
  53   0.0000       0.118328         3.2199 
  54   0.0000       0.126910         3.4534 
  55   0.0000       0.126935         3.4541 
  56   0.0000       0.132468         3.6046 
  57   0.0000       0.166870         4.5408 
  58   0.0000       0.167354         4.5539 
*Only the first 10 virtual orbitals were printed.
Total SCF time: 0 days 0 hours 0 min 10 sec 
Finished LeanSCF after  10.7 sec

Maximum memory used throughout the entire LEANSCF-calculation: 29.5 MB


-------------------------------------------------------------------------------
                          DFT DISPERSION CORRECTION                            
                                                                               
                                DFTD4 V3.4.0                                   
-------------------------------------------------------------------------------
-------------------------   ----------------
Dispersion correction           -0.003392879
-------------------------   ----------------

------------------   -----------------
gCP correction             0.014737989
------------------   -----------------

-------------------------   --------------------
FINAL SINGLE POINT ENERGY      -951.101926394524
-------------------------   --------------------

------------------------------------------------------------------------------
                         ORCA SCF GRADIENT CALCULATION
------------------------------------------------------------------------------

Nuc. rep. gradient        (SHARK) ... done (  0.0 sec)
HCore & Overlap gradient  (SHARK) ... done (  0.2 sec)
Split-RIJ-J gradient      (SHARK) ... done (  1.7 sec)
XC gradient                       ... done (  5.6 sec)
Dispersion correction             ... done (  0.0 sec)

-------------------
DISPERSION GRADIENT
-------------------

   1   C   :    0.000081679    0.000001361    0.000000914
   2   C   :    0.000001364   -0.000081711   -0.000000910
   3   C   :   -0.000081679   -0.000001365    0.000000915
   4   C   :   -0.000001364    0.000081715   -0.000000921
   5   F   :    0.000000802   -0.000048143    0.000028109
   6   F   :    0.000000892   -0.000053124   -0.000021753
   7   F   :    0.000053133    0.000000895    0.000021754
   8   F   :    0.000048128    0.000000799   -0.000028107
   9   F   :   -0.000000892    0.000053127   -0.000021754
  10   F   :   -0.000000802    0.000048140    0.000028105
  11   F   :   -0.000048127   -0.000000805   -0.000028106
  12   F   :   -0.000053133   -0.000000890    0.000021755

Difference to translation invariance:
           :    0.0000000000    0.0000000000   -0.0000000000

Difference to rotation invariance:
           :   -0.0000000000    0.0000000000   -0.0000000000

Norm of the Dispersion gradient    ...    0.0002287464
RMS gradient                       ...    0.0000381244
MAX gradient                       ...    0.0000817152
gCP correction                   ... done

------------------
CARTESIAN GRADIENT
------------------

   1   C   :    0.002937548    0.000060565   -0.000265419
   2   C   :    0.000059332   -0.002897484    0.000288467
   3   C   :   -0.002940470   -0.000057905   -0.000266630
   4   C   :   -0.000057654    0.002878903    0.000298688
   5   F   :   -0.000000911   -0.000458182   -0.003322888
   6   F   :   -0.000014829   -0.000040448    0.002720812
   7   F   :    0.000065160   -0.000012332   -0.002715592
   8   F   :    0.000459536   -0.000003163    0.003288790
   9   F   :    0.000014375    0.000056282    0.002721040
  10   F   :    0.000001092    0.000458586   -0.003319355
  11   F   :   -0.000458766   -0.000001372    0.003288621
  12   F   :   -0.000064412    0.000016550   -0.002716535

Difference to translation invariance:
           :   -0.0000000000    0.0000000000   -0.0000000000

Difference to rotation invariance:
           :    0.0000004871   -0.0000002799   -0.0004343195

Norm of the Cartesian gradient     ...    0.0104112713
RMS gradient                       ...    0.0017352119
MAX gradient                       ...    0.0033228875

-------
TIMINGS
-------

Total SCF gradient time     ....        7.561 sec

Densities                   ....       0.001 sec  (  0.0%)
One electron gradient       ....       0.190 sec  (  2.5%)
RI-J Coulomb gradient       ....       1.732 sec  ( 22.9%)
XC gradient                 ....       5.616 sec  ( 74.3%)

Maximum memory used throughout the entire SCFGRAD-calculation: 41.3 MB

------------------------------------------------------------------------------
                              ORCA PROPERTY CALCULATIONS
------------------------------------------------------------------------------

GBWName                                 ... xtb_opt.gbw
Number of atoms                         ...     12
Number of basis functions               ...    268
Max core memory                         ...   1024 MB

Electric properties:
Dipole moment                           ... YES
Quadrupole moment                       ...  NO
Static polarizability (Dipole/Dipole)   ...  NO
Static polarizability (Dipole/Quad.)    ...  NO
Static polarizability (Quad./Quad.)     ...  NO
Static polarizability (Velocity)        ...  NO

Atomic electric properties:
Dipole moment                           ...  NO
Quadrupole moment                       ...  NO
Static polarizability                   ...  NO

Choice of electric origin               ... Center of mass
Position of electric origin             ...    -0.000000    -0.000001     0.000014

General magnetic properties:
Magnetizability                         ...  NO

EPR properties:
g-Tensor (aka g-matrix)                 ...  NO
Zero-Field splitting spin-orbit         ...  NO
Zero-field splitting spin-spin          ...  NO
Hyperfine couplings                     ...  NO (   0 nuclei)
Quadrupole couplings                    ...  NO (   0 nuclei)
Contact density                         ...  NO (   0 nuclei)

NMR properties:
Chemical shifts                         ...  NO (   0 nuclei)
Spin-rotation constants                 ...  NO (   0 nuclei)
Spin-spin couplings                     ...  NO (   0 nuclei,    0 pairs)

Choice of magnetic origin               ... GIAO
Position of magnetic origin             ...     0.000000     0.000000     0.000000

Properties with geometric perturbations:
SCF Hessian                             ...  NO
IR spectrum                             ...  NO
VCD spectrum                            ...  NO
X-ray spectroscopy properties:
SCF XES/XAS/RIXS spectra                ...  NO


-------------
DIPOLE MOMENT
-------------

Method             : SCF
Type of density    : Electron Density
Multiplicity       :   1
Irrep              :   0
Energy             :  -951.1132715040733956 Eh
Relativity type    : 
Basis              : AO
                                X                 Y                 Z
[...]
               *****************************************************

             **** ENERGY FILE WAS UPDATED (xtb_opt.en.tmp) ****

----------------
TOTAL SCF ENERGY
----------------

Total Energy       :       -951.11332830237916 Eh          -25881.10943 eV

Components:
Nuclear Repulsion  :        884.93301662547265 Eh           24080.25160 eV
Electronic Energy  :      -1836.04634492785181 Eh          -49961.36103 eV
One Electron Energy:      -3080.89755425749854 Eh          -83835.48457 eV
Two Electron Energy:       1244.85120932964674 Eh           33874.12353 eV

Virial components:
Potential Energy   :      -1899.05064696364025 Eh          -51675.79525 eV
Kinetic Energy     :        947.93731866126097 Eh           25794.68582 eV
Virial Ratio       :          2.00335044267020

DFT components:
N(Alpha)           :       47.999915685732 electrons
N(Beta)            :       47.999915685732 electrons
N(Total)           :       95.999831371464 electrons
E(X)               :     -101.750505459527 Eh       
E(C)               :       -3.351472643748 Eh       
E(XC)              :     -105.101978103275 Eh       

---------------
SCF CONVERGENCE
---------------

  Last Energy change         ...   -2.0709e-09  Tolerance :   1.0000e-07
  Last MAX-Density change    ...    1.0397e-04  Tolerance :   1.0000e-07
  Last RMS-Density change    ...    2.6337e-06  Tolerance :   5.0000e-09
  Last DIIS Error            ...    3.0927e-05  Tolerance :   1.0000e-07
  Last Orbital Gradient      ...    1.2386e-05  Tolerance :   1.0000e-04
  Last Orbital Rotation      ...    2.9585e-05  Tolerance :   1.0000e-04


----------------
ORBITAL ENERGIES
----------------

  NO   OCC          E(Eh)            E(eV) 
   0   2.0000     -24.553065      -668.1229 
   1   2.0000     -24.553064      -668.1228 
   2   2.0000     -24.553064      -668.1228 
   3   2.0000     -24.553061      -668.1228 
   4   2.0000     -24.552732      -668.1138 
   5   2.0000     -24.552728      -668.1137 
   6   2.0000     -24.552727      -668.1137 
   7   2.0000     -24.552725      -668.1136 
   8   2.0000     -10.258945      -279.1601 
   9   2.0000     -10.258874      -279.1582 
  10   2.0000     -10.258872      -279.1581 
  11   2.0000     -10.258801      -279.1562 
  12   2.0000      -1.291212       -35.1357 
  13   2.0000      -1.273528       -34.6545 
  14   2.0000      -1.273527       -34.6544 
  15   2.0000      -1.260579       -34.3021 
  16   2.0000      -1.227432       -33.4001 
  17   2.0000      -1.217412       -33.1275 
  18   2.0000      -1.217411       -33.1275 
  19   2.0000      -1.209073       -32.9005 
  20   2.0000      -0.871482       -23.7142 
  21   2.0000      -0.701187       -19.0803 
  22   2.0000      -0.701177       -19.0800 
  23   2.0000      -0.632781       -17.2189 
  24   2.0000      -0.611977       -16.6527 
  25   2.0000      -0.600898       -16.3513 
  26   2.0000      -0.592827       -16.1316 
  27   2.0000      -0.566240       -15.4082 
  28   2.0000      -0.566237       -15.4081 
  29   2.0000      -0.554938       -15.1006 
  30   2.0000      -0.554927       -15.1003 
  31   2.0000      -0.542700       -14.7676 
  32   2.0000      -0.463746       -12.6192 
  33   2.0000      -0.463744       -12.6191 
  34   2.0000      -0.455887       -12.4053 
  35   2.0000      -0.453113       -12.3298 
  36   2.0000      -0.451072       -12.2743 
  37   2.0000      -0.447719       -12.1831 
  38   2.0000      -0.437519       -11.9055 
  39   2.0000      -0.437518       -11.9055 
  40   2.0000      -0.431217       -11.7340 
  41   2.0000      -0.413976       -11.2649 
  42   2.0000      -0.408905       -11.1269 
  43   2.0000      -0.408904       -11.1268 
  44   2.0000      -0.402680       -10.9575 
  45   2.0000      -0.362405        -9.8615 
  46   2.0000      -0.362389        -9.8611 
  47   2.0000      -0.304531        -8.2867 
  48   0.0000      -0.073936        -2.0119 
  49   0.0000      -0.000032        -0.0009 
  50   0.0000       0.070833         1.9275 
  51   0.0000       0.070843         1.9277 
  52   0.0000       0.118308         3.2193 
  53   0.0000       0.118317         3.2196 
  54   0.0000       0.124690         3.3930 
  55   0.0000       0.124693         3.3931 
  56   0.0000       0.127837         3.4786 
  57   0.0000       0.163721         4.4551 
  58   0.0000       0.167080         4.5465 
*Only the first 10 virtual orbitals were printed.
Total SCF time: 0 days 0 hours 0 min 3 sec 
Finished LeanSCF after   4.0 sec

Maximum memory used throughout the entire LEANSCF-calculation: 29.4 MB


-------------------------------------------------------------------------------
                          DFT DISPERSION CORRECTION                            
                                                                               
                                DFTD4 V3.4.0                                   
-------------------------------------------------------------------------------
-------------------------   ----------------
Dispersion correction           -0.003394487
-------------------------   ----------------

------------------   -----------------
gCP correction             0.014613545
------------------   -----------------

-------------------------   --------------------
FINAL SINGLE POINT ENERGY      -951.102109244880
-------------------------   --------------------

------------------------------------------------------------------------------
                         ORCA SCF GRADIENT CALCULATION
------------------------------------------------------------------------------

Nuc. rep. gradient        (SHARK) ... done (  0.0 sec)
HCore & Overlap gradient  (SHARK) ... done (  0.2 sec)
Split-RIJ-J gradient      (SHARK) ... done (  1.7 sec)
XC gradient                       ... done (  5.5 sec)
Dispersion correction             ... done (  0.0 sec)

-------------------
DISPERSION GRADIENT
-------------------

   1   C   :    0.000086633    0.000001446    0.000001103
   2   C   :    0.000001447   -0.000086662   -0.000001100
   3   C   :   -0.000086633   -0.000001447    0.000001104
   4   C   :   -0.000001447    0.000086663   -0.000001107
   5   F   :    0.000000799   -0.000047896    0.000028320
   6   F   :    0.000000891   -0.000053103   -0.000021868
   7   F   :    0.000053103    0.000000892    0.000021869
   8   F   :    0.000047894    0.000000797   -0.000028319
   9   F   :   -0.000000891    0.000053103   -0.000021870
  10   F   :   -0.000000798    0.000047896    0.000028317
  11   F   :   -0.000047894   -0.000000800   -0.000028319
  12   F   :   -0.000053103   -0.000000890    0.000021870

Difference to translation invariance:
           :   -0.0000000000    0.0000000000   -0.0000000000

Difference to rotation invariance:
           :   -0.0000000000   -0.0000000000   -0.0000000000

Norm of the Dispersion gradient    ...    0.0002358532
RMS gradient                       ...    0.0000393089
MAX gradient                       ...    0.0000866632
gCP correction                   ... done

------------------
CARTESIAN GRADIENT
------------------

   1   C   :    0.000005141    0.000006681   -0.000127581
   2   C   :    0.000005331    0.000031340    0.000124551
   3   C   :   -0.000005336   -0.000005247   -0.000128026
   4   C   :   -0.000005263   -0.000032020    0.000132444
   5   F   :   -0.000012923   -0.000028939    0.000005793
   6   F   :   -0.000012746   -0.000027699   -0.000243714
   7   F   :    0.000021551   -0.000012193    0.000235053
   8   F   :    0.000025000   -0.000013567   -0.000000354
   9   F   :    0.000012676    0.000027909   -0.000241179
  10   F   :    0.000012980    0.000027947    0.000008670
  11   F   :   -0.000024904    0.000012419   -0.000000514
  12   F   :   -0.000021507    0.000013369    0.000234856

Difference to translation invariance:
           :   -0.0000000000    0.0000000000   -0.0000000000

Difference to rotation invariance:
           :    0.0000006329   -0.0000001741   -0.0004258404

Norm of the Cartesian gradient     ...    0.0005501402
RMS gradient                       ...    0.0000916900
MAX gradient                       ...    0.0002437142

-------
TIMINGS
-------

Total SCF gradient time     ....        7.449 sec

Densities                   ....       0.001 sec  (  0.0%)
One electron gradient       ....       0.195 sec  (  2.6%)
RI-J Coulomb gradient       ....       1.718 sec  ( 23.1%)
XC gradient                 ....       5.513 sec  ( 74.0%)

Maximum memory used throughout the entire SCFGRAD-calculation: 41.3 MB

------------------------------------------------------------------------------
                              ORCA PROPERTY CALCULATIONS
------------------------------------------------------------------------------

GBWName                                 ... xtb_opt.gbw
Number of atoms                         ...     12
Number of basis functions               ...    268
Max core memory                         ...   1024 MB

Electric properties:
Dipole moment                           ... YES
Quadrupole moment                       ...  NO
Static polarizability (Dipole/Dipole)   ...  NO
Static polarizability (Dipole/Quad.)    ...  NO
Static polarizability (Quad./Quad.)     ...  NO
Static polarizability (Velocity)        ...  NO

Atomic electric properties:
Dipole moment                           ...  NO
Quadrupole moment                       ...  NO
Static polarizability                   ...  NO

Choice of electric origin               ... Center of mass
Position of electric origin             ...    -0.000000    -0.000002     0.000032

General magnetic properties:
Magnetizability                         ...  NO

EPR properties:
g-Tensor (aka g-matrix)                 ...  NO
Zero-Field splitting spin-orbit         ...  NO
Zero-field splitting spin-spin          ...  NO
Hyperfine couplings                     ...  NO (   0 nuclei)
Quadrupole couplings                    ...  NO (   0 nuclei)
Contact density                         ...  NO (   0 nuclei)

NMR properties:
Chemical shifts                         ...  NO (   0 nuclei)
Spin-rotation constants                 ...  NO (   0 nuclei)
Spin-spin couplings                     ...  NO (   0 nuclei,    0 pairs)

Choice of magnetic origin               ... GIAO
Position of magnetic origin             ...     0.000000     0.000000     0.000000

Properties with geometric perturbations:
SCF Hessian                             ...  NO
IR spectrum                             ...  NO
VCD spectrum                            ...  NO
X-ray spectroscopy properties:
SCF XES/XAS/RIXS spectra                ...  NO


-------------
DIPOLE MOMENT
-------------

Method             : SCF
Type of density    : Electron Density
Multiplicity       :   1
Irrep              :   0
Energy             :  -951.1133283023791591 Eh
Relativity type    : 
Basis              : AO
                                X                 Y                 Z
Electronic contribution:     -0.000000519       0.000000793       0.000025201
Nuclear contribution   :     -0.000000282       0.000001868       0.000015344
                        -----------------------------------------
Total Dipole Moment    :     -0.000000800       0.000002661       0.000040545
                        -----------------------------------------
Magnitude (a.u.)       :      0.000040640
Magnitude (Debye)      :      0.000103299



--------------------
Rotational spectrum 
--------------------
 
Rotational constants in cm-1:             0.034887             0.034886             0.028239 
Rotational constants in MHz :          1045.894173          1045.846745           846.577814 

Dipole components along the rotational axes: 
x,y,z [a.u.] :     0.000003    -0.000001     0.000041 
x,y,z [Debye]:     0.000007    -0.000002     0.000103 

 

Dipole moment calculation done in   0.0 sec 

Maximum memory used throughout the entire PROP-calculation: 20.1 MB

--------------------------------
SUGGESTED CITATIONS FOR THIS RUN
--------------------------------

Below you find a list of papers that are relevant to this ORCA run
We neither can nor want to force you to cite these papers, but we appreciate if you do
You receive ORCA, which is the product of decades of hard work by many enthusiastic individuals, for free
The only thing we kindly ask in return is that you cite our papers,
We deeply appreciate it, if you show your appreciation for ORCA by not just citing the generic ORCA reference.

Please note that relegating all ORCA citations to the supporting information does *not* help us.
SI sections are not indexed - citations you put there will not count into any citation statistics
But we need these citations in order to attract the funding resources that allow us to do what we are doing

Therefore, if you are a happy ORCA user, please consider citing a few of the papers listed below in the main body of your paper

In addition to the list printed below, the program has created the file xtb_opt.bibtex that contains the list in bibtex format
You can import this file easily into all common literature databanks and citation aid programs


List of essential papers. We consider these as the minimum necessary citations

  1. Neese,F.
     Software update: the ORCA program system, version 5.0
     WIRES Comput. Molec. Sci., 2022 12(1)e1606
     doi.org/10.1002/wcms.1606
  2. Grimme,S.; Hansen,A.; Ehlert,S.; Mewes,J.
     r2SCAN-3c: A 'Swiss army knife' composite electronic-structure method
     J. Chem. Phys., 2021 154 064103
     doi.org/10.1063/5.0040021

List of papers to cite with high priority. The work reported in these papers was absolutely
necessary for this run to complete.
Our perspective: the developers of density functionals and basis sets usually get cited in chemistry papers
Good! But without the algorithms to do something with them, the functionals or basis sets would not do anything.
Hence, in our opinion, the algorithm design and method developments papers are equally worthy of getting cited

  1. Neese,F.
     An improvement of the resolution of the identity approximation for the formation of the Coulomb matrix
     J. Comp. Chem., 2003 24(14)1740-1747
     doi.org/10.1002/jcc.10318
  2. Neese,F.
     The SHARK Integral Generation and Digestion System
     J. Comp. Chem., 2022  1-16
     doi.org/10.1002/jcc.26942
  3. Lehtola,S.; Steigemann,C.; Oliveira,M.; Marques,M.
     Recent developments in Libxc - A comprehensive library of functionals for density functional theory
     Software X, 2018 7 
     doi.org/10.1016/j.softx.2017.11.002
  4. Caldeweyher,E.; Bannwarth,C.; Grimme,S.
     Extension of the D3 dispersion coefficient model
     J. Chem. Phys., 2017 147 034112
     doi.org/10.1063/1.4993215
  5. Caldeweyher,E.; Ehlert,S.; Hansen,A.; Neugebauer,H.; Spicher,S.; Bannwarth,C.; Grimme,S.
     A generally applicable atomic-charge dependent London dispersion correction
     J. Chem. Phys., 2019 150 154122
     doi.org/10.1063/1.5090222
  6. Caldeweyher,E.; Mewes,J.; Ehlert,S.; Grimme,S.
     Extension and evaluation of the D4 London-dispersion model for periodic systems
     Phys. Chem. Chem. Phys., 2020 22(16)8499-8512
     doi.org/10.1039/D0CP00502A
  7. Wittmann,L.; Gordiy,I.; Friede,M.; Helmich-Paris,B.; Grimme,S.; Hansen,A.; Bursch,M.
     Extension of the D3 and D4 London Dispersion Corrections to the full Actinides Series
     Phys. Chem. Chem. Phys., 2024 26(32)21379-21394
     doi.org/https://doi.org/10.1039/D4CP01514B 

List of suggested additional citations. These are papers that are important in the 'surrounding' of 
of this run, or papers that preceded the highly important papers. If you like your results we are grateful for a citation.

  1. Neese,F.
     The ORCA program system
     WIRES Comput. Molec. Sci., 2012 2(1)73-78
     doi.org/10.1002/wcms.81
  2. Neese,F.
     Software update: the ORCA program system, version 4.0
     WIRES Comput. Molec. Sci., 2018 8(1)1-6
     doi.org/10.1002/wcms.1327
  3. Neese,F.; Wennmohs,F.; Becker,U.; Riplinger,C.
     The ORCA quantum chemistry program package
     J. Chem. Phys., 2020 152 Art. No. L224108
     doi.org/10.1063/5.0004608

List of optional additional citations

  1. Neese,F.
     Approximate second-order SCF convergence for spin unrestricted wavefunctions
     Chem. Phys. Lett., 2000 325(1-3)93-98
     doi.org/10.1016/s0009-2614(00)00662-x

Timings for individual modules:

Sum of individual times          ...       12.217 sec (=   0.204 min)
Startup calculation              ...        0.629 sec (=   0.010 min)   5.1 %
SCF iterations                   ...        4.047 sec (=   0.067 min)  33.1 %
Property calculations            ...        0.045 sec (=   0.001 min)   0.4 %
SCF Gradient evaluation          ...        7.497 sec (=   0.125 min)  61.4 %
                             ****ORCA TERMINATED NORMALLY****
TOTAL RUN TIME: 0 days 0 hours 0 minutes 12 seconds 293 msec
  ------------------------------------------------------------------------
          * successful ORCA run, taking over control again...

         :::::::::::::::::::::::::::::::::::::::::::::::::::::
         ::                  ORCA SUMMARY                   ::
         :::::::::::::::::::::::::::::::::::::::::::::::::::::
         :: total energy            -951.102109244880 Eh    ::
         :: gradient norm              0.000550140209 Eh/a0 ::
         :: HOMO-LUMO gap              0.000000000000 eV    ::
         :::::::::::::::::::::::::::::::::::::::::::::::::::::

           -------------------------------------------------
          |                Property Printout                |
           -------------------------------------------------
           -------------------------------------------------
          |                Geometry Summary                 |
           -------------------------------------------------

      molecular mass/u    :      200.0301689
   center of mass at/Å    :       -0.0000002      -0.0000010       0.0000167
  moments of inertia/u·Å² :        0.4832123E+03   0.4832342E+03   0.5969777E+03
rotational constants/cm⁻¹ :        0.3488659E-01   0.3488501E-01   0.2823829E-01

 * 8 selected distances

     #   Z          #   Z                                           value/Å
     4   6          5   9                                         1.3435985
     4   6          6   9                                         1.3394579
     3   6          7   9                                         1.3394491
     3   6          8   9                                         1.3436014
     2   6          9   9                                         1.3394519
     2   6         10   9                                         1.3436065 (max)
     1   6         11   9                                         1.3436017
     1   6         12   9                                         1.3394487 (min)

 * 1 distinct bonds (by element types)

   Z      Z             #   av. dist./Å        max./Å        min./Å
   6 C    9 F           8     1.3415269     1.3436065     1.3394487


optimized geometry written to: xtbopt.coord


           -------------------------------------------------
          | TOTAL ENERGY             -951.102109244880 Eh   |
          | GRADIENT NORM               0.000550140209 Eh/α |
           -------------------------------------------------

------------------------------------------------------------------------
 * finished run on 2025/04/08 at 23:43:24.374     
------------------------------------------------------------------------
 total:
 * wall-time:     0 d,  0 h,  1 min, 19.652 sec
 *  cpu-time:     0 d,  0 h,  0 min,  0.434 sec
 * ratio c/w:     0.005 speedup
 SCF:
 * wall-time:     0 d,  0 h,  0 min, 15.088 sec
 *  cpu-time:     0 d,  0 h,  0 min,  0.014 sec
 * ratio c/w:     0.001 speedup
 ANC optimizer:
 * wall-time:     0 d,  0 h,  1 min,  4.527 sec
 *  cpu-time:     0 d,  0 h,  0 min,  0.004 sec
 * ratio c/w:     0.000 speedup

