
                                 *****************
                                 * O   R   C   A *
                                 *****************

                                            #,                                       
                                            ###                                      
                                            ####                                     
                                            #####                                    
                                            ######                                   
                                           ########,                                 
                                     ,,################,,,,,                         
                               ,,#################################,,                 
                          ,,##########################################,,             
                       ,#########################################, ''#####,          
                    ,#############################################,,   '####,        
                  ,##################################################,,,,####,       
                ,###########''''           ''''###############################       
              ,#####''   ,,,,##########,,,,          '''####'''          '####       
            ,##' ,,,,###########################,,,                        '##       
           ' ,,###''''                  '''############,,,                           
         ,,##''                                '''############,,,,        ,,,,,,###''
      ,#''                                            '''#######################'''  
     '                                                          ''''####''''         
             ,#######,   #######,   ,#######,      ##                                
            ,#'     '#,  ##    ##  ,#'     '#,    #''#        ,####,   ,####,        
            ##       ##  ##   ,#'  ##            #'  '#       #'       #'  '#        
            ##       ##  #######   ##           ,######,      #####,   #    #        
            '#,     ,#'  ##    ##  '#,     ,#' ,#      #,     #,   #   #,  ,#        
             '#######'   ##     ##  '#######'  #'      '#     '####' # '####'        



                #########################################################
                #                        -***-                          #
                #          Department of theory and spectroscopy        #
                #                                                       #
                #                      Frank Neese                      #
                #                                                       #
                #     Directorship, Architecture, Infrastructure        #
                #                    SHARK, DRIVERS                     #
                #        Core code/Algorithms in most modules           #
                #                                                       #
                #        Max Planck Institute fuer Kohlenforschung      #
                #                Kaiser Wilhelm Platz 1                 #
                #                 D-45470 Muelheim/Ruhr                 #
                #                      Germany                          #
                #                                                       #
                #                  All rights reserved                  #
                #                        -***-                          #
                #########################################################


                         Program Version 6.0.1  -  RELEASE   -


 With contributions from (in alphabetic order):
[Max-Planck-Institut fuer Kohlenforschung]                               
  Daniel Aravena         : Magnetic Suceptibility                        
  Michael Atanasov       : Ab Initio Ligand Field Theory (pilot matlab implementation)
  Alexander A. Auer      : GIAO ZORA, VPT2 properties, NMR spectrum      
  Ute Becker             : All parallelization in ORCA, NUMFREQ, NUMCALC 
  Giovanni Bistoni       : ED, misc. LED, open-shell LED, HFLD           
  Martin Brehm           : Molecular dynamics                            
  Dmytro Bykov           : pre 5.0 version of the SCF Hessian            
  Marcos Casanova-Páez   : Triplet and SCS-CIS(D). UHF-(DLPNO)-IP/EA/STEOM-CCSD. UHF-CVS-IP/STEOM-CCSD   
  Vijay G. Chilkuri      : MRCI spin determinant printing, contributions to CSF-ICE 
  Pauline Colinet        : FMM embedding                                 
  Dipayan Datta          : RHF DLPNO-CCSD density                        
  Achintya Kumar Dutta   : EOM-CC, STEOM-CC                              
  Nicolas Foglia         : Exact transition moments, OPA infrastructure, MCD improvements    
  Dmitry Ganyushin       : Spin-Orbit,Spin-Spin,Magnetic field MRCI      
  Miquel Garcia-Rates    : C-PCM and meta-GGA Hessian, CCSD/C-PCM, Gaussian charge scheme 
  Tiago L. C. Gouveia    : GS-ROHF, GS-ROCIS                             
  Yang Guo               : DLPNO-NEVPT2, F12-NEVPT2, CIM, IAO-localization        
  Andreas Hansen         : Spin unrestricted coupled pair/coupled cluster methods 
  Ingolf Harden          : AUTO-CI MPn and infrastructure                
  Benjamin Helmich-Paris : MC-RPA, TRAH-(SCF,CASSCF), AVAS, COSX integrals, SCF dyn. polar. 
  Lee Huntington         : MR-EOM, pCC                                   
  Robert Izsak           : Overlap fitted RIJCOSX, COSX-SCS-MP3, EOM     
  Riya Kayal             : Wick's Theorem for AUTO-CI, AUTO-CI UHF-CCSDT 
  Emily Kempfer          : AUTO-CI, RHF CISDT and CCSDT                  
  Christian Kollmar      : KDIIS, OOCD, Brueckner-CCSD(T), CCSD density, CASPT2, CASPT2-K, improved NEVPT2 
  Axel Koslowski         : Symmetry handling                             
  Simone Kossmann        : meta-GGA functionals, TD-DFT gradient, OOMP2, (MP2 Hessian; deprecated post 5.0) 
  Lucas Lang             : DCDCAS                                        
  Marvin Lechner         : AUTO-CI (C++ implementation), FIC-MRCC        
  Spencer Leger          : CASSCF response                               
  Dagmar Lenk            : GEPOL surface, SMD, ORCA-2-JSON               
  Dimitrios Liakos       : Extrapolation schemes; Compound Job, initial MDCI parallelization 
  Dimitrios Manganas     : Further ROCIS development; embedding schemes. LFT, Crystal Embedding 
  Dimitrios Pantazis     : SARC Basis sets                               
  Anastasios Papadopoulos: AUTO-CI, single reference methods and gradients 
  Taras Petrenko         : pre 6.0 DFT Hessian and TD-DFT gradient, (ASA, deprecated), ECA, 1-Electron XAS/XES, NRVS 
  Peter Pinski           : DLPNO-MP2, DLPNO-MP2 Gradient                 
  Christoph Reimann      : Effective Core Potentials                     
  Marius Retegan         : Local ZFS, SOC                                
  Christoph Riplinger    : Optimizer, TS searches, QM/MM, DLPNO-CCSD(T), (RO)-DLPNO pert. Triples 
  Michael Roemelt        : Original ROCIS implementation                 
  Masaaki Saitow         : Open-shell DLPNO-CCSD energy and density      
  Barbara Sandhoefer     : DKH picture change effects                    
  Kantharuban Sivalingam : CASSCF convergence/infrastructure, NEVPT2 and variants, FIC-MRCI 
  Bernardo de Souza      : ESD, SOC TD-DFT                               
  Georgi L. Stoychev     : AutoAux, RI-MP2 NMR, DLPNO-MP2 response, X2C  
  Van Anh Tran           : RI-MP2 g-tensors                              
  Willem Van den Heuvel  : Paramagnetic NMR                              
  Zikuan Wang            : NOTCH, Electric field optimization            
  Frank Wennmohs         : Technical directorship and infrastructure     
  Hang Xu                : AUTO-CI-Response properties                   
                                                                         
[FACCTs GmbH]                                                            
  Markus Bursch, Miquel Garcia-Rates, Christoph Riplinger, Bernardo de Souza, Georgi L. Stoychev 
                                                                 
  APM, Basis sets (HGBS, AHGBS, def-TZVP (Ac-Lr), def2-XVPD (La-Lu)), CI-OPT, improved COSX, DLPNO-Multilevel,           
  DOCKER, DRACO, updates on ESD, GOAT, IRC, LR-CPCM, MBIS, meta-GGA TD-DFT gradient, ML-optimized integration grids, 
  MM, NACMEs, nearIR, NEB, NEB-TS, NL-DFT gradient (VV10), 2- and 3-layer-ONIOM, interface openCOSMO-RS, QMMM,   
  Crystal-QMMM, SF, symmetry and pop. for TD-DFT, r2SCAN hybrids, SOLVATOR                                   
                                                                         
[Other institutions]                                                     
  V. Asgeirsson          : NEB                                           
  Christoph Bannwarth    : sTDA-DFT, sTD-DFT, PBEh-3c, B97-3c, D3        
  Sebastian Ehlert       : rSCAN, r2SCAN, r2SCAN-3c, D4, dhf basis sets  
  Marvin Friede          : D4 for Fr, Ra, Ac-Lr                          
  Lars Goerigk           : TD-DFT with DH, B97 family of functionals     
  Stefan Grimme          : VdW corrections, initial TS optimization, DFT functionals, gCP, sTDA/sTD-DF 
  Waldemar Hujo          : DFT-NL                                        
  H. Jonsson             : NEB                                           
  Holger Kruse           : gCP                                           
  Marcel Mueller         : wB97X-3c, vDZP basis set                      
  Hagen Neugebauer       : wr2SCAN                                       
  Tobias Risthaus        : range-separated hybrid DFT                    
  Lukas Wittmann         : regularized MP2, r2SCAN double-hybrids, wr2SCAN        
                                                                         
We gratefully acknowledge several colleagues who have allowed us to      
interface, adapt or use parts of their codes:                            
  Ed Valeev, F. Pavosevic, A. Kumar             : LibInt (2-el integral package), F12 methods 
  Garnet Chan, S. Sharma, J. Yang, R. Olivares  : DMRG                   
  Ulf Ekstrom                                   : XCFun DFT Library      
  Mihaly Kallay                                 : mrcc  (arbitrary order and MRCC methods)
  Frank Weinhold                                : gennbo (NPA and NBO analysis)           
  Simon Mueller                                 : openCOSMO-RS                            
  Christopher J. Cramer and Donald G. Truhlar   : smd solvation model                     
  S Lehtola, MJT Oliveira, MAL Marques          : LibXC Library                           
  Liviu Ungur et al                             : ANISO software                          


 Your calculation uses the libint2 library for the computation of 2-el integrals
 For citations please refer to: http://libint.valeyev.net

 Your ORCA version has been built with support for libXC version: 6.2.2
 For citations please refer to: https://libxc.gitlab.io

 This ORCA versions uses:
   CBLAS   interface :  Fast vector & matrix operations
   LAPACKE interface :  Fast linear algebra routines
   SCALAPACK package :  Parallel linear algebra routines
   Shared memory     :  Shared parallel matrices
   BLAS/LAPACK       :  OpenBLAS 0.3.27  USE64BITINT DYNAMIC_ARCH NO_AFFINITY Zen SINGLE_THREADED
        Core in use  :  Zen
   Copyright (c) 2011-2014, The OpenBLAS Project


Your calculation utilizes the geometrical counterpoise correction gCP
Please cite in your paper:
H.Kruse, S. Grimme J.Chem.Phys., 136, (2012), 154101 
   

Your calculation utilizes the atom-pairwise dispersion correction
based on EEQ partial charges (D4)


================================================================================

----- Orbital basis set information -----
Your calculation utilizes the basis: def2-mTZVPP
   Stefan Grimme, Andreas Hansen, Sebastian Ehlert, and Jan-Michael Mewes 
   J. Chem. Phys. 154, 064103 (2021). DOI: 10.1063/5.0040021

----- AuxJ basis set information -----
Your calculation utilizes the auxiliary basis: def2/J
   F. Weigend, Phys. Chem. Chem. Phys. 8, 1057 (2006).

================================================================================
                                        WARNINGS
                       Please study these warnings very carefully!
================================================================================

WARNING: Old DensityContainer found on disk!
         Will remove this file - 
         If you want to keep old densities, please start your calculation with a different basename. 



WARNING: SCAN, rSCAN, or r2SCAN functional requested.
  ===> : libXC variant has now been activated.



================================================================================
                                       INPUT FILE
================================================================================
NAME = sp.inp
|  1> ! r2scan-3c def2/J RI DEFGRID2 scfconv6 printgap
|  2> %output
|  3>     printlevel normal
|  4> end
|  5> * xyz 0 1
|  6> C 0.8896964283 1.3353448945 -0.6890456343
|  7> C 1.5872877589 0.1486813985 -0.0240634158
|  8> H 2.6043812823 0.026272274 -0.4132570663
|  9> C 0.777566071 -1.1252753304 -0.3424347407
| 10> H 1.2023912456 -1.9638476434 0.2322834891
| 11> C -0.6831958106 -0.9250806591 0.100689203
| 12> H -1.3139932094 -1.7306618648 -0.2982061981
| 13> C -1.2499583366 0.4172509776 -0.4333607105
| 14> H -1.3605460972 0.3671460523 -1.5278492892
| 15> O -0.3822973973 1.4939050044 -0.105757739
| 16> O -2.487523601 0.6642231802 0.1060847546
| 17> O -0.8141597485 -0.9758973617 1.499991754
| 18> O 0.8870959087 -1.3529427118 -1.7253260253
| 19> O 1.6447860976 0.3458876653 1.3750497861
| 20> H 0.8145780899 1.1642747897 -1.7693523606
| 21> H 1.4316073216 2.2645052483 -0.4983234875
| 22> H -2.4412500013 0.447930487 1.0513927883
| 23> H -0.0213092403 -0.5669074879 1.8854568031
| 24> H 0.4495975932 -2.1832082514 -1.9445524192
| 25> H 1.176064893 1.1703066724 1.5698008219
| 26> *
| 27> 
| 28>                          ****END OF INPUT****
================================================================================

                       ****************************
                       * Single Point Calculation *
                       ****************************

---------------------------------
CARTESIAN COORDINATES (ANGSTROEM)
---------------------------------
  C      0.889696    1.335345   -0.689046
  C      1.587288    0.148681   -0.024063
  H      2.604381    0.026272   -0.413257
  C      0.777566   -1.125275   -0.342435
  H      1.202391   -1.963848    0.232283
  C     -0.683196   -0.925081    0.100689
  H     -1.313993   -1.730662   -0.298206
  C     -1.249958    0.417251   -0.433361
  H     -1.360546    0.367146   -1.527849
  O     -0.382297    1.493905   -0.105758
  O     -2.487524    0.664223    0.106085
  O     -0.814160   -0.975897    1.499992
  O      0.887096   -1.352943   -1.725326
  O      1.644786    0.345888    1.375050
  H      0.814578    1.164275   -1.769352
  H      1.431607    2.264505   -0.498323
  H     -2.441250    0.447930    1.051393
  H     -0.021309   -0.566907    1.885457
  H      0.449598   -2.183208   -1.944552
  H      1.176065    1.170307    1.569801

----------------------------
CARTESIAN COORDINATES (A.U.)
----------------------------
  NO LB      ZA    FRAG     MASS         X           Y           Z
   0 C     6.0000    0    12.011    1.681283    2.523436   -1.302108
   1 C     6.0000    0    12.011    2.999539    0.280967   -0.045473
   2 H     1.0000    0     1.008    4.921567    0.049647   -0.780943
   3 C     6.0000    0    12.011    1.469387   -2.126462   -0.647108
   4 H     1.0000    0     1.008    2.272190   -3.711134    0.438952
   5 C     6.0000    0    12.011   -1.291053   -1.748149    0.190275
   6 H     1.0000    0     1.008   -2.483087   -3.270477   -0.563528
   7 C     6.0000    0    12.011   -2.362079    0.788490   -0.818933
   8 H     1.0000    0     1.008   -2.571060    0.693805   -2.887217
   9 O     8.0000    0    15.999   -0.722437    2.823071   -0.199853
  10 O     8.0000    0    15.999   -4.700738    1.255200    0.200471
  11 O     8.0000    0    15.999   -1.538539   -1.844179    2.834574
  12 O     8.0000    0    15.999    1.676368   -2.556691   -3.260394
  13 O     8.0000    0    15.999    3.108195    0.653633    2.598468
  14 H     1.0000    0     1.008    1.539330    2.200160   -3.343591
  15 H     1.0000    0     1.008    2.705346    4.279295   -0.941695
  16 H     1.0000    0     1.008   -4.613294    0.846466    1.986844
  17 H     1.0000    0     1.008   -0.040269   -1.071300    3.562997
  18 H     1.0000    0     1.008    0.849616   -4.125666   -3.674672
  19 H     1.0000    0     1.008    2.222441    2.211559    2.966494

--------------------------------
INTERNAL COORDINATES (ANGSTROEM)
--------------------------------
 C      0   0   0     0.000000000000     0.00000000     0.00000000
 C      1   0   0     1.528726681977     0.00000000     0.00000000
 H      2   1   0     1.095871765624   110.83880805     0.00000000
 C      2   1   3     1.542716843586   108.16377965   240.85360727
 H      4   2   1     1.101808058043   108.57087120   186.80444571
 C      4   2   1     1.539565526580   109.34304888   304.82261624
 H      6   4   2     1.098173018394   110.18601695   168.53378668
 C      6   4   2     1.551864457314   111.09689311    49.57788678
 H      8   6   4     1.101201800416   109.83765107    68.69585342
 O      1   2   3     1.408309046204   108.62582202   183.11326297
 O      8   6   4     1.372430130216   110.46992656   187.67567333
 O      6   4   2     1.406336204301   111.71829673   286.51555070
 O      4   2   1     1.405780042156   107.20869837    66.70972289
 O      2   1   3     1.414112485748   109.91828454   120.83727256
 H      1   2   3     1.096344092158   109.80202442    61.14899272
 H      1   2   3     1.092419936028   110.97291432   299.57547069
 H     11   8   6     0.970840385305   107.43660120    43.34636038
 H     12   6   4     0.971837408882   107.66623992    35.85252159
 H     13   4   2     0.963745741415   109.14261010   175.48137392
 H     14   2   1     0.968139573024   107.34318643     3.25464262

---------------------------
INTERNAL COORDINATES (A.U.)
---------------------------
 C      0   0   0     0.000000000000     0.00000000     0.00000000
 C      1   0   0     2.888874762555     0.00000000     0.00000000
 H      2   1   0     2.070897514927   110.83880805     0.00000000
 C      2   1   3     2.915312336565   108.16377965   240.85360727
 H      4   2   1     2.082115481849   108.57087120   186.80444571
 C      4   2   1     2.909357210462   109.34304888   304.82261624
 H      6   4   2     2.075246252426   110.18601695   168.53378668
 C      6   4   2     2.932598821289   111.09689311    49.57788678
 H      8   6   4     2.080969820967   109.83765107    68.69585342
 O      1   2   3     2.661318409249   108.62582202   183.11326297
 O      8   6   4     2.593517084049   110.46992656   187.67567333
 O      6   4   2     2.657590278348   111.71829673   286.51555070
 O      4   2   1     2.656539284206   107.20869837    66.70972289
 O      2   1   3     2.672285320623   109.91828454   120.83727256
 H      1   2   3     2.071790082721   109.80202442    61.14899272
 H      1   2   3     2.064374502328   110.97291432   299.57547069
 H     11   8   6     1.834622447977   107.43660120    43.34636038
 H     12   6   4     1.836506549486   107.66623992    35.85252159
 H     13   4   2     1.821215514007   109.14261010   175.48137392
 H     14   2   1     1.829518652426   107.34318643     3.25464262

---------------------
BASIS SET INFORMATION
---------------------
There are 3 groups of distinct atoms

 Group   1 Type C   : 11s6p1d contracted to 5s3p1d pattern {62111/411/1}
 Group   2 Type H   : 4s1p contracted to 2s1p pattern {31/1}
 Group   3 Type O   : 11s6p2d contracted to 5s3p2d pattern {62111/411/11}

Atom   0C    basis set group =>   1
Atom   1C    basis set group =>   1
Atom   2H    basis set group =>   2
Atom   3C    basis set group =>   1
Atom   4H    basis set group =>   2
Atom   5C    basis set group =>   1
Atom   6H    basis set group =>   2
Atom   7C    basis set group =>   1
Atom   8H    basis set group =>   2
Atom   9O    basis set group =>   3
Atom  10O    basis set group =>   3
Atom  11O    basis set group =>   3
Atom  12O    basis set group =>   3
Atom  13O    basis set group =>   3
Atom  14H    basis set group =>   2
Atom  15H    basis set group =>   2
Atom  16H    basis set group =>   2
Atom  17H    basis set group =>   2
Atom  18H    basis set group =>   2
Atom  19H    basis set group =>   2
---------------------------------
AUXILIARY/J BASIS SET INFORMATION
---------------------------------
There are 3 groups of distinct atoms

 Group   1 Type C   : 12s5p4d2f1g contracted to 6s4p3d1f1g pattern {711111/2111/211/2/1}
 Group   2 Type H   : 5s2p1d contracted to 3s1p1d pattern {311/2/1}
 Group   3 Type O   : 12s5p4d2f1g contracted to 6s4p3d1f1g pattern {711111/2111/211/2/1}

Atom   0C    basis set group =>   1
Atom   1C    basis set group =>   1
Atom   2H    basis set group =>   2
Atom   3C    basis set group =>   1
Atom   4H    basis set group =>   2
Atom   5C    basis set group =>   1
Atom   6H    basis set group =>   2
Atom   7C    basis set group =>   1
Atom   8H    basis set group =>   2
Atom   9O    basis set group =>   3
Atom  10O    basis set group =>   3
Atom  11O    basis set group =>   3
Atom  12O    basis set group =>   3
Atom  13O    basis set group =>   3
Atom  14H    basis set group =>   2
Atom  15H    basis set group =>   2
Atom  16H    basis set group =>   2
Atom  17H    basis set group =>   2
Atom  18H    basis set group =>   2
Atom  19H    basis set group =>   2

Checking for AutoStart:
The File: sp.gbw exists
Trying to determine its content:
     ... Fine, the file contains calculation information
     ... Fine, the calculation information was read
     ... Fine, the file contains a basis set
     ... Fine, the basis set was read
     ... Fine, the file contains a geometry
     ... Fine, the geometry was read
     ... Fine, the file contains a set of orbitals
     ... Fine, the orbitals can be read
     => possible old guess file was deleted
     => GBW file was renamed to GES file
     => GES file is set as startup file
     => Guess is set to MORead
     ... now leaving AutoStart

------------------------------------------------------------------------------
                             ORCA STARTUP CALCULATIONS
                           -- RI-GTO INTEGRALS CHOSEN --
------------------------------------------------------------------------------
------------------------------------------------------------------------------
                   ___                                                        
                  /   \      - P O W E R E D   B Y -                         
                 /     \                                                     
                 |  |  |   _    _      __       _____    __    __             
                 |  |  |  | |  | |    /  \     |  _  \  |  |  /  |          
                  \  \/   | |  | |   /    \    | | | |  |  | /  /          
                 / \  \   | |__| |  /  /\  \   | |_| |  |  |/  /          
                |  |  |   |  __  | /  /__\  \  |    /   |      \           
                |  |  |   | |  | | |   __   |  |    \   |  |\   \          
                \     /   | |  | | |  |  |  |  | |\  \  |  | \   \       
                 \___/    |_|  |_| |__|  |__|  |_| \__\ |__|  \__/        
                                                                              
                      - O R C A' S   B I G   F R I E N D -                    
                                      &                                       
                       - I N T E G R A L  F E E D E R -                       
                                                                              
 v1 FN, 2020, v2 2021, v3 2022-2024                                           
------------------------------------------------------------------------------


----------------------
SHARK INTEGRAL PACKAGE
----------------------

Number of atoms                             ...     20
Number of basis functions                   ...    265
Number of shells                            ...    125
Maximum angular momentum                    ...      2
Integral batch strategy                     ... SHARK/LIBINT Hybrid
RI-J (if used) integral strategy            ... SPLIT-RIJ (Revised 2003 algorithm where possible)
Printlevel                                  ...      1
Contraction scheme used                     ... SEGMENTED contraction
Prescreening option                         ... SCHWARTZ
   Thresh                                   ... 1.000e-10
   Tcut                                     ... 1.000e-11
   Tpresel                                  ... 1.000e-11 
Coulomb Range Separation                    ... NOT USED
Exchange Range Separation                   ... NOT USED
Multipole approximations                    ... NOT USED
Finite Nucleus Model                        ... NOT USED
CABS basis                                  ... NOT available
Auxiliary Coulomb fitting basis             ... AVAILABLE
   # of basis functions in Aux-J            ...    600
   # of shells in Aux-J                     ...    200
   Maximum angular momentum in Aux-J        ...      4
Auxiliary J/K fitting basis                 ... NOT available
Auxiliary Correlation fitting basis         ... NOT available
Auxiliary 'external' fitting basis          ... NOT available

Checking pre-screening integrals            ... done (  0.0 sec) Dimension = 125
Check shell pair data                       ... done (  0.0 sec)
Shell pair information
Shell pair cut-off parameter TPreSel        ...   1.0e-11
Total number of shell pairs                 ...      7875
Shell pairs after pre-screening             ...      7186
Total number of primitive shell pairs       ...     27980
Primitive shell pairs kept                  ...     17940
          la=0 lb=0:   2171 shell pairs
          la=1 lb=0:   2558 shell pairs
          la=1 lb=1:    778 shell pairs
          la=2 lb=0:    985 shell pairs
          la=2 lb=1:    576 shell pairs
          la=2 lb=2:    118 shell pairs

Calculating one electron integrals          ... done (  0.0 sec)
Calculating RI/J V-Matrix + Cholesky decomp.... done (  0.0 sec)
Calculating Nuclear repulsion               ... done (  0.0 sec) ENN=    638.930983075549 Eh

Diagonalization of the overlap matrix:
Smallest eigenvalue                        ... 5.906e-05
Time for diagonalization                   ...    0.010 sec
Threshold for overlap eigenvalues          ... 1.000e-07
Number of eigenvalues below threshold      ... 0
Time for construction of square roots      ...    0.003 sec
Total time needed                          ...    0.017 sec

-------------------
DFT GRID GENERATION
-------------------

General Integration Accuracy     IntAcc      ... 4.388
Radial Grid Type                 RadialGrid  ... OptM3 with GC (2021)
Angular Grid (max. ang.)         AngularGrid ... 4 (Lebedev-302)
Angular grid pruning method      GridPruning ... 4 (adaptive)
Weight generation scheme         WeightScheme... mBecke (2022)
Basis function cutoff            BFCut       ... 1.0000e-10
Integration weight cutoff        WCut        ... 1.0000e-14
Partially contracted basis set               ... off
Rotationally invariant grid construction     ... off
Angular grids for H and He will be reduced by one unit
Diffuse basis detected: some atoms will have their outermost
                        angular grid increased by 1.

Total number of grid points                  ...    93331
Total number of batches                      ...     1468
Average number of points per batch           ...       63
Average number of grid points per atom       ...     4667
Initializing property integral containers    ... done (  0.0 sec)

SHARK setup successfully completed in   1.2 seconds

Maximum memory used throughout the entire STARTUP-calculation: 46.1 MB
-------------------------------------------------------------------------------
                                 ORCA GUESS
                   Start orbitals & Density for SCF / CASSCF
-------------------------------------------------------------------------------

------------
SCF SETTINGS
------------
Hamiltonian:
 Density Functional     Method          .... DFT(GTOs)
  Functional kind                       .... Exchange
  Functional name                       .... Re-regularized SCAN exchange by Furness et al
  Functional family                     .... MGGA
  Functional refs                              
    [ 0] J. W. Furness, A. D. Kaplan, J. Ning, J. P. Perdew, and J. Sun.,  J. Phys. Chem. Lett. 11, 8208-8215 (2020), doi: 10.1021/acs.jpclett.0c02405
    [ 1] J. W. Furness, A. D. Kaplan, J. Ning, J. P. Perdew, and J. Sun.,  J. Phys. Chem. Lett. 11, 9248-9248 (2020), doi: 10.1021/acs.jpclett.0c03077
  Functional external parameters        .... 6
    Parameter  0 _c1        =  6.670000e-01 : c1 parameter        
    Parameter  1 _c2        =  8.000000e-01 : c2 parameter        
    Parameter  2 _d         =  1.240000e+00 : d parameter         
    Parameter  3 _k1        =  6.500000e-02 : k1 parameter        
    Parameter  4 _eta       =  1.000000e-03 : eta parameter       
    Parameter  5 _dp2       =  3.610000e-01 : dp2 parameter       
  Functional kind                       .... Correlation
  Functional name                       .... Re-regularized SCAN correlation by Furness et al
  Functional family                     .... MGGA
  Functional refs                              
    [ 0] J. W. Furness, A. D. Kaplan, J. Ning, J. P. Perdew, and J. Sun.,  J. Phys. Chem. Lett. 11, 8208-8215 (2020), doi: 10.1021/acs.jpclett.0c02405
    [ 1] J. W. Furness, A. D. Kaplan, J. Ning, J. P. Perdew, and J. Sun.,  J. Phys. Chem. Lett. 11, 9248-9248 (2020), doi: 10.1021/acs.jpclett.0c03077
  Functional external parameters        .... 1
    Parameter  0 _eta       =  1.000000e-03 : Regularization parameter
 Gradients option       PostSCFGGA      .... off
 RI-approximation to the Coulomb term is turned on
   Number of AuxJ basis functions       .... 600


General Settings:
 Integral files         IntName         .... sp
 Hartree-Fock type      HFTyp           .... RHF
 Total Charge           Charge          ....    0
 Multiplicity           Mult            ....    1
 Number of Electrons    NEL             ....   80
 Basis Dimension        Dim             ....  265
 Nuclear Repulsion      ENuc            ....    638.9309830755 Eh

Convergence Acceleration:
 AO-DIIS                CNVDIIS         .... on
   Start iteration      DIISMaxIt       ....    12
   Startup error        DIISStart       ....  0.200000
   # of expansion vecs  DIISMaxEq       ....     5
   Bias factor          DIISBfac        ....   1.050
   Max. coefficient     DIISMaxC        ....  10.000
 MO-DIIS                CNVKDIIS        .... off
 Trust-Rad. Augm. Hess. CNVTRAH         .... auto
   Auto Start mean grad. ratio tolernc. ....  1.125000
   Auto Start start iteration           ....     1
   Auto Start num. interpolation iter.  ....    10
   Max. Number of Micro iterations      ....    24
   Max. Number of Macro iterations      .... Maxiter - #DIIS iter
   Number of Davidson start vectors     ....     2
   Converg. threshold    (grad. norm)   ....   3.330e-04
   Grad. Scal. Fac. for Micro threshold ....   0.100
   Minimum threshold for Micro iter.    ....   1.000e-02
   NR start threshold (gradient norm)   ....   1.000e-04
   Initial trust radius                 ....   0.400
   Minimum AH scaling param. (alpha)    ....   1.000
   Maximum AH scaling param. (alpha)    .... 1000.000
   Quad. conv. algorithm                .... NR
   White noise on init. David. guess    .... on
   Maximum white noise                  ....   0.010
   Pseudo random numbers                .... off
   Inactive MOs                         .... canonical
   Orbital update algorithm             .... Taylor
   Preconditioner                       .... Diag
   Full preconditioner red. dimension   ....   250
   COSX micro iterations for RIJONX calc.... off
 SOSCF                  CNVSOSCF        .... on
   Start iteration      SOSCFMaxIt      ....   150
   Startup grad/error   SOSCFStart      ....  0.003300
   Hessian update       SOSCFHessUp     .... L-BFGS
 Level Shifting         CNVShift        .... on
   Level shift para.    LevelShift      ....    0.2500
   Turn off err/grad.   ShiftErr        ....    0.0010
 Zerner damping         CNVZerner       .... off
 Static damping         CNVDamp         .... on
   Fraction old density DampFac         ....    0.7000
   Max. Damping (<1)    DampMax         ....    0.9800
   Min. Damping (>=0)   DampMin         ....    0.0000
   Turn off err/grad.   DampErr         ....    0.1000

SCF Procedure:
 Maximum # iterations   MaxIter         ....   125
 SCF integral mode      SCFMode         .... Direct
   Integral package                     .... SHARK and LIBINT hybrid scheme
 Reset frequency        DirectResetFreq ....    20
 Integral Threshold     Thresh          ....  1.000e-10 Eh
 Primitive CutOff       TCut            ....  1.000e-11 Eh

Convergence Tolerance:
 Convergence Check Mode ConvCheckMode   .... Total+1el-Energy
 Convergence forced     ConvForced      .... 0
 Energy Change          TolE            ....  1.000e-06 Eh
 1-El. energy change                    ....  1.000e-03 Eh
 Orbital Gradient       TolG            ....  3.330e-04
 Orbital Rotation angle TolX            ....  3.330e-04
 DIIS Error             TolErr          ....  1.000e-06

---------------------
INITIAL GUESS: MOREAD
---------------------
Guess MOs are being read from file: sp.ges
Input Geometry matches current geometry (good)
Atom 0: N(Shells)= 9 and 6 - projection required
Input basis set needs projection
NBasis(read)= 160
NBasis(calc)= 265
Basis set overlap was calculated
Using GuessMode=FMatrix for the initial guess
C*T matrix was formed
Effective Fockian was calculated
Effective Fockian was diagonalized
Initial density was built
                      ------------------
                      INITIAL GUESS DONE (   0.0 sec)
                      ------------------
             **** ENERGY FILE WAS UPDATED (sp.en.tmp) ****
Finished Guess after   0.1 sec
Maximum memory used throughout the entire GUESS-calculation: 21.8 MB

-------------------------------------------------------------------------------------------
                                      ORCA LEAN-SCF
                              memory conserving SCF solver
-------------------------------------------------------------------------------------------

----------------------------------------D-I-I-S--------------------------------------------
Iteration    Energy (Eh)           Delta-E    RMSDP     MaxDP     DIISErr   Damp  Time(sec)
-------------------------------------------------------------------------------------------
               ***  Starting incremental Fock matrix formation  ***
    1    -572.2431925180649159     0.00e+00  8.41e-03  5.84e-01  6.30e-01  0.700   4.6
    2    -572.3412616032783262    -9.81e-02  6.39e-03  4.06e-01  4.43e-01  0.700   4.1
    3    -572.4106702415340351    -6.94e-02  4.57e-03  2.78e-01  3.10e-01  0.700   4.1
    4    -572.4594061750458422    -4.87e-02  3.22e-03  1.92e-01  2.17e-01  0.700   4.2
                               ***Turning on AO-DIIS***
    5    -572.4935987656926955    -3.42e-02  2.29e-03  1.34e-01  1.52e-01  0.700   4.5
    6    -572.5175724294083466    -2.40e-02  1.61e-03  9.28e-02  1.06e-01  0.700   3.9
    7    -572.5343837411664936    -1.68e-02  1.13e-03  6.45e-02  7.45e-02  0.700   3.8
    8    -572.5461658952567632    -1.18e-02  2.64e-03  1.50e-01  5.22e-02  0.000   3.7
                              *** Initializing SOSCF ***
---------------------------------------S-O-S-C-F--------------------------------------
Iteration    Energy (Eh)           Delta-E    RMSDP     MaxDP     MaxGrad    Time(sec)
--------------------------------------------------------------------------------------
    9    -572.5737024435015883    -2.75e-02  1.28e-05  2.92e-04  1.57e-04     4.1
               *** Restarting incremental Fock matrix formation ***
   10    -572.5737026461331425    -2.03e-07  1.03e-05  4.75e-04  1.53e-05     4.5
                  *** Gradient check signals convergence ***

               *****************************************************
               *                     SUCCESS                       *
               *           SCF CONVERGED AFTER  10 CYCLES          *
               *****************************************************

             **** ENERGY FILE WAS UPDATED (sp.en.tmp) ****

----------------
TOTAL SCF ENERGY
----------------

Total Energy       :       -572.57370264613314 Eh          -15580.52255 eV

Components:
Nuclear Repulsion  :        638.93098307554919 Eh           17386.19595 eV
Electronic Energy  :      -1211.50468572168234 Eh          -32966.71849 eV
One Electron Energy:      -2052.65979653128716 Eh          -55855.71271 eV
Two Electron Energy:        841.15511080960482 Eh           22888.99422 eV

Virial components:
Potential Energy   :      -1142.96375318129503 Eh          -31101.62490 eV
Kinetic Energy     :        570.39005053516200 Eh           15521.10235 eV
Virial Ratio       :          2.00382834887972

DFT components:
N(Alpha)           :       39.999967116079 electrons
N(Beta)            :       39.999967116079 electrons
N(Total)           :       79.999934232157 electrons
E(X)               :      -71.074438312105 Eh       
E(C)               :       -2.665313650668 Eh       
E(XC)              :      -73.739751962773 Eh       

---------------
SCF CONVERGENCE
---------------

  Last Energy change         ...    2.0263e-07  Tolerance :   1.0000e-06
  Last MAX-Density change    ...    4.7486e-04  Tolerance :   1.0000e-05
  Last RMS-Density change    ...    1.0325e-05  Tolerance :   1.0000e-06
  Last DIIS Error            ...    1.5696e-04  Tolerance :   1.0000e-06
  Last Orbital Gradient      ...    1.5271e-05  Tolerance :   3.3300e-04
  Last Orbital Rotation      ...    3.3042e-05  Tolerance :   3.3300e-04


----------------
ORBITAL ENERGIES
----------------

  NO   OCC          E(Eh)            E(eV) 
   0   2.0000     -18.978516      -516.4317 
   1   2.0000     -18.976110      -516.3662 
   2   2.0000     -18.969278      -516.1803 
   3   2.0000     -18.959813      -515.9227 
   4   2.0000     -18.958489      -515.8867 
   5   2.0000     -10.133078      -275.7351 
   6   2.0000     -10.101386      -274.8727 
   7   2.0000     -10.101201      -274.8676 
   8   2.0000     -10.092996      -274.6444 
   9   2.0000     -10.092703      -274.6364 
  10   2.0000      -1.053386       -28.6641 
  11   2.0000      -1.021141       -27.7867 
  12   2.0000      -1.012651       -27.5556 
  13   2.0000      -0.998317       -27.1656 
  14   2.0000      -0.978685       -26.6314 
  15   2.0000      -0.751616       -20.4525 
  16   2.0000      -0.718517       -19.5518 
  17   2.0000      -0.638592       -17.3770 
  18   2.0000      -0.616830       -16.7848 
  19   2.0000      -0.568642       -15.4735 
  20   2.0000      -0.527542       -14.3551 
  21   2.0000      -0.514570       -14.0022 
  22   2.0000      -0.485473       -13.2104 
  23   2.0000      -0.478627       -13.0241 
  24   2.0000      -0.454245       -12.3606 
  25   2.0000      -0.448232       -12.1970 
  26   2.0000      -0.438085       -11.9209 
  27   2.0000      -0.416812       -11.3420 
  28   2.0000      -0.394250       -10.7281 
  29   2.0000      -0.379474       -10.3260 
  30   2.0000      -0.356303        -9.6955 
  31   2.0000      -0.341100        -9.2818 
  32   2.0000      -0.333108        -9.0643 
  33   2.0000      -0.317991        -8.6530 
  34   2.0000      -0.304218        -8.2782 
  35   2.0000      -0.279770        -7.6129 
  36   2.0000      -0.275154        -7.4873 
  37   2.0000      -0.262970        -7.1558 
  38   2.0000      -0.250614        -6.8195 
  39   2.0000      -0.223047        -6.0694 
  40   0.0000       0.024705         0.6722 
  41   0.0000       0.049099         1.3360 
  42   0.0000       0.069648         1.8952 
  43   0.0000       0.091553         2.4913 
  44   0.0000       0.096693         2.6312 
  45   0.0000       0.107229         2.9178 
  46   0.0000       0.114029         3.1029 
  47   0.0000       0.120155         3.2696 
  48   0.0000       0.128451         3.4953 
  49   0.0000       0.142320         3.8727 
  50   0.0000       0.153490         4.1767 
*Only the first 10 virtual orbitals were printed.

                    ********************************
                    * MULLIKEN POPULATION ANALYSIS *
                    ********************************

-----------------------
MULLIKEN ATOMIC CHARGES
-----------------------
   0 C :   -0.302194
   1 C :    0.047133
   2 H :    0.164390
   3 C :   -0.075117
   4 H :    0.156298
   5 C :   -0.003532
   6 H :    0.154343
   7 C :   -0.031261
   8 H :    0.145382
   9 O :   -0.224845
  10 O :   -0.375258
  11 O :   -0.422958
  12 O :   -0.409414
  13 O :   -0.456159
  14 H :    0.174581
  15 H :    0.164413
  16 H :    0.325315
  17 H :    0.332016
  18 H :    0.299244
  19 H :    0.337624
Sum of atomic charges:   -0.0000000

--------------------------------
MULLIKEN REDUCED ORBITAL CHARGES
--------------------------------
  0 C s       :     3.351802  s :     3.351802
      pz      :     1.041586  p :     2.893134
      px      :     0.791973
      py      :     1.059576
      dz2     :     0.013783  d :     0.057258
      dxz     :     0.011835
      dyz     :     0.004727
      dx2y2   :     0.012006
      dxy     :     0.014906

  1 C s       :     3.140909  s :     3.140909
      pz      :     0.737358  p :     2.746444
      px      :     1.096281
      py      :     0.912805
      dz2     :     0.019093  d :     0.065513
      dxz     :     0.014697
      dyz     :     0.013226
      dx2y2   :     0.009475
      dxy     :     0.009022

  2 H s       :     0.818489  s :     0.818489
      pz      :     0.003277  p :     0.017121
      px      :     0.010425
      py      :     0.003419

  3 C s       :     3.246585  s :     3.246585
      pz      :     0.774310  p :     2.761777
      px      :     0.942077
      py      :     1.045389
      dz2     :     0.018556  d :     0.066756
      dxz     :     0.015173
      dyz     :     0.013834
      dx2y2   :     0.009452
      dxy     :     0.009742

  4 H s       :     0.826756  s :     0.826756
      pz      :     0.004799  p :     0.016947
      px      :     0.004423
      py      :     0.007725

  5 C s       :     3.141786  s :     3.141786
      pz      :     0.766681  p :     2.795848
      px      :     0.990069
      py      :     1.039099
      dz2     :     0.018629  d :     0.065897
      dxz     :     0.013419
      dyz     :     0.016392
      dx2y2   :     0.008089
      dxy     :     0.009368

  6 H s       :     0.828641  s :     0.828641
      pz      :     0.003176  p :     0.017016
      px      :     0.006172
      py      :     0.007668

  7 C s       :     3.310355  s :     3.310355
      pz      :     1.020116  p :     2.627523
      px      :     0.744216
      py      :     0.863192
      dz2     :     0.019182  d :     0.093383
      dxz     :     0.015123
      dyz     :     0.009983
      dx2y2   :     0.021931
      dxy     :     0.027164

  8 H s       :     0.838013  s :     0.838013
      pz      :     0.011977  p :     0.016605
      px      :     0.002071
      py      :     0.002558

  9 O s       :     3.721088  s :     3.721088
      pz      :     1.740214  p :     4.482265
      px      :     1.175639
      py      :     1.566412
      dz2     :     0.003604  d :     0.021492
      dxz     :    -0.000391
      dyz     :     0.002147
      dx2y2   :     0.007646
      dxy     :     0.008486

 10 O s       :     3.741671  s :     3.741671
      pz      :     1.337832  p :     4.612472
      px      :     1.430161
      py      :     1.844479
      dz2     :     0.006674  d :     0.021115
      dxz     :     0.002350
      dyz     :     0.001712
      dx2y2   :     0.008115
      dxy     :     0.002265

 11 O s       :     3.754729  s :     3.754729
      pz      :     1.229147  p :     4.659091
      px      :     1.615478
      py      :     1.814466
      dz2     :    -0.000685  d :     0.009139
      dxz     :    -0.000353
      dyz     :    -0.001459
      dx2y2   :     0.003248
      dxy     :     0.008387

 12 O s       :     3.761679  s :     3.761679
      pz      :     1.324845  p :     4.631544
      px      :     1.801778
      py      :     1.504921
      dz2     :     0.004563  d :     0.016191
      dxz     :     0.002350
      dyz     :    -0.000708
      dx2y2   :     0.004768
      dxy     :     0.005218

 13 O s       :     3.761988  s :     3.761988
      pz      :     1.328299  p :     4.679181
      px      :     1.794372
      py      :     1.556509
      dz2     :     0.000970  d :     0.014991
      dxz     :    -0.002453
      dyz     :     0.001517
      dx2y2   :     0.009103
      dxy     :     0.005855

 14 H s       :     0.808057  s :     0.808057
      pz      :     0.011485  p :     0.017362
      px      :     0.002267
      py      :     0.003610

 15 H s       :     0.818350  s :     0.818350
      pz      :     0.003319  p :     0.017238
      px      :     0.004568
      py      :     0.009351

 16 H s       :     0.631713  s :     0.631713
      pz      :     0.022195  p :     0.042972
      px      :     0.008360
      py      :     0.012417

 17 H s       :     0.623128  s :     0.623128
      pz      :     0.009674  p :     0.044856
      px      :     0.020945
      py      :     0.014237

 18 H s       :     0.657094  s :     0.657094
      pz      :     0.008953  p :     0.043663
      px      :     0.014678
      py      :     0.020032

 19 H s       :     0.619534  s :     0.619534
      pz      :     0.008266  p :     0.042842
      px      :     0.014835
      py      :     0.019741


------------------------
MULLIKEN OVERLAP CHARGES
------------------------
B(  0-C ,  2-H ) :  -0.0748 B(  0-C ,  3-C ) :   0.1686 B(  0-C ,  5-C ) :  -0.0525 
B(  0-C ,  7-C ) :  -0.4795 B(  0-C ,  9-O ) :   0.4276 B(  0-C , 12-O ) :   0.0629 
B(  0-C , 13-O ) :  -0.0606 B(  0-C , 14-H ) :   0.8298 B(  0-C , 15-H ) :   0.8214 
B(  1-C ,  2-H ) :   0.8185 B(  1-C ,  3-C ) :  -0.1134 B(  1-C ,  4-H ) :  -0.0996 
B(  1-C ,  5-C ) :   0.1283 B(  1-C ,  7-C ) :   0.1041 B(  1-C ,  9-O ) :  -0.2511 
B(  1-C , 12-O ) :  -0.0975 B(  1-C , 13-O ) :   0.3565 B(  1-C , 14-H ) :  -0.1553 
B(  1-C , 15-H ) :  -0.0661 B(  1-C , 19-H ) :  -0.1231 B(  2-H , 13-O ) :  -0.0800 
B(  3-C ,  4-H ) :   0.9411 B(  3-C ,  6-H ) :  -0.0547 B(  3-C ,  7-C ) :  -0.2500 
B(  3-C , 11-O ) :  -0.0525 B(  3-C , 12-O ) :   0.3881 B(  3-C , 13-O ) :  -0.1462 
B(  3-C , 18-H ) :  -0.1244 B(  4-H ,  5-C ) :  -0.1742 B(  4-H , 12-O ) :  -0.0832 
B(  5-C ,  6-H ) :   0.8933 B(  5-C ,  7-C ) :  -0.0793 B(  5-C ,  8-H ) :  -0.1746 
B(  5-C ,  9-O ) :  -0.1873 B(  5-C , 10-O ) :  -0.0819 B(  5-C , 11-O ) :   0.3387 
B(  5-C , 12-O ) :  -0.1909 B(  5-C , 17-H ) :  -0.1314 B(  6-H ,  7-C ) :  -0.1257 
B(  6-H , 11-O ) :  -0.1021 B(  7-C ,  8-H ) :   0.9244 B(  7-C ,  9-O ) :   0.2320 
B(  7-C , 10-O ) :   0.5772 B(  7-C , 11-O ) :  -0.1614 B(  7-C , 16-H ) :  -0.0709 
B(  8-H ,  9-O ) :  -0.1223 B(  8-H , 10-O ) :  -0.1078 B(  9-O , 10-O ) :  -0.1762 
B(  9-O , 14-H ) :  -0.0915 B(  9-O , 15-H ) :  -0.1023 B(  9-O , 19-H ) :   0.0562 
B( 10-O , 16-H ) :   0.5830 B( 11-O , 13-O ) :  -0.0884 B( 11-O , 16-H ) :   0.0517 
B( 11-O , 17-H ) :   0.6030 B( 12-O , 18-H ) :   0.6069 B( 13-O , 17-H ) :   0.0548 
B( 13-O , 19-H ) :   0.6008 


                     *******************************
                     * LOEWDIN POPULATION ANALYSIS *
                     *******************************

----------------------
LOEWDIN ATOMIC CHARGES
----------------------
   0 C :    0.045149
   1 C :    0.105434
   2 H :    0.189148
   3 C :    0.111000
   4 H :    0.182345
   5 C :    0.104870
   6 H :    0.190318
   7 C :    0.282564
   8 H :    0.196889
   9 O :   -0.691857
  10 O :   -0.476399
  11 O :   -0.573682
  12 O :   -0.586206
  13 O :   -0.581886
  14 H :    0.190020
  15 H :    0.186449
  16 H :    0.287122
  17 H :    0.282902
  18 H :    0.273683
  19 H :    0.282137

-------------------------------
LOEWDIN REDUCED ORBITAL CHARGES
-------------------------------
  0 C s       :     2.852173  s :     2.852173
      pz      :     1.040283  p :     2.971919
      px      :     0.885195
      py      :     1.046441
      dz2     :     0.033352  d :     0.130760
      dxz     :     0.026238
      dyz     :     0.009154
      dx2y2   :     0.025931
      dxy     :     0.036085

  1 C s       :     2.828618  s :     2.828618
      pz      :     0.863345  p :     2.924505
      px      :     1.046318
      py      :     1.014841
      dz2     :     0.043441  d :     0.141443
      dxz     :     0.032091
      dyz     :     0.027581
      dx2y2   :     0.019279
      dxy     :     0.019052

  2 H s       :     0.769811  s :     0.769811
      pz      :     0.007386  p :     0.041040
      px      :     0.025252
      py      :     0.008402

  3 C s       :     2.828158  s :     2.828158
      pz      :     0.864134  p :     2.916989
      px      :     1.020405
      py      :     1.032450
      dz2     :     0.042932  d :     0.143852
      dxz     :     0.031569
      dyz     :     0.030043
      dx2y2   :     0.019482
      dxy     :     0.019826

  4 H s       :     0.776915  s :     0.776915
      pz      :     0.011305  p :     0.040740
      px      :     0.010758
      py      :     0.018677

  5 C s       :     2.833075  s :     2.833075
      pz      :     0.871529  p :     2.919513
      px      :     1.022470
      py      :     1.025515
      dz2     :     0.041349  d :     0.142542
      dxz     :     0.028722
      dyz     :     0.035447
      dx2y2   :     0.017807
      dxy     :     0.019217

  6 H s       :     0.769956  s :     0.769956
      pz      :     0.006705  p :     0.039726
      px      :     0.014452
      py      :     0.018569

  7 C s       :     2.773782  s :     2.773782
      pz      :     0.988223  p :     2.739618
      px      :     0.840592
      py      :     0.910803
      dz2     :     0.046330  d :     0.204036
      dxz     :     0.030556
      dyz     :     0.018347
      dx2y2   :     0.047774
      dxy     :     0.061028

  8 H s       :     0.764923  s :     0.764923
      pz      :     0.026431  p :     0.038188
      px      :     0.005348
      py      :     0.006409

  9 O s       :     3.492392  s :     3.492392
      pz      :     1.751415  p :     4.711260
      px      :     1.351280
      py      :     1.608564
      dz2     :     0.089919  d :     0.488206
      dxz     :     0.100687
      dyz     :     0.053333
      dx2y2   :     0.119188
      dxy     :     0.125079

 10 O s       :     3.488759  s :     3.488759
      pz      :     1.415919  p :     4.717950
      px      :     1.511283
      py      :     1.790747
      dz2     :     0.081186  d :     0.269690
      dxz     :     0.060686
      dyz     :     0.022438
      dx2y2   :     0.043609
      dxy     :     0.061772

 11 O s       :     3.499971  s :     3.499971
      pz      :     1.381442  p :     4.775617
      px      :     1.608998
      py      :     1.785177
      dz2     :     0.091613  d :     0.298093
      dxz     :     0.083096
      dyz     :     0.073331
      dx2y2   :     0.017165
      dxy     :     0.032888

 12 O s       :     3.500028  s :     3.500028
      pz      :     1.454477  p :     4.790706
      px      :     1.779752
      py      :     1.556477
      dz2     :     0.090531  d :     0.295472
      dxz     :     0.070806
      dyz     :     0.080371
      dx2y2   :     0.025287
      dxy     :     0.028477

 13 O s       :     3.504623  s :     3.504623
      pz      :     1.450614  p :     4.774787
      px      :     1.765356
      py      :     1.558818
      dz2     :     0.093418  d :     0.302475
      dxz     :     0.073757
      dyz     :     0.075718
      dx2y2   :     0.024052
      dxy     :     0.035531

 14 H s       :     0.767728  s :     0.767728
      pz      :     0.028002  p :     0.042252
      px      :     0.005949
      py      :     0.008302

 15 H s       :     0.773905  s :     0.773905
      pz      :     0.007820  p :     0.039647
      px      :     0.009321
      py      :     0.022506

 16 H s       :     0.590264  s :     0.590264
      pz      :     0.067787  p :     0.122614
      px      :     0.022005
      py      :     0.032822

 17 H s       :     0.586004  s :     0.586004
      pz      :     0.026044  p :     0.131094
      px      :     0.064525
      py      :     0.040525

 18 H s       :     0.602557  s :     0.602557
      pz      :     0.023521  p :     0.123760
      px      :     0.040742
      py      :     0.059497

 19 H s       :     0.593830  s :     0.593830
      pz      :     0.021520  p :     0.124033
      px      :     0.041924
      py      :     0.060588


---------------------------------
LOEWDIN BOND ORDERS (THRESH 0.050000)
---------------------------------
B(  0-C ,  1-C ) :   0.9365 B(  0-C ,  3-C ) :   0.0594 B(  0-C ,  7-C ) :   0.0813 
B(  0-C ,  9-O ) :   1.3790 B(  0-C , 13-O ) :   0.1457 B(  0-C , 14-H ) :   0.7996 
B(  0-C , 15-H ) :   0.8161 B(  1-C ,  2-H ) :   0.7861 B(  1-C ,  3-C ) :   0.8860 
B(  1-C ,  5-C ) :   0.0542 B(  1-C ,  9-O ) :   0.1538 B(  1-C , 12-O ) :   0.1628 
B(  1-C , 13-O ) :   1.3897 B(  2-H , 13-O ) :   0.0949 B(  3-C ,  4-H ) :   0.7818 
B(  3-C ,  5-C ) :   0.8878 B(  3-C ,  7-C ) :   0.0577 B(  3-C , 11-O ) :   0.1487 
B(  3-C , 12-O ) :   1.4101 B(  3-C , 13-O ) :   0.1566 B(  4-H , 12-O ) :   0.0988 
B(  5-C ,  6-H ) :   0.7797 B(  5-C ,  7-C ) :   0.8349 B(  5-C ,  9-O ) :   0.1323 
B(  5-C , 10-O ) :   0.1495 B(  5-C , 11-O ) :   1.4183 B(  5-C , 12-O ) :   0.1592 
B(  6-H , 11-O ) :   0.0956 B(  7-C ,  8-H ) :   0.7305 B(  7-C ,  9-O ) :   1.2357 
B(  7-C , 10-O ) :   1.4275 B(  7-C , 11-O ) :   0.1452 B(  8-H ,  9-O ) :   0.0933 
B(  8-H , 10-O ) :   0.0882 B(  9-O , 10-O ) :   0.3082 B(  9-O , 13-O ) :   0.0869 
B(  9-O , 14-H ) :   0.1006 B(  9-O , 15-H ) :   0.0967 B( 10-O , 11-O ) :   0.0994 
B( 10-O , 16-H ) :   0.9256 B( 11-O , 13-O ) :   0.1058 B( 11-O , 17-H ) :   0.9135 
B( 12-O , 18-H ) :   0.9623 B( 13-O , 17-H ) :   0.0637 B( 13-O , 19-H ) :   0.9416 


------------------------------------------
LOEWDIN REDUCED ORBITAL POPULATIONS PER MO
-------------------------------------------
THRESHOLD FOR PRINTING IS 0.1%%
                      0         1         2         3         4         5   
                 -18.97852 -18.97611 -18.96928 -18.95981 -18.95849 -10.13308
                   2.00000   2.00000   2.00000   2.00000   2.00000   2.00000
                  --------  --------  --------  --------  --------  --------
 7 C  s               0.0       0.0       0.0       0.0       0.0      99.0
 9 O  s               0.0       0.0      99.9       0.0       0.0       0.0
 9 O  dxy             0.0       0.0       0.0       0.0       0.0       0.2
10 O  s               0.0       0.0       0.0       0.0      99.9       0.0
10 O  px              0.0       0.0       0.0       0.0       0.0       0.1
10 O  dxz             0.0       0.0       0.0       0.0       0.0       0.1
10 O  dx2y2           0.0       0.0       0.0       0.0       0.0       0.1
11 O  s               0.0       0.0       0.0      99.9       0.0       0.0
12 O  s               0.0      99.9       0.0       0.0       0.0       0.0
13 O  s              99.9       0.0       0.0       0.0       0.0       0.0

                      6         7         8         9        10        11   
                 -10.10139 -10.10120 -10.09300 -10.09270  -1.05339  -1.02114
                   2.00000   2.00000   2.00000   2.00000   2.00000   2.00000
                  --------  --------  --------  --------  --------  --------
 0 C  s               0.0       0.0       0.0      99.3       4.7       0.1
 0 C  pz              0.0       0.0       0.0       0.0       1.0       0.1
 0 C  px              0.0       0.0       0.0       0.0       2.6       1.0
 0 C  py              0.0       0.0       0.0       0.0       0.2       0.6
 0 C  dxz             0.0       0.0       0.0       0.0       0.1       0.0
 0 C  dx2y2           0.0       0.0       0.0       0.0       0.2       0.0
 1 C  s              88.5      10.8       0.0       0.0       2.9       4.9
 1 C  pz              0.0       0.0       0.0       0.0       0.4       2.3
 1 C  px              0.0       0.0       0.0       0.0       0.9       0.0
 1 C  py              0.0       0.0       0.0       0.0       0.2       0.2
 1 C  dz2             0.0       0.0       0.0       0.0       0.0       0.2
 2 H  s               0.0       0.0       0.0       0.0       0.2       0.3
 3 C  s              10.8      88.6       0.0       0.0       1.7       5.3
 3 C  pz              0.0       0.0       0.0       0.0       0.1       2.1
 3 C  px              0.0       0.0       0.1       0.0       0.1       0.2
 3 C  py              0.0       0.0       0.0       0.0       0.5       0.0
 3 C  dz2             0.0       0.0       0.0       0.0       0.0       0.2
 4 H  s               0.0       0.0       0.0       0.0       0.1       0.3
 5 C  s               0.0       0.0      99.3       0.0       3.4       0.2
 5 C  pz              0.0       0.0       0.0       0.0       0.2       0.0
 5 C  px              0.0       0.1       0.0       0.0       0.0       1.6
 5 C  py              0.0       0.0       0.0       0.0       1.5       0.4
 6 H  s               0.0       0.0       0.0       0.0       0.2       0.0
 7 C  s               0.0       0.0       0.0       0.0      11.2       2.6
 7 C  pz              0.0       0.0       0.0       0.0       1.5       0.4
 7 C  px              0.0       0.0       0.0       0.0       0.1       1.0
 7 C  py              0.0       0.0       0.1       0.0       1.4       0.8
 7 C  dz2             0.0       0.0       0.0       0.0       0.1       0.0
 8 H  s               0.0       0.0       0.0       0.0       0.7       0.2
 9 O  s               0.0       0.0       0.0       0.0      25.1       3.1
 9 O  pz              0.0       0.0       0.0       0.0       0.3       0.0
 9 O  px              0.0       0.0       0.0       0.1       0.0       0.3
 9 O  py              0.0       0.0       0.0       0.0       1.3       0.2
 9 O  dz2             0.0       0.0       0.0       0.0       0.3       0.0
 9 O  dxz             0.0       0.0       0.0       0.1       0.0       0.0
 9 O  dx2y2           0.0       0.0       0.0       0.1       0.1       0.0
 9 O  dxy             0.0       0.0       0.0       0.0       0.2       0.4
10 O  s               0.0       0.0       0.0       0.0      13.9       9.8
10 O  px              0.0       0.0       0.0       0.0       1.6       0.6
10 O  dz2             0.0       0.0       0.0       0.0       0.1       0.0
10 O  dx2y2           0.0       0.0       0.0       0.0       0.4       0.1
11 O  s               0.0       0.0       0.0       0.0       4.4       0.5
11 O  pz              0.0       0.0       0.1       0.0       0.3       0.0
11 O  dz2             0.0       0.0       0.3       0.0       0.0       0.0
12 O  s               0.0       0.0       0.0       0.0       1.8      22.3
12 O  pz              0.0       0.1       0.0       0.0       0.1       0.7
12 O  px              0.0       0.0       0.0       0.0       0.0       0.1
12 O  py              0.0       0.0       0.0       0.0       0.0       0.2
12 O  dz2             0.0       0.2       0.0       0.0       0.0       0.1
13 O  s               0.0       0.0       0.0       0.0       6.0      22.6
13 O  pz              0.1       0.0       0.0       0.0       0.3       0.7
13 O  px              0.0       0.0       0.0       0.0       0.1       0.2
13 O  py              0.0       0.0       0.0       0.0       0.0       0.2
13 O  dz2             0.2       0.0       0.0       0.0       0.0       0.1
14 H  s               0.0       0.0       0.0       0.0       0.3       0.0
15 H  s               0.0       0.0       0.0       0.0       0.3       0.0
16 H  s               0.0       0.0       0.0       0.0       2.4       1.5
16 H  pz              0.0       0.0       0.0       0.0       0.4       0.3
17 H  s               0.0       0.0       0.0       0.0       0.9       0.3
18 H  s               0.0       0.0       0.0       0.0       0.3       3.8
18 H  px              0.0       0.0       0.0       0.0       0.0       0.2
18 H  py              0.0       0.0       0.0       0.0       0.0       0.6
19 H  s               0.0       0.0       0.0       0.0       1.2       3.8
19 H  px              0.0       0.0       0.0       0.0       0.0       0.2
19 H  py              0.0       0.0       0.0       0.0       0.2       0.6

                     12        13        14        15        16        17   
                  -1.01265  -0.99832  -0.97869  -0.75162  -0.71852  -0.63859
                   2.00000   2.00000   2.00000   2.00000   2.00000   2.00000
                  --------  --------  --------  --------  --------  --------
 0 C  s               0.3       1.7       2.6       4.3      12.7       9.8
 0 C  pz              0.5       0.2       0.3       0.0       0.1       0.3
 0 C  px              0.1       1.1       2.5       1.7       0.9       0.6
 0 C  py              0.0       0.0       0.1       2.4       0.1       0.8
 0 C  dxz             0.0       0.1       0.1       0.0       0.0       0.0
 0 C  dx2y2           0.0       0.1       0.1       0.1       0.0       0.0
 1 C  s               2.1       0.1       0.2      13.4       3.1       1.4
 1 C  pz              5.4       0.1       1.1       2.8       1.5       0.3
 1 C  px              0.1       0.0       0.3       0.9       0.1       0.2
 1 C  py              1.3       0.2       0.1       0.8       2.5       8.7
 1 C  dz2             0.4       0.0       0.1       0.1       0.0       0.0
 1 C  dxy             0.0       0.0       0.0       0.0       0.1       0.1
 2 H  s               0.1       0.0       0.0       2.4       0.7       0.6
 2 H  px              0.0       0.0       0.0       0.2       0.1       0.0
 3 C  s               3.6       0.0       0.0      12.9       1.3       4.6
 3 C  pz              6.2       1.3       0.1       1.8       0.3       0.5
 3 C  px              0.2       0.8       0.2       0.0       3.4       5.2
 3 C  py              0.9       0.0       0.0       2.8       0.3       0.1
 3 C  dz2             0.4       0.0       0.0       0.2       0.0       0.0
 4 H  s               0.2       0.0       0.0       2.0       0.2       2.0
 4 H  py              0.0       0.0       0.0       0.1       0.0       0.1
 5 C  s               0.6       6.0       0.6       5.1       9.7       6.9
 5 C  pz              0.2       8.5       1.0       1.3       2.6       0.8
 5 C  px              0.1       0.1       0.2       2.0       0.0       3.7
 5 C  py              0.0       0.1       0.0       0.0       0.4       0.0
 5 C  dz2             0.0       0.7       0.1       0.1       0.1       0.0
 6 H  s               0.0       0.4       0.0       0.8       2.1       3.4
 6 H  py              0.0       0.0       0.0       0.0       0.1       0.2
 7 C  s               0.3       0.1       0.4       0.2       8.8       0.8
 7 C  pz              0.1       0.5       0.4       0.0       0.1       0.3
 7 C  px              0.2       0.8      11.7       0.3       1.4       0.1
 7 C  py              0.1       2.5       0.4       2.4       1.2       7.2
 7 C  dxz             0.0       0.0       0.4       0.0       0.1       0.0
 7 C  dyz             0.0       0.0       0.0       0.0       0.0       0.1
 7 C  dx2y2           0.0       0.0       0.3       0.0       0.1       0.0
 7 C  dxy             0.0       0.1       0.3       0.1       0.0       0.1
 8 H  s               0.0       0.0       0.0       0.0       1.9       0.5
 8 H  pz              0.0       0.0       0.0       0.0       0.2       0.0
 9 O  s               0.1      10.0      17.5       2.9       0.0       2.8
 9 O  pz              0.0       0.2       0.3       0.1       0.1       0.6
 9 O  px              0.2       0.2       1.1       0.9       8.9       5.4
 9 O  py              0.0       0.2       0.2       0.2       2.3       0.2
 9 O  dz2             0.0       0.0       0.1       0.2       0.0       0.1
 9 O  dxz             0.0       0.0       0.0       0.2       0.9       0.3
 9 O  dx2y2           0.0       0.1       0.1       0.0       1.9       0.2
 9 O  dxy             0.1       0.0       0.2       0.2       0.5       0.1
10 O  s               1.7       0.5      32.7       0.0       3.2       0.1
10 O  pz              0.0       0.0       0.2       0.0       1.8       0.2
10 O  px              0.1       0.0       0.7       0.0       2.4       0.0
10 O  py              0.0       0.0       0.2       0.1       0.0       0.8
10 O  dz2             0.0       0.0       0.1       0.0       0.3       0.0
10 O  dxz             0.0       0.1       0.0       0.0       0.3       0.0
10 O  dx2y2           0.0       0.0       0.0       0.0       0.3       0.0
10 O  dxy             0.0       0.2       0.0       0.1       0.1       0.7
11 O  s               0.4      47.3       6.4       1.9       2.6       0.5
11 O  pz              0.1       1.0       0.1       1.5       3.3       4.6
11 O  px              0.0       0.8       0.2       0.0       0.2       1.3
11 O  py              0.0       0.3       0.0       0.1       0.0       0.2
11 O  dz2             0.0       0.2       0.0       0.5       1.0       0.8
11 O  dxz             0.0       0.0       0.0       0.2       0.1       0.1
12 O  s              32.8       2.0       0.4       4.1       0.4       0.2
12 O  pz              0.8       0.0       0.0       4.1       0.4       3.0
12 O  px              0.3       0.0       0.0       0.1       0.1       0.8
12 O  py              0.4       0.0       0.0       2.1       0.0       0.9
12 O  dz2             0.1       0.0       0.0       1.0       0.1       0.7
12 O  dxz             0.0       0.0       0.0       0.0       0.3       0.2
12 O  dyz             0.0       0.0       0.0       0.4       0.0       0.0
12 O  dx2y2           0.0       0.0       0.0       0.0       0.1       0.0
13 O  s              25.2       0.0       5.7       3.5       1.0       0.1
13 O  pz              0.6       0.0       0.1       3.9       0.9       0.9
13 O  px              0.2       0.0       0.0       0.1       0.0       0.1
13 O  py              0.3       0.0       0.1       1.1       0.0       2.8
13 O  dz2             0.1       0.1       0.0       1.3       0.3       0.0
13 O  dxz             0.0       0.0       0.0       0.1       0.0       0.0
13 O  dyz             0.0       0.0       0.0       0.2       0.1       0.5
13 O  dxy             0.0       0.1       0.0       0.0       0.0       0.2
14 H  s               0.0       0.1       0.2       0.9       2.2       2.9
14 H  pz              0.0       0.0       0.0       0.1       0.2       0.2
15 H  s               0.0       0.1       0.2       0.6       3.2       3.9
15 H  py              0.0       0.0       0.0       0.0       0.2       0.2
16 H  s               0.3       0.2       5.2       0.0       1.4       0.1
16 H  pz              0.1       0.0       1.3       0.0       0.3       0.0
17 H  s               0.0       7.8       0.9       0.7       1.0       1.4
17 H  pz              0.0       0.4       0.0       0.0       0.0       0.0
17 H  px              0.0       1.1       0.2       0.1       0.2       0.1
17 H  py              0.0       0.3       0.0       0.0       0.0       0.0
18 H  s               5.7       0.3       0.1       2.3       0.1       1.0
18 H  pz              0.1       0.0       0.0       0.0       0.0       0.0
18 H  px              0.2       0.0       0.0       0.1       0.0       0.0
18 H  py              0.9       0.1       0.0       0.3       0.0       0.1
19 H  s               4.3       0.0       0.9       1.6       0.2       0.9
19 H  px              0.2       0.0       0.0       0.1       0.0       0.0
19 H  py              0.7       0.0       0.2       0.2       0.1       0.0

                     18        19        20        21        22        23   
                  -0.61683  -0.56864  -0.52754  -0.51457  -0.48547  -0.47863
                   2.00000   2.00000   2.00000   2.00000   2.00000   2.00000
                  --------  --------  --------  --------  --------  --------
 0 C  s               0.1       1.7       0.5       0.1       0.3       1.1
 0 C  pz              0.5       2.2       0.0       0.1       0.3      22.6
 0 C  px              2.9       0.1       0.2       0.3       8.5       0.2
 0 C  py              2.3       0.1       6.0       1.1       0.7       0.0
 0 C  dxz             0.1       0.0       0.0       0.0       0.1       0.1
 0 C  dx2y2           0.1       0.0       0.0       0.0       0.1       0.0
 1 C  s               5.2       3.6       0.1       0.1       0.3       0.4
 1 C  pz              0.4       2.5       3.4       1.3       3.9       0.2
 1 C  px              1.6       3.0       0.9       5.5       0.3       2.5
 1 C  py              0.7       0.0       0.5       0.1       2.2       0.4
 1 C  dz2             0.0       0.1       0.0       0.0       0.2       0.1
 2 H  s               2.7       2.0       0.0       1.9       0.2       0.3
 2 H  px              0.2       0.1       0.0       0.1       0.0       0.0
 3 C  s               4.8       2.4       1.0       0.0       0.5       0.1
 3 C  pz              0.6       1.4       5.2       5.3       3.7       0.5
 3 C  px              2.0       0.0       0.0       4.3       0.1       0.0
 3 C  py              2.4       0.1       6.8       0.8       1.3       1.2
 3 C  dz2             0.0       0.1       0.0       0.2       0.1       0.0
 4 H  s               2.1       0.4       4.6       0.0       1.9       0.7
 4 H  py              0.1       0.0       0.1       0.0       0.0       0.0
 5 C  s               2.1       1.7       0.0       0.0       0.0       0.0
 5 C  pz              0.0       1.1       0.0       2.8       2.4       0.1
 5 C  px              2.3       1.8       0.5       6.9       2.6       0.2
 5 C  py              3.9       0.5       5.0       3.1       0.4       1.0
 5 C  dz2             0.0       0.0       0.0       0.2       0.0       0.0
 5 C  dx2y2           0.1       0.0       0.1       0.0       0.0       0.0
 6 H  s               0.9       1.2       0.4       1.1       0.3       0.1
 7 C  s               8.8       1.2       0.1       0.1       0.1       0.0
 7 C  pz              1.8       3.4       3.9       0.2       5.1       1.1
 7 C  px              0.2       0.9       7.1       2.1       0.2       4.8
 7 C  py              0.2       0.1       0.5       0.8       5.7       3.0
 7 C  dx2y2           0.0       0.1       0.1       0.0       0.0       0.1
 7 C  dxy             0.0       0.0       0.0       0.0       0.0       0.1
 8 H  s               4.1       2.1       1.3       0.1       2.3       0.3
 8 H  pz              0.3       0.1       0.1       0.0       0.1       0.0
 9 O  s               1.9       1.5       0.2       1.1       0.0       0.3
 9 O  pz              0.3       1.3       1.2       0.1       4.0       8.1
 9 O  px              5.0       0.1       0.9       0.8       7.9       9.4
 9 O  py              2.9       0.1       5.2       2.7       0.9       1.7
 9 O  dz2             0.1       0.0       0.0       0.0       0.2       0.7
 9 O  dxz             0.1       0.0       0.0       0.0       0.0       0.8
 9 O  dyz             0.2       0.2       0.0       0.0       0.2       0.2
 9 O  dx2y2           0.0       0.1       0.6       0.2       0.5       0.1
 9 O  dxy             0.2       0.1       0.4       0.2       0.0       0.0
10 O  s               1.6       0.0       0.3       0.1       0.1       0.0
10 O  pz              7.7       4.4      14.0       1.7       0.7       8.3
10 O  px              4.8       0.4       0.8       1.2       3.1       2.3
10 O  py              0.0       0.0       0.1       0.0       1.6       0.9
10 O  dz2             0.1       0.0       0.0       0.1       0.2       0.1
10 O  dxz             0.5       0.2       0.3       0.0       0.1       0.1
10 O  dyz             0.1       0.0       0.1       0.0       0.0       0.1
10 O  dx2y2           0.4       0.0       0.1       0.0       0.2       0.0
10 O  dxy             0.0       0.0       0.0       0.0       0.3       0.2
11 O  s               0.8       0.1       0.0       0.8       0.3       0.0
11 O  pz              1.9       7.2       0.1       6.4       2.3       0.3
11 O  px              0.0       2.6       0.9       8.7       0.3       0.1
11 O  py              0.3       0.4       1.3       2.8       0.1       0.6
11 O  dz2             0.1       0.2       0.0       0.1       0.0       0.0
11 O  dxz             0.2       0.0       0.1       0.2       0.3       0.0
11 O  dyz             0.1       0.0       0.4       0.1       0.0       0.1
11 O  dx2y2           0.0       0.0       0.1       0.1       0.0       0.0
12 O  s               0.7       0.2       0.5       0.2       0.4       0.1
12 O  pz              2.8       7.0       0.4       7.9       1.4       0.2
12 O  px              0.1       0.4       0.5       4.2       0.3       0.1
12 O  py              0.1       4.8       6.7       6.6       6.3       0.5
12 O  dz2             0.6       0.3       0.2       0.1       0.1       0.0
12 O  dxz             0.2       0.0       0.0       0.2       0.0       0.0
12 O  dyz             0.1       0.0       0.3       0.1       0.0       0.0
12 O  dx2y2           0.1       0.0       0.0       0.0       0.1       0.1
12 O  dxy             0.0       0.2       0.0       0.0       0.2       0.0
13 O  s               0.3       0.2       0.1       0.2       1.2       1.9
13 O  pz              3.4      11.5       1.6       0.5       2.0       1.8
13 O  px              0.6       2.3       1.0       1.8       2.6       2.7
13 O  py              0.8       4.3       3.9       1.4      10.3       1.6
13 O  dz2             0.6       0.6       0.0       0.0       0.1       0.0
13 O  dxz             0.1       0.0       0.0       0.2       0.0       0.2
13 O  dxy             0.0       0.0       0.1       0.2       0.1       0.1
14 H  s               0.2       2.1       0.0       0.0       0.0      10.5
14 H  pz              0.0       0.1       0.0       0.0       0.0       0.4
15 H  s               0.0       0.6       1.6       0.2       0.7       0.1
15 H  pz              0.0       0.0       0.0       0.0       0.0       0.1
16 H  s               3.0       1.1       3.4       0.6       0.7       2.4
16 H  pz              0.3       0.1       0.1       0.1       0.0       0.1
17 H  s               0.4       2.7       0.0       3.9       0.2       0.1
17 H  px              0.1       0.2       0.0       0.1       0.0       0.0
18 H  s               0.3       2.9       1.6       4.3       1.9       0.2
18 H  py              0.1       0.2       0.0       0.2       0.0       0.0
19 H  s               1.0       3.7       1.5       0.3       3.3       0.2
19 H  py              0.1       0.3       0.1       0.0       0.1       0.0

                     24        25        26        27        28        29   
                  -0.45425  -0.44823  -0.43808  -0.41681  -0.39425  -0.37947
                   2.00000   2.00000   2.00000   2.00000   2.00000   2.00000
                  --------  --------  --------  --------  --------  --------
 0 C  s               0.1       1.0       0.3       0.3       0.4       0.2
 0 C  pz              1.7       1.0       0.9       1.8       2.6       0.1
 0 C  px              5.7       0.6       1.6       0.2       1.3       3.8
 0 C  py              2.7       8.7       0.5       0.5       8.3       3.7
 0 C  dz2             0.0       0.0       0.0       0.0       0.1       0.0
 0 C  dx2y2           0.0       0.0       0.1       0.0       0.0       0.2
 0 C  dxy             0.0       0.2       0.1       0.1       0.0       0.0
 1 C  s               0.1       1.3       0.8       0.5       0.1       0.1
 1 C  pz              0.0       1.4       4.6       5.0       0.0       0.6
 1 C  px              9.3       0.0       2.6       3.5       3.1       6.9
 1 C  py              3.8       1.5       2.0       6.0       0.1       1.8
 1 C  dz2             0.0       0.0       0.4       0.1       0.1       0.0
 1 C  dx2y2           0.0       0.0       0.0       0.1       0.0       0.2
 2 H  s               3.1       0.6       4.6       5.4       1.3       3.0
 2 H  px              0.1       0.0       0.2       0.2       0.0       0.0
 3 C  s               0.0       0.2       0.4       0.3       0.0       0.1
 3 C  pz              2.1       0.5       2.5       0.6       0.2       1.9
 3 C  px              2.8       3.3       9.7       0.5       0.5       3.2
 3 C  py              3.6       1.1       2.2       7.8       0.5       2.2
 3 C  dz2             0.0       0.0       0.2       0.1       0.0       0.0
 3 C  dx2y2           0.1       0.0       0.1       0.1       0.1       0.0
 3 C  dxy             0.0       0.1       0.0       0.1       0.0       0.0
 4 H  s               0.0       1.9       5.2       2.7       0.1       0.1
 4 H  pz              0.0       0.0       0.1       0.1       0.0       0.0
 4 H  py              0.0       0.1       0.1       0.0       0.0       0.0
 5 C  s               0.5       0.1       0.3       1.5       0.3       0.3
 5 C  pz             10.4       0.7       0.3       1.0       3.7       1.3
 5 C  px              0.1       0.4       3.9       0.2       5.9       3.2
 5 C  py              0.6      12.4       0.6       0.2       4.6       2.3
 5 C  dz2             0.1       0.0       0.0       0.0       0.2       0.1
 5 C  dxy             0.0       0.2       0.0       0.0       0.0       0.1
 6 H  s               2.5       3.0       0.1       1.4       6.5       3.9
 6 H  px              0.1       0.1       0.0       0.0       0.0       0.0
 7 C  s               0.1       0.8       0.6       0.7       0.4       0.3
 7 C  pz              0.2       9.4       2.2       1.8       7.8       1.7
 7 C  px              0.9       0.3       0.3       1.2       1.3       0.1
 7 C  py              0.3       3.0       4.4       0.3       0.3       0.1
 7 C  dz2             0.0       0.0       0.1       0.1       0.2       0.1
 7 C  dx2y2           0.2       0.0       0.0       0.0       0.0       0.3
 8 H  s               0.0       1.7       2.2       1.9       5.5       1.6
 8 H  pz              0.0       0.0       0.1       0.1       0.1       0.0
 9 O  s               0.6       0.2       0.0       1.7       0.0       0.4
 9 O  pz              2.5       1.1       0.4       0.8       0.1       1.4
 9 O  px              2.3       0.1       3.8       0.0       0.2       6.1
 9 O  py              0.4       0.0       0.1       7.1       1.5       3.4
 9 O  dz2             0.1       0.1       0.1       0.0       0.0       0.0
 9 O  dxz             0.0       0.8       0.2       0.1       0.7       0.2
 9 O  dyz             0.0       0.5       0.1       0.1       0.0       0.0
 9 O  dx2y2           0.0       0.1       0.3       0.1       0.1       0.1
[...]
 5 C  dz2             0.2       0.0       1.0       0.0       0.0       0.0
 5 C  dxz             0.0       0.0       0.1       0.0       0.0       0.0
 6 H  py              0.0       0.0       0.1       0.0       0.0       0.0
 7 C  s               0.0       0.1       0.0       3.5      31.4       6.6
 7 C  pz              0.0       0.6       0.0       0.0       0.0       0.0
 7 C  px              0.0       1.6       0.1       0.0       0.0       0.0
 7 C  dz2             0.0       0.7       0.0       0.0       0.0       0.0
 7 C  dxz             0.0       0.7       0.1       0.0       0.0       0.0
 7 C  dx2y2           0.0       0.9       0.1       0.0       0.0       0.0
 7 C  dxy             0.0       0.1       0.0       0.0       0.0       0.0
 8 H  s               0.0       0.2       0.0       0.0       0.0       0.0
 8 H  pz              0.0       0.3       0.0       0.0       0.0       0.0
10 O  s               0.5       4.4       0.3       0.0       0.0       0.0
10 O  pz              1.0      16.8       1.2       0.0       0.0       0.0
10 O  px              0.0       1.6       0.1       0.0       0.0       0.0
10 O  py              0.0       0.3       0.1       0.0       0.0       0.0
10 O  dz2             1.6      25.8       1.7       0.0       0.0       0.0
10 O  dxz             0.1       2.7       0.2       0.0       0.0       0.0
10 O  dyz             0.3       4.9       0.3       0.0       0.0       0.0
10 O  dx2y2           0.0       1.8       0.1       0.0       0.0       0.0
11 O  s               0.3       0.4       7.0       0.0       0.0       0.0
11 O  pz              0.6       0.1       5.3       0.0       0.0       0.0
11 O  px              0.4       0.2       8.0       0.0       0.0       0.0
11 O  py              0.1       0.1       1.9       0.0       0.0       0.0
11 O  dz2             0.6       0.0       5.0       0.0       0.0       0.0
11 O  dxz             0.6       0.2       7.2       0.0       0.0       0.0
11 O  dyz             0.1       0.1       2.0       0.0       0.0       0.0
11 O  dx2y2           0.2       0.2       4.2       0.0       0.0       0.0
11 O  dxy             0.5       0.2       9.0       0.0       0.0       0.0
12 O  s               5.5       0.4       0.0       0.0       0.0       0.0
12 O  pz              4.5       0.3       0.0       0.0       0.0       0.0
12 O  px              2.4       0.1       0.0       0.0       0.0       0.0
12 O  py             10.9       0.6       0.0       0.0       0.0       0.0
12 O  dz2            12.1       0.6       0.0       0.0       0.0       0.0
12 O  dxz             1.0       0.1       0.0       0.0       0.0       0.0
12 O  dyz             1.5       0.1       0.0       0.0       0.0       0.0
12 O  dx2y2           5.3       0.3       0.0       0.0       0.0       0.0
12 O  dxy            12.3       0.7       0.0       0.0       0.0       0.0
13 O  s               0.7       0.4       1.4       0.0       0.0       0.0
13 O  pz              0.2       0.1       0.4       0.0       0.0       0.0
13 O  px              0.4       0.1       0.8       0.0       0.0       0.0
13 O  py              0.5       0.6       2.6       0.0       0.0       0.0
13 O  dz2             0.9       0.6       2.2       0.0       0.0       0.0
13 O  dyz             0.1       0.1       0.4       0.0       0.0       0.0
13 O  dx2y2           0.3       0.3       1.0       0.0       0.0       0.0
13 O  dxy             0.9       0.9       4.0       0.0       0.0       0.0
16 H  s               0.7      10.9       0.7       0.0       0.0       0.0
16 H  pz              0.8      12.7       0.8       0.0       0.0       0.0
16 H  py              0.0       0.6       0.0       0.0       0.0       0.0
17 H  s               0.6       0.3       9.5       0.0       0.0       0.0
17 H  pz              0.1       0.0       1.6       0.0       0.0       0.0
17 H  px              0.5       0.4       8.6       0.0       0.0       0.0
17 H  py              0.2       0.1       2.2       0.0       0.0       0.0
18 H  s              11.4       0.6       0.0       0.0       0.0       0.0
18 H  pz              0.6       0.0       0.0       0.0       0.0       0.0
18 H  px              2.8       0.2       0.0       0.0       0.0       0.0
18 H  py              9.6       0.5       0.0       0.0       0.0       0.0
19 H  s               0.8       0.6       2.5       0.0       0.0       0.0
19 H  px              0.2       0.1       0.6       0.0       0.0       0.0
19 H  py              0.6       0.6       2.7       0.0       0.0       0.0

                    258       259       260       261       262       263   
                  22.30876  22.38813  43.73075  43.78973  43.82125  43.89962
                   0.00000   0.00000   0.00000   0.00000   0.00000   0.00000
                  --------  --------  --------  --------  --------  --------
 0 C  s               0.6       6.9       0.0       0.0       0.0       0.0
 1 C  s              16.8      18.9       0.0       0.0       0.1       0.0
 3 C  s              14.2       0.2       0.0       0.1       0.0       0.0
 5 C  s              13.0      70.5       0.0       0.0       0.0       0.1
 7 C  s              54.9       3.1       0.0       0.0       0.0       0.0
 9 O  s               0.1       0.0       1.8      21.7       6.6       1.7
10 O  s               0.1       0.0      60.2       4.1      18.5      16.7
11 O  s               0.0       0.0      17.6       0.3       0.3      80.2
12 O  s               0.0       0.0       1.5      73.7       7.3       0.1
13 O  s               0.0       0.0      18.8       0.1      67.0       1.1

                    264   
                  43.93441
                   0.00000
                  --------
 9 O  s              68.1
10 O  s               0.4
11 O  s               1.4
12 O  s              17.2
13 O  s              12.8


                      *****************************
                      * MAYER POPULATION ANALYSIS *
                      *****************************

  NA   - Mulliken gross atomic population
  ZA   - Total nuclear charge
  QA   - Mulliken gross atomic charge
  VA   - Mayer's total valence
  BVA  - Mayer's bonded valence
  FA   - Mayer's free valence

  ATOM       NA         ZA         QA         VA         BVA        FA
  0 C      6.3022     6.0000    -0.3022     3.7776     3.7776     0.0000
  1 C      5.9529     6.0000     0.0471     3.6150     3.6150    -0.0000
  2 H      0.8356     1.0000     0.1644     0.9546     0.9546     0.0000
  3 C      6.0751     6.0000    -0.0751     3.7279     3.7279     0.0000
  4 H      0.8437     1.0000     0.1563     0.9502     0.9502     0.0000
  5 C      6.0035     6.0000    -0.0035     3.5583     3.5583     0.0000
  6 H      0.8457     1.0000     0.1543     0.9578     0.9578     0.0000
  7 C      6.0313     6.0000    -0.0313     3.8814     3.8814    -0.0000
  8 H      0.8546     1.0000     0.1454     0.9547     0.9547    -0.0000
  9 O      8.2248     8.0000    -0.2248     1.6843     1.6843    -0.0000
 10 O      8.3753     8.0000    -0.3753     1.9148     1.9148     0.0000
 11 O      8.4230     8.0000    -0.4230     1.7959     1.7959    -0.0000
 12 O      8.4094     8.0000    -0.4094     1.8490     1.8490    -0.0000
 13 O      8.4562     8.0000    -0.4562     1.8075     1.8075     0.0000
 14 H      0.8254     1.0000     0.1746     0.9494     0.9494     0.0000
 15 H      0.8356     1.0000     0.1644     0.9498     0.9498     0.0000
 16 H      0.6747     1.0000     0.3253     0.9057     0.9057     0.0000
 17 H      0.6680     1.0000     0.3320     0.9040     0.9040     0.0000
 18 H      0.7008     1.0000     0.2992     0.9113     0.9113    -0.0000
 19 H      0.6624     1.0000     0.3376     0.8967     0.8967     0.0000

  Mayer bond orders larger than 0.100000
B(  0-C ,  1-C ) :   0.9070 B(  0-C ,  9-O ) :   0.9025 B(  0-C , 14-H ) :   0.9629 
B(  0-C , 15-H ) :   0.9628 B(  1-C ,  2-H ) :   0.9480 B(  1-C ,  3-C ) :   0.9397 
B(  1-C , 13-O ) :   0.9333 B(  3-C ,  4-H ) :   0.9753 B(  3-C ,  5-C ) :   0.8748 
B(  3-C , 12-O ) :   0.9518 B(  5-C ,  6-H ) :   0.9752 B(  5-C ,  7-C ) :   0.8801 
B(  5-C , 11-O ) :   0.9748 B(  7-C ,  8-H ) :   0.9921 B(  7-C ,  9-O ) :   0.9108 
B(  7-C , 10-O ) :   1.1455 B( 10-O , 16-H ) :   0.8465 B( 11-O , 17-H ) :   0.8331 
B( 12-O , 18-H ) :   0.8973 B( 13-O , 19-H ) :   0.8500 

-------
TIMINGS
-------

Total SCF time: 0 days 0 hours 0 min 41 sec 

Total time                  ....      41.930 sec
Sum of individual times     ....      41.884 sec  ( 99.9%)

SCF preparation             ....       0.064 sec  (  0.2%)
Fock matrix formation       ....      41.304 sec  ( 98.5%)
  Startup                   ....       0.008 sec  (  0.0% of F)
  Split-RI-J                ....       8.344 sec  ( 20.2% of F)
  XC integration            ....      32.889 sec  ( 79.6% of F)
    XC Preparation          ....       0.000 sec  (  0.0% of XC)
    Basis function eval.    ....       5.178 sec  ( 15.7% of XC)
    Density eval.           ....      13.160 sec  ( 40.0% of XC)
    XC-Functional eval.     ....       2.303 sec  (  7.0% of XC)
    XC-Potential eval.      ....      11.715 sec  ( 35.6% of XC)
Diagonalization             ....       0.000 sec  (  0.0%)
Density matrix formation    ....       0.036 sec  (  0.1%)
Total Energy calculation    ....       0.004 sec  (  0.0%)
Population analysis         ....       0.211 sec  (  0.5%)
Orbital Transformation      ....       0.033 sec  (  0.1%)
Orbital Orthonormalization  ....       0.000 sec  (  0.0%)
DIIS solution               ....       0.200 sec  (  0.5%)
  MO trafo                  ....       0.000 sec  (  0.0 % of DIIS)
  Orb grad                  ....       0.000 sec  (  0.0 % of DIIS)
  Energy W gradient         ....       0.000 sec  (  0.0 % of DIIS)
  DIIS error                ....       0.034 sec  ( 17.2 % of DIIS)
  DIIS work                 ....       0.146 sec  ( 72.8 % of DIIS)
  Form Q                    ....       0.000 sec  (  0.0 % of DIIS)
  Form QpQm                 ....       0.000 sec  (  0.0 % of DIIS)
  Exp/Cayley                ....       0.000 sec  (  0.0 % of DIIS)
  Orb update                ....       0.000 sec  (  0.0 % of DIIS)
  Wake-sleep                ....       0.001 sec  (  0.7 % of DIIS)
SOSCF solution              ....       0.032 sec  (  0.1%)
  MO trafo                  ....       0.025 sec  ( 76.2 % of SOSCF)
  Orb grad                  ....       0.000 sec  (  0.4 % of SOSCF)
  Rot update                ....       0.000 sec  (  0.1 % of SOSCF)
  Step                      ....       0.007 sec  ( 22.9 % of SOSCF)
Finished LeanSCF after  41.9 sec

Maximum memory used throughout the entire LEANSCF-calculation: 32.0 MB


-------------------------------------------------------------------------------
                          DFT DISPERSION CORRECTION                            
                                                                               
                                DFTD4 V3.4.0                                   
-------------------------------------------------------------------------------
The R2SCAN3C composite method is recognized
Using three-body term ABC
Active option DFTDOPT                   ...         5   

-------------------------   ----------------
Dispersion correction           -0.006548466
-------------------------   ----------------

------------------   -----------------
gCP correction             0.017794346
------------------   -----------------

-------------------------   --------------------
FINAL SINGLE POINT ENERGY      -572.562456765855
-------------------------   --------------------


------------------------------------------------------------------------------
                              ORCA PROPERTY CALCULATIONS
------------------------------------------------------------------------------

GBWName                                 ... sp.gbw
Number of atoms                         ...     20
Number of basis functions               ...    265
Max core memory                         ...   1024 MB

Electric properties:
Dipole moment                           ... YES
Quadrupole moment                       ...  NO
Static polarizability (Dipole/Dipole)   ...  NO
Static polarizability (Dipole/Quad.)    ...  NO
Static polarizability (Quad./Quad.)     ...  NO
Static polarizability (Velocity)        ...  NO

Atomic electric properties:
Dipole moment                           ...  NO
Quadrupole moment                       ...  NO
Static polarizability                   ...  NO

Choice of electric origin               ... Center of mass
Position of electric origin             ...     0.000009    -0.000002    -0.000008

General magnetic properties:
Magnetizability                         ...  NO

EPR properties:
g-Tensor (aka g-matrix)                 ...  NO
Zero-Field splitting spin-orbit         ...  NO
Zero-field splitting spin-spin          ...  NO
Hyperfine couplings                     ...  NO (   0 nuclei)
Quadrupole couplings                    ...  NO (   0 nuclei)
Contact density                         ...  NO (   0 nuclei)

NMR properties:
Chemical shifts                         ...  NO (   0 nuclei)
Spin-rotation constants                 ...  NO (   0 nuclei)
Spin-spin couplings                     ...  NO (   0 nuclei,    0 pairs)

Choice of magnetic origin               ... GIAO
Position of magnetic origin             ...     0.000000     0.000000     0.000000

Properties with geometric perturbations:
SCF Hessian                             ...  NO
IR spectrum                             ...  NO
VCD spectrum                            ...  NO
X-ray spectroscopy properties:
SCF XES/XAS/RIXS spectra                ...  NO


-------------
DIPOLE MOMENT
-------------

Method             : SCF
Type of density    : Electron Density
Multiplicity       :   1
Irrep              :   0
Energy             :  -572.5737026461331425 Eh
Relativity type    : 
Basis              : AO
                                X                 Y                 Z
Electronic contribution:     -1.725559865       0.568597938       1.266064410
Nuclear contribution   :      2.367312123      -0.939505652      -1.589679340
                        -----------------------------------------
Total Dipole Moment    :      0.641752258      -0.370907713      -0.323614930
                        -----------------------------------------
Magnitude (a.u.)       :      0.808792381
Magnitude (Debye)      :      2.055786856



--------------------
Rotational spectrum 
--------------------
 
Rotational constants in cm-1:             0.057812             0.041770             0.039495 
Rotational constants in MHz :          1733.163767          1252.226909          1184.017160 

Dipole components along the rotational axes: 
x,y,z [a.u.] :    -0.748913    -0.285971    -0.107216 
x,y,z [Debye]:    -1.903586    -0.726880    -0.272521 

 

Dipole moment calculation done in   0.0 sec 

Maximum memory used throughout the entire PROP-calculation: 20.0 MB

--------------------------------
SUGGESTED CITATIONS FOR THIS RUN
--------------------------------

Below you find a list of papers that are relevant to this ORCA run
We neither can nor want to force you to cite these papers, but we appreciate if you do
You receive ORCA, which is the product of decades of hard work by many enthusiastic individuals, for free
The only thing we kindly ask in return is that you cite our papers,
We deeply appreciate it, if you show your appreciation for ORCA by not just citing the generic ORCA reference.

Please note that relegating all ORCA citations to the supporting information does *not* help us.
SI sections are not indexed - citations you put there will not count into any citation statistics
But we need these citations in order to attract the funding resources that allow us to do what we are doing

Therefore, if you are a happy ORCA user, please consider citing a few of the papers listed below in the main body of your paper

In addition to the list printed below, the program has created the file sp.bibtex that contains the list in bibtex format
You can import this file easily into all common literature databanks and citation aid programs


List of essential papers. We consider these as the minimum necessary citations

  1. Neese,F.
     Software update: the ORCA program system, version 5.0
     WIRES Comput. Molec. Sci., 2022 12(1)e1606
     doi.org/10.1002/wcms.1606
  2. Grimme,S.; Hansen,A.; Ehlert,S.; Mewes,J.
     r2SCAN-3c: A 'Swiss army knife' composite electronic-structure method
     J. Chem. Phys., 2021 154 064103
     doi.org/10.1063/5.0040021

List of papers to cite with high priority. The work reported in these papers was absolutely
necessary for this run to complete.
Our perspective: the developers of density functionals and basis sets usually get cited in chemistry papers
Good! But without the algorithms to do something with them, the functionals or basis sets would not do anything.
Hence, in our opinion, the algorithm design and method developments papers are equally worthy of getting cited

  1. Neese,F.
     An improvement of the resolution of the identity approximation for the formation of the Coulomb matrix
     J. Comp. Chem., 2003 24(14)1740-1747
     doi.org/10.1002/jcc.10318
  2. Neese,F.
     The SHARK Integral Generation and Digestion System
     J. Comp. Chem., 2022  1-16
     doi.org/10.1002/jcc.26942
  3. Lehtola,S.; Steigemann,C.; Oliveira,M.; Marques,M.
     Recent developments in Libxc - A comprehensive library of functionals for density functional theory
     Software X, 2018 7 
     doi.org/10.1016/j.softx.2017.11.002
  4. Caldeweyher,E.; Bannwarth,C.; Grimme,S.
     Extension of the D3 dispersion coefficient model
     J. Chem. Phys., 2017 147 034112
     doi.org/10.1063/1.4993215
  5. Caldeweyher,E.; Ehlert,S.; Hansen,A.; Neugebauer,H.; Spicher,S.; Bannwarth,C.; Grimme,S.
     A generally applicable atomic-charge dependent London dispersion correction
     J. Chem. Phys., 2019 150 154122
     doi.org/10.1063/1.5090222
  6. Caldeweyher,E.; Mewes,J.; Ehlert,S.; Grimme,S.
     Extension and evaluation of the D4 London-dispersion model for periodic systems
     Phys. Chem. Chem. Phys., 2020 22(16)8499-8512
     doi.org/10.1039/D0CP00502A
  7. Wittmann,L.; Gordiy,I.; Friede,M.; Helmich-Paris,B.; Grimme,S.; Hansen,A.; Bursch,M.
     Extension of the D3 and D4 London Dispersion Corrections to the full Actinides Series
     Phys. Chem. Chem. Phys., 2024 26(32)21379-21394
     doi.org/https://doi.org/10.1039/D4CP01514B 

List of suggested additional citations. These are papers that are important in the 'surrounding' of 
of this run, or papers that preceded the highly important papers. If you like your results we are grateful for a citation.

  1. Neese,F.
     The ORCA program system
     WIRES Comput. Molec. Sci., 2012 2(1)73-78
     doi.org/10.1002/wcms.81
  2. Neese,F.
     Software update: the ORCA program system, version 4.0
     WIRES Comput. Molec. Sci., 2018 8(1)1-6
     doi.org/10.1002/wcms.1327
  3. Neese,F.; Wennmohs,F.; Becker,U.; Riplinger,C.
     The ORCA quantum chemistry program package
     J. Chem. Phys., 2020 152 Art. No. L224108
     doi.org/10.1063/5.0004608

List of optional additional citations

  1. Neese,F.
     Approximate second-order SCF convergence for spin unrestricted wavefunctions
     Chem. Phys. Lett., 2000 325(1-3)93-98
     doi.org/10.1016/s0009-2614(00)00662-x

Timings for individual modules:

Sum of individual times          ...       43.371 sec (=   0.723 min)
Startup calculation              ...        1.220 sec (=   0.020 min)   2.8 %
SCF iterations                   ...       42.097 sec (=   0.702 min)  97.1 %
Property calculations            ...        0.054 sec (=   0.001 min)   0.1 %
                             ****ORCA TERMINATED NORMALLY****
TOTAL RUN TIME: 0 days 0 hours 0 minutes 43 seconds 513 msec
