 Entering Gaussian System
 *********************************************
 Gaussian 98:
 frequency output generated by the xtb code
 *********************************************
                         Standard orientation:
 --------------------------------------------------------------------
  Center     Atomic     Atomic              Coordinates (Angstroms)
  Number     Number      Type              X           Y           Z
 --------------------------------------------------------------------
    1          6             0       -2.560861    0.622523    0.000036
    2          6             0       -1.225777   -0.057601    0.000046
    3          6             0       -1.149177   -1.444633    0.000089
    4          6             0        0.075656   -2.083336    0.000062
    5          6             0        1.240031   -1.338741    0.000008
    6          6             0        1.176881    0.048057   -0.000037
    7          6             0       -0.057276    0.703454   -0.000041
    8          6             0       -0.107555    2.201286   -0.000129
    9          8             0        2.317856    0.802236   -0.000087
   10          1             0       -2.668219    1.256181   -0.879663
   11          1             0       -3.365161   -0.108516    0.000805
   12          1             0       -2.667637    1.257433    0.878891
   13          1             0       -2.058313   -2.027919    0.000145
   14          1             0        0.127982   -3.161827    0.000088
   15          1             0        2.204578   -1.830412   -0.000001
   16          1             0       -0.635027    2.566616   -0.880656
   17          1             0       -0.634209    2.566743    0.880840
   18          1             0        0.899197    2.606719   -0.000604
   19          1             0        3.083221    0.215966   -0.000074
 --------------------------------------------------------------------
     1 basis functions        1 primitive gaussians
     1 alpha electrons        1 beta electrons

 Harmonic frequencies (cm**-1), IR intensities (km*mol⁻¹),
 Raman scattering activities (A**4/amu), Raman depolarization ratios,
 reduced masses (AMU), force constants (mDyne/A) and normal coordinates:
                      1                      2                      3
                        a                      a                      a 
 Frequencies --   105.4042               130.1237               168.4107
 Red. masses --     1.0470                 3.1236                 1.0959
 Frc consts  --     0.0000                 0.0000                 0.0000
 IR Inten    --     0.0875                 0.0055                 1.2598
 Raman Activ --     0.0000                 0.0000                 0.0000
 Depolar     --     0.0000                 0.0000                 0.0000
 Atom AN      X      Y      Z        X      Y      Z        X      Y      Z
   1   6     0.00   0.00  -0.01     0.00   0.00   0.43     0.00   0.00   0.06
   2   6     0.00  -0.00   0.00     0.00  -0.00   0.03    -0.00  -0.00  -0.14
   3   6    -0.00  -0.00   0.04    -0.00  -0.00  -0.08    -0.00  -0.00  -0.10
   4   6     0.00  -0.00   0.08    -0.00  -0.00  -0.24     0.00  -0.00   0.10
   5   6     0.00  -0.00   0.02     0.00  -0.00  -0.06     0.00  -0.00   0.16
   6   6     0.00   0.00  -0.03     0.00  -0.00   0.06    -0.00  -0.00  -0.02
   7   6     0.00  -0.00   0.03     0.00  -0.00  -0.12    -0.00  -0.00  -0.12
   8   6    -0.00  -0.00   0.05    -0.00  -0.00  -0.52    -0.00  -0.00   0.01
   9   8     0.00  -0.00  -0.17     0.00   0.00   0.45    -0.00   0.00  -0.05
  10   1     0.14   0.28   0.18    -0.05   0.08   0.19     0.11   0.35   0.26
  11   1    -0.00  -0.00  -0.35     0.00  -0.00   0.11    -0.00  -0.00  -0.37
  12   1    -0.14  -0.28   0.18     0.05  -0.08   0.19    -0.11  -0.35   0.26
  13   1     0.00  -0.00   0.01    -0.00  -0.00  -0.02     0.00  -0.00  -0.04
  14   1     0.00  -0.00   0.04    -0.00  -0.00  -0.12     0.00  -0.00   0.07
  15   1     0.00  -0.00  -0.00     0.00  -0.00  -0.00     0.00   0.00   0.10
  16   1     0.38   0.01  -0.21     0.06  -0.08  -0.22    -0.30   0.03   0.19
  17   1    -0.38  -0.01  -0.21    -0.06   0.08  -0.22     0.30  -0.03   0.19
  18   1     0.00   0.00   0.44     0.00  -0.00  -0.12    -0.00  -0.00  -0.32
  19   1     0.00  -0.00  -0.04     0.00   0.00   0.15    -0.00   0.00   0.01
                      4                      5                      6
                        a                      a                      a 
 Frequencies --   218.2567               273.3875               306.4298
 Red. masses --     2.9033                 3.0102                 2.6670
 Frc consts  --     0.0000                 0.0000                 0.0000
 IR Inten    --     2.4048                 6.1580                 0.3463
 Raman Activ --     0.0000                 0.0000                 0.0000
 Depolar     --     0.0000                 0.0000                 0.0000
 Atom AN      X      Y      Z        X      Y      Z        X      Y      Z
   1   6     0.00   0.00  -0.27    -0.00  -0.00   0.13     0.36   0.47   0.00
   2   6     0.00  -0.00   0.17    -0.00   0.00  -0.36     0.04  -0.12  -0.00
   3   6     0.00  -0.00   0.50     0.00   0.00   0.10    -0.03  -0.11  -0.00
   4   6     0.00  -0.00  -0.03     0.00   0.00   0.25     0.02  -0.05   0.00
   5   6    -0.00  -0.00  -0.50    -0.00   0.00  -0.13     0.04  -0.05   0.00
   6   6    -0.00  -0.00  -0.07    -0.00  -0.00  -0.34     0.07  -0.04  -0.00
   7   6    -0.00  -0.00   0.04    -0.00   0.00  -0.51     0.03  -0.15  -0.00
   8   6    -0.00  -0.00  -0.06     0.00   0.00   0.20    -0.47  -0.19   0.00
   9   8    -0.00   0.00   0.30    -0.00   0.00   0.25    -0.02   0.10   0.00
  10   1     0.14   0.07  -0.04    -0.12  -0.01   0.05     0.20   0.15   0.00
  11   1    -0.00  -0.00  -0.26     0.00  -0.00   0.16    -0.01   0.26   0.00
  12   1    -0.14  -0.07  -0.04     0.12   0.01   0.05     0.20   0.15  -0.00
  13   1     0.00  -0.00   0.26     0.00   0.00   0.15    -0.01  -0.03   0.00
  14   1     0.00  -0.00  -0.03     0.00   0.00   0.22     0.02  -0.01   0.00
  15   1    -0.00  -0.00  -0.28     0.00   0.00   0.03     0.01  -0.02   0.00
  16   1    -0.07  -0.02   0.02     0.06   0.15   0.09    -0.17  -0.11   0.00
  17   1     0.07   0.02   0.02    -0.06  -0.15   0.09    -0.17  -0.11   0.00
  18   1    -0.00  -0.00  -0.11     0.00   0.00   0.20    -0.18   0.06   0.00
  19   1    -0.00   0.00   0.01    -0.00   0.00   0.20     0.02   0.06   0.00
                      7                      8                      9
                        a                      a                      a 
 Frequencies --   314.4680               414.8983               461.6701
 Red. masses --     3.7657                 1.1383                 4.1709
 Frc consts  --     0.0000                 0.0000                 0.0000
 IR Inten    --     6.0331               144.8937                 0.1930
 Raman Activ --     0.0000                 0.0000                 0.0000
 Depolar     --     0.0000                 0.0000                 0.0000
 Atom AN      X      Y      Z        X      Y      Z        X      Y      Z
   1   6     0.04   0.17  -0.00     0.00  -0.00  -0.03    -0.25  -0.05  -0.00
   2   6    -0.09  -0.10   0.00     0.00   0.00   0.15    -0.09   0.15  -0.00
   3   6    -0.01  -0.11  -0.00     0.00  -0.00   0.05    -0.21   0.19   0.00
   4   6     0.04  -0.05  -0.00    -0.00  -0.00  -0.13    -0.19   0.26  -0.00
   5   6     0.08  -0.07   0.00    -0.00   0.00   0.04     0.09  -0.09   0.00
   6   6    -0.07  -0.09   0.00    -0.00  -0.00  -0.03     0.35  -0.08   0.00
   7   6    -0.08  -0.17   0.00    -0.00   0.00   0.02     0.20  -0.27  -0.00
   8   6     0.46  -0.17  -0.00     0.00   0.00   0.02    -0.04  -0.37   0.00
   9   8    -0.47   0.45  -0.00    -0.00  -0.00  -0.28     0.24   0.31  -0.00
  10   1     0.07   0.06   0.00     0.05  -0.01  -0.02    -0.14  -0.03  -0.00
  11   1    -0.04   0.11   0.00    -0.00   0.00  -0.04     0.00  -0.10  -0.00
  12   1     0.07   0.06  -0.00    -0.05   0.01  -0.02    -0.14  -0.03   0.00
  13   1     0.01  -0.05  -0.00    -0.00   0.00   0.01    -0.05   0.04   0.00
  14   1     0.01  -0.01  -0.00    -0.00  -0.00  -0.08    -0.10   0.07  -0.00
  15   1     0.02  -0.02  -0.00    -0.00   0.00   0.02    -0.03  -0.13   0.00
  16   1     0.18   0.02  -0.00    -0.01   0.00   0.01    -0.05  -0.15   0.00
  17   1     0.18   0.02   0.00     0.01  -0.00   0.01    -0.05  -0.15  -0.00
  18   1     0.18  -0.17   0.00    -0.00  -0.00  -0.01    -0.05  -0.02  -0.00
  19   1    -0.03   0.22  -0.00     0.00   0.00   0.93     0.11   0.15   0.00
                     10                     11                     12
                        a                      a                      a 
 Frequencies --   478.8202               484.8816               513.4125
 Red. masses --     3.1609                 3.9688                 6.3053
 Frc consts  --     0.0000                 0.0000                 0.0000
 IR Inten    --     3.4474                 5.0391                 1.2170
 Raman Activ --     0.0000                 0.0000                 0.0000
 Depolar     --     0.0000                 0.0000                 0.0000
 Atom AN      X      Y      Z        X      Y      Z        X      Y      Z
   1   6    -0.00   0.00   0.03     0.29  -0.24   0.00    -0.24   0.17  -0.00
   2   6    -0.00  -0.00  -0.24     0.36   0.12  -0.00    -0.09   0.29  -0.00
   3   6     0.00  -0.00  -0.29    -0.02   0.12  -0.00     0.35   0.30   0.00
   4   6     0.00   0.00   0.46    -0.25  -0.21   0.00     0.24  -0.00  -0.00
   5   6     0.00   0.00  -0.38    -0.18  -0.25  -0.00     0.37  -0.28   0.00
   6   6     0.00   0.00  -0.03     0.04  -0.18  -0.00    -0.09  -0.30   0.00
   7   6    -0.00  -0.00   0.49     0.25   0.17   0.00     0.03   0.01  -0.00
   8   6     0.00  -0.00  -0.04    -0.07   0.20  -0.00    -0.11   0.01   0.00
   9   8     0.00  -0.00   0.00    -0.30   0.24   0.00    -0.32  -0.20  -0.00
  10   1    -0.08   0.03   0.04     0.01  -0.08  -0.00    -0.10   0.04  -0.00
  11   1    -0.00   0.00   0.06     0.15  -0.15  -0.00    -0.03   0.01   0.00
  12   1     0.08  -0.03   0.04     0.01  -0.08   0.00    -0.10   0.04   0.00
  13   1     0.00  -0.00  -0.14    -0.07   0.14  -0.00     0.12   0.06   0.00
  14   1     0.00   0.00   0.28    -0.12  -0.06   0.00    -0.05  -0.01  -0.00
  15   1     0.00   0.00  -0.20    -0.06  -0.10  -0.00     0.12  -0.04  -0.00
  16   1    -0.01  -0.15  -0.07    -0.06  -0.00   0.00    -0.07  -0.04   0.00
  17   1     0.01   0.15  -0.07    -0.06  -0.00  -0.00    -0.07  -0.04  -0.00
  18   1     0.00  -0.00  -0.10    -0.07   0.16  -0.00    -0.07   0.08  -0.00
  19   1     0.00  -0.00   0.17     0.02   0.18   0.00    -0.04  -0.00   0.00
                     13                     14                     15
                        a                      a                      a 
 Frequencies --   539.4896               662.6891               705.9567
 Red. masses --     4.5252                 5.2239                 4.8347
 Frc consts  --     0.0000                 0.0000                 0.0000
 IR Inten    --     7.5458                 3.3642                 2.5402
 Raman Activ --     0.0000                 0.0000                 0.0000
 Depolar     --     0.0000                 0.0000                 0.0000
 Atom AN      X      Y      Z        X      Y      Z        X      Y      Z
   1   6    -0.00   0.00   0.01    -0.00   0.00  -0.04    -0.36   0.19  -0.00
   2   6    -0.00   0.00   0.57    -0.00  -0.00  -0.34    -0.14  -0.06   0.00
   3   6     0.00   0.00  -0.30     0.00  -0.00   0.27     0.04  -0.22  -0.00
   4   6     0.00   0.00   0.14    -0.00  -0.00  -0.30     0.01  -0.47   0.00
   5   6     0.00   0.00   0.04     0.00  -0.00   0.29    -0.02  -0.24  -0.00
   6   6    -0.00  -0.00  -0.61     0.00  -0.00  -0.55     0.17  -0.05   0.00
   7   6    -0.00  -0.00  -0.02     0.00   0.00   0.45     0.01   0.09  -0.00
   8   6     0.00  -0.00  -0.01    -0.00   0.00   0.05    -0.02   0.36  -0.00
   9   8     0.00  -0.00   0.21     0.00   0.00   0.08     0.32   0.26  -0.00
  10   1     0.16  -0.07  -0.07    -0.08   0.04   0.02    -0.06   0.06   0.00
  11   1    -0.00   0.00  -0.10     0.00  -0.00   0.03    -0.15   0.11  -0.00
  12   1    -0.16   0.07  -0.07     0.08  -0.04   0.02    -0.06   0.06  -0.00
  13   1     0.00  -0.00  -0.19     0.00  -0.00   0.14     0.00  -0.06  -0.00
  14   1     0.00   0.00   0.12    -0.00  -0.00  -0.00    -0.00  -0.13  -0.00
  15   1     0.00   0.00   0.15     0.00  -0.00   0.19    -0.01  -0.08  -0.00
  16   1    -0.00  -0.00  -0.00    -0.00  -0.14  -0.04    -0.00   0.10   0.00
  17   1     0.00   0.00  -0.00     0.00   0.14  -0.04    -0.00   0.10  -0.00
  18   1     0.00  -0.00  -0.01    -0.00  -0.00  -0.06    -0.01   0.10   0.00
  19   1    -0.00  -0.00  -0.03     0.00   0.00  -0.01     0.12   0.12  -0.00
                     16                     17                     18
                        a                      a                      a 
 Frequencies --   790.5561               809.0279               873.3373
 Red. masses --     1.2294                 4.9770                 1.3077
 Frc consts  --     0.0000                 0.0000                 0.0000
 IR Inten    --    22.2532                 3.1241                 0.1771
 Raman Activ --     0.0000                 0.0000                 0.0000
 Depolar     --     0.0000                 0.0000                 0.0000
 Atom AN      X      Y      Z        X      Y      Z        X      Y      Z
   1   6     0.00   0.00   0.03     0.08  -0.10   0.00     0.00  -0.00   0.03
   2   6    -0.00  -0.00   0.06    -0.07  -0.18  -0.00    -0.00   0.00   0.04
   3   6    -0.00  -0.00  -0.19    -0.37  -0.19   0.00    -0.00   0.00  -0.34
   4   6    -0.00   0.00  -0.23    -0.03   0.46   0.00    -0.00  -0.00  -0.06
   5   6     0.00  -0.00  -0.25     0.41  -0.19   0.00     0.00   0.00   0.36
   6   6     0.00  -0.00   0.19     0.09  -0.19   0.00    -0.00   0.00  -0.06
   7   6    -0.00   0.00   0.02    -0.02  -0.00  -0.00    -0.00   0.00   0.00
   8   6    -0.00   0.00   0.02    -0.04   0.42  -0.00    -0.00  -0.00  -0.00
   9   8     0.00  -0.00  -0.05    -0.07  -0.08   0.00     0.00   0.00   0.01
  10   1     0.06  -0.03  -0.02     0.07  -0.02   0.00     0.05  -0.03  -0.02
  11   1    -0.00   0.00  -0.04    -0.03   0.03  -0.00    -0.00   0.00  -0.03
  12   1    -0.06   0.03  -0.02     0.08  -0.02  -0.00    -0.05   0.03  -0.02
  13   1     0.00  -0.00   0.50    -0.04  -0.14  -0.00     0.00   0.00   0.58
  14   1     0.00   0.00   0.49    -0.02   0.12  -0.00    -0.00  -0.00   0.13
  15   1     0.00  -0.00   0.54     0.05  -0.16  -0.00    -0.00  -0.00  -0.62
  16   1     0.00  -0.05  -0.02     0.00   0.13  -0.00    -0.00   0.00   0.00
  17   1    -0.00   0.05  -0.02     0.00   0.13   0.00     0.00  -0.00   0.00
  18   1    -0.00  -0.00  -0.02    -0.00   0.10  -0.00     0.00  -0.00   0.00
  19   1     0.00   0.00  -0.01     0.03   0.04  -0.00     0.00  -0.00   0.01
                     19                     20                     21
                        a                      a                      a 
 Frequencies --   915.1437               932.9240              1006.9537
 Red. masses --     1.2333                 2.2032                 1.3340
 Frc consts  --     0.0000                 0.0000                 0.0000
 IR Inten    --     0.0100                17.8713                 7.5112
 Raman Activ --     0.0000                 0.0000                 0.0000
 Depolar     --     0.0000                 0.0000                 0.0000
 Atom AN      X      Y      Z        X      Y      Z        X      Y      Z
   1   6    -0.00  -0.00  -0.01     0.21  -0.20   0.00    -0.15  -0.34  -0.00
   2   6    -0.00   0.00  -0.03    -0.15   0.03  -0.00    -0.10  -0.09   0.00
   3   6    -0.00   0.00  -0.21     0.17   0.30   0.00     0.12   0.18  -0.00
   4   6     0.00   0.00   0.36    -0.08  -0.02   0.00    -0.01   0.06  -0.00
   5   6    -0.00  -0.00  -0.12     0.10  -0.22  -0.00    -0.10  -0.00   0.00
   6   6     0.00   0.00  -0.06    -0.11  -0.02   0.00    -0.02   0.03   0.00
   7   6     0.00   0.00   0.05    -0.36  -0.00   0.00     0.09   0.00   0.00
   8   6     0.00  -0.00   0.03    -0.24  -0.04   0.00     0.20   0.01  -0.00
   9   8    -0.00   0.00   0.00     0.28   0.16  -0.00     0.00   0.02  -0.00
  10   1    -0.01   0.01   0.00     0.17  -0.03   0.00     0.35   0.02   0.03
  11   1    -0.00   0.00   0.00    -0.03   0.04   0.00    -0.43   0.35   0.00
  12   1     0.01  -0.01   0.00     0.17  -0.03  -0.00     0.35   0.02  -0.03
  13   1     0.00   0.00   0.45     0.03   0.12  -0.00     0.01   0.08  -0.00
  14   1    -0.00  -0.00  -0.72    -0.25  -0.02  -0.00    -0.08   0.02   0.00
  15   1     0.00   0.00   0.29     0.01  -0.10   0.00    -0.04  -0.02   0.00
  16   1     0.00  -0.04  -0.01     0.11   0.20  -0.01    -0.09  -0.16   0.01
  17   1    -0.00   0.04  -0.01     0.11   0.20   0.01    -0.09  -0.16  -0.01
  18   1    -0.00  -0.00  -0.02     0.09  -0.39   0.00    -0.07   0.31  -0.00
  19   1    -0.00  -0.00  -0.01     0.03  -0.00   0.00    -0.02  -0.02   0.00
                     22                     23                     24
                        a                      a                      a 
 Frequencies --  1024.5628              1037.9207              1080.7597
 Red. masses --     1.4012                 1.4619                 1.9336
 Frc consts  --     0.0000                 0.0000                 0.0000
 IR Inten    --    12.9686                 0.2460               140.3249
 Raman Activ --     0.0000                 0.0000                 0.0000
 Depolar     --     0.0000                 0.0000                 0.0000
 Atom AN      X      Y      Z        X      Y      Z        X      Y      Z
   1   6     0.00  -0.00  -0.37     0.00   0.00   0.23     0.24   0.05  -0.00
   2   6     0.00   0.00   0.30    -0.00  -0.00  -0.22    -0.21  -0.01   0.00
   3   6    -0.00  -0.00  -0.07    -0.00  -0.00   0.01    -0.12   0.01  -0.00
   4   6    -0.00   0.00  -0.03     0.00  -0.00   0.02     0.00  -0.09   0.00
   5   6     0.00   0.00  -0.01     0.00  -0.00  -0.03     0.20  -0.17   0.00
   6   6     0.00  -0.00  -0.03    -0.00   0.00  -0.02    -0.31   0.10   0.00
   7   6    -0.00   0.00   0.16    -0.00   0.00   0.32    -0.20   0.05  -0.00
   8   6    -0.00   0.00  -0.23     0.00   0.00  -0.36     0.28  -0.00   0.00
   9   8    -0.00  -0.00   0.01     0.00   0.00   0.00     0.23   0.22  -0.00
  10   1    -0.39   0.23   0.13     0.24  -0.14  -0.08    -0.08  -0.03  -0.01
  11   1     0.00  -0.00   0.20    -0.00   0.00  -0.12     0.21  -0.16   0.00
  12   1     0.39  -0.23   0.13    -0.24   0.14  -0.08    -0.08  -0.03   0.01
  13   1     0.00  -0.00   0.08    -0.00   0.00   0.01    -0.01  -0.04  -0.00
  14   1     0.00   0.00   0.05    -0.00  -0.00  -0.03    -0.20  -0.04   0.00
  15   1    -0.00  -0.00   0.04     0.00   0.00   0.04     0.10   0.04  -0.00
  16   1    -0.02   0.29   0.08    -0.04   0.45   0.13    -0.12  -0.22   0.02
  17   1     0.02  -0.29   0.08     0.04  -0.45   0.13    -0.12  -0.22  -0.02
  18   1     0.00   0.00   0.13     0.00   0.00   0.19    -0.08   0.34  -0.00
  19   1     0.00   0.00   0.01    -0.00  -0.00   0.00    -0.17  -0.25   0.00
                     25                     26                     27
                        a                      a                      a 
 Frequencies --  1124.0077              1158.5831              1193.7048
 Red. masses --     1.8441                 1.2136                 1.1904
 Frc consts  --     0.0000                 0.0000                 0.0000
 IR Inten    --     0.9199                45.1097                 4.1743
 Raman Activ --     0.0000                 0.0000                 0.0000
 Depolar     --     0.0000                 0.0000                 0.0000
 Atom AN      X      Y      Z        X      Y      Z        X      Y      Z
   1   6    -0.15  -0.06  -0.00    -0.13   0.05  -0.00    -0.11   0.05   0.00
   2   6     0.23   0.06   0.00     0.18  -0.06   0.00     0.14  -0.14   0.00
   3   6    -0.37  -0.05   0.00     0.07  -0.04  -0.00     0.06  -0.05   0.00
   4   6     0.01  -0.21  -0.00     0.04   0.07  -0.00    -0.10   0.01   0.00
   5   6     0.37  -0.03  -0.00    -0.01  -0.13   0.00     0.02   0.05  -0.00
   6   6    -0.06   0.09  -0.00     0.02   0.15  -0.00     0.12   0.15  -0.00
   7   6     0.10   0.21  -0.00     0.14   0.06  -0.00     0.21  -0.04  -0.00
   8   6    -0.07  -0.16   0.00    -0.07  -0.04   0.00    -0.06   0.01  -0.00
   9   8    -0.02   0.02  -0.00    -0.06   0.20  -0.00    -0.11  -0.01   0.00
  10   1     0.03   0.02   0.01    -0.03   0.02   0.00    -0.02   0.01   0.00
  11   1    -0.16   0.12   0.00    -0.06   0.04   0.00    -0.04   0.02  -0.00
  12   1     0.03   0.02  -0.01    -0.03   0.02  -0.00    -0.02   0.01  -0.00
  13   1    -0.35   0.37   0.00     0.03  -0.02   0.00     0.20  -0.30  -0.00
  14   1     0.04  -0.06   0.00     0.09   0.02  -0.00    -0.75  -0.03   0.00
  15   1     0.26   0.29  -0.00    -0.24  -0.50   0.00     0.15   0.28  -0.00
  16   1     0.03   0.00  -0.01     0.04   0.04  -0.01     0.04   0.05  -0.01
  17   1     0.03   0.00   0.01     0.04   0.04   0.01     0.04   0.05   0.01
  18   1     0.03  -0.16   0.00     0.02  -0.10   0.00     0.01  -0.06   0.00
  19   1    -0.10  -0.13   0.00    -0.45  -0.53   0.00    -0.11  -0.11   0.00
                     28                     29                     30
                        a                      a                      a 
 Frequencies --  1208.6699              1258.3019              1307.2011
 Red. masses --     2.9922                 1.4769                 3.8466
 Frc consts  --     0.0000                 0.0000                 0.0000
 IR Inten    --     7.4509                47.7410               129.8815
 Raman Activ --     0.0000                 0.0000                 0.0000
 Depolar     --     0.0000                 0.0000                 0.0000
 Atom AN      X      Y      Z        X      Y      Z        X      Y      Z
   1   6    -0.11   0.02  -0.00     0.04  -0.12   0.00    -0.10   0.12  -0.00
   2   6     0.29   0.02  -0.00    -0.16   0.28  -0.00     0.23  -0.38   0.00
   3   6     0.00  -0.18   0.00    -0.21   0.13   0.00     0.14   0.10  -0.00
   4   6    -0.03   0.18  -0.00    -0.01  -0.07   0.00     0.06   0.30  -0.00
   5   6     0.00  -0.13   0.00    -0.12  -0.15   0.00    -0.26  -0.15   0.00
   6   6    -0.32  -0.11   0.00    -0.06  -0.15   0.00    -0.36  -0.29   0.00
   7   6    -0.06   0.57  -0.00     0.26   0.01  -0.00     0.13  -0.23   0.00
   8   6     0.03  -0.27   0.00    -0.09  -0.01   0.00    -0.03   0.15  -0.00
   9   8     0.15   0.01  -0.00     0.06   0.14  -0.00     0.20   0.18  -0.00
  10   1    -0.01   0.03   0.01     0.12   0.01   0.01    -0.11  -0.01  -0.02
  11   1    -0.09   0.07   0.00    -0.00  -0.01   0.00    -0.03   0.02  -0.00
  12   1    -0.01   0.03  -0.01     0.12   0.01  -0.01    -0.11  -0.01   0.02
  13   1     0.15  -0.28   0.00     0.26  -0.47  -0.00    -0.07   0.21   0.00
  14   1    -0.04   0.05   0.00     0.37  -0.00  -0.00     0.07   0.09  -0.00
  15   1    -0.06  -0.13   0.00     0.16   0.33  -0.00     0.09   0.30  -0.00
  16   1    -0.03  -0.13  -0.00     0.04   0.05  -0.02     0.02   0.01  -0.02
  17   1    -0.03  -0.13   0.00     0.04   0.05   0.02     0.02   0.01   0.02
  18   1     0.02  -0.12   0.00     0.01  -0.08   0.00     0.01  -0.01   0.00
  19   1     0.19   0.22  -0.00    -0.15  -0.18   0.00    -0.03  -0.06   0.00
                     31                     32                     33
                        a                      a                      a 
 Frequencies --  1339.7141              1400.4817              1407.6744
 Red. masses --     5.7106                 1.2623                 1.2160
 Frc consts  --     0.0000                 0.0000                 0.0000
 IR Inten    --    32.7385                 0.1799                 6.7201
 Raman Activ --     0.0000                 0.0000                 0.0000
 Depolar     --     0.0000                 0.0000                 0.0000
 Atom AN      X      Y      Z        X      Y      Z        X      Y      Z
   1   6    -0.03  -0.04   0.00     0.23  -0.15   0.00    -0.29   0.19  -0.00
   2   6     0.23   0.30  -0.00    -0.07   0.03   0.00     0.01   0.01  -0.00
   3   6     0.24  -0.29  -0.00    -0.02   0.03  -0.00     0.00  -0.03   0.00
   4   6    -0.40   0.05   0.00     0.01  -0.04  -0.00    -0.01  -0.01   0.00
   5   6     0.11   0.28  -0.00     0.00   0.02  -0.00     0.02   0.05  -0.00
   6   6     0.14  -0.41   0.00     0.05   0.03  -0.00     0.00  -0.02  -0.00
   7   6    -0.36  -0.10   0.00     0.02  -0.04   0.00     0.01  -0.01  -0.00
   8   6     0.05   0.05   0.00    -0.04   0.36   0.00    -0.03   0.25  -0.00
   9   8     0.06   0.12  -0.00    -0.03  -0.01   0.00    -0.00   0.00  -0.00
  10   1     0.02   0.04   0.03    -0.25   0.12   0.13     0.36  -0.18  -0.19
  11   1    -0.06   0.05   0.00    -0.18   0.21  -0.00     0.25  -0.28   0.00
  12   1     0.02   0.04  -0.03    -0.25   0.12  -0.13     0.36  -0.18   0.19
  13   1     0.02  -0.00   0.00     0.02  -0.02  -0.00    -0.03   0.03   0.00
  14   1     0.04   0.02  -0.00    -0.00  -0.01   0.00    -0.02  -0.00  -0.00
  15   1     0.05   0.12  -0.00    -0.01  -0.01   0.00    -0.01  -0.01  -0.00
  16   1    -0.05  -0.02   0.02    -0.02  -0.38  -0.16    -0.01  -0.29  -0.12
  17   1    -0.05  -0.02  -0.02    -0.02  -0.38   0.16    -0.01  -0.29   0.12
  18   1    -0.01   0.05  -0.00     0.16  -0.38  -0.00     0.11  -0.27   0.00
  19   1    -0.15  -0.19   0.00    -0.01  -0.00  -0.00    -0.00  -0.00  -0.00
                     34                     35                     36
                        a                      a                      a 
 Frequencies --  1457.0761              1474.4569              1479.3977
 Red. masses --     2.1703                 1.0581                 1.7433
 Frc consts  --     0.0000                 0.0000                 0.0000
 IR Inten    --    48.3506                 0.2776                20.4042
 Raman Activ --     0.0000                 0.0000                 0.0000
 Depolar     --     0.0000                 0.0000                 0.0000
 Atom AN      X      Y      Z        X      Y      Z        X      Y      Z
   1   6    -0.02  -0.12   0.00    -0.00  -0.00  -0.15     0.12  -0.00  -0.00
   2   6    -0.09   0.29   0.00     0.00  -0.00  -0.03    -0.32   0.10  -0.00
   3   6    -0.09  -0.23   0.00    -0.00   0.00  -0.00     0.02  -0.20   0.00
   4   6     0.32  -0.02  -0.00    -0.00  -0.00   0.00     0.26   0.09  -0.00
   5   6    -0.04   0.26  -0.00     0.00  -0.00  -0.00    -0.18   0.08   0.00
   6   6    -0.31  -0.23   0.00    -0.00   0.00   0.00     0.10  -0.27   0.00
   7   6     0.22  -0.12   0.00    -0.00  -0.00   0.03     0.19   0.22  -0.00
   8   6    -0.13  -0.00   0.00     0.00   0.00   0.16     0.10  -0.03  -0.00
   9   8     0.10   0.06  -0.00     0.00  -0.00   0.00    -0.00   0.07  -0.00
  10   1     0.08   0.18   0.13     0.28   0.14   0.05    -0.02  -0.11  -0.08
  11   1     0.08  -0.10  -0.00     0.00   0.00   0.49    -0.03   0.05   0.00
  12   1     0.09   0.18  -0.13    -0.28  -0.13   0.05    -0.02  -0.11   0.08
  13   1    -0.12   0.07   0.00     0.00  -0.00   0.00    -0.13   0.14   0.00
  14   1    -0.26  -0.02   0.00     0.00  -0.00  -0.00    -0.18   0.02   0.00
  15   1    -0.14  -0.15   0.00     0.00  -0.00   0.00    -0.04   0.04  -0.00
  16   1     0.22   0.01  -0.14     0.26   0.21  -0.06    -0.32   0.08   0.23
  17   1     0.22   0.01   0.14    -0.26  -0.21  -0.06    -0.32   0.08  -0.23
  18   1    -0.07   0.12  -0.00    -0.00  -0.00  -0.53     0.11  -0.28   0.00
  19   1     0.02   0.02  -0.00     0.00   0.00  -0.00    -0.07  -0.08   0.00
                     37                     38                     39
                        a                      a                      a 
 Frequencies --  1488.8156              1489.3218              1491.7016
 Red. masses --     1.0571                 2.0823                 1.2087
 Frc consts  --     0.0000                 0.0000                 0.0000
 IR Inten    --    10.5214                10.5182                20.6003
 Raman Activ --     0.0000                 0.0000                 0.0000
 Depolar     --     0.0000                 0.0000                 0.0000
 Atom AN      X      Y      Z        X      Y      Z        X      Y      Z
   1   6     0.00   0.00   0.16     0.11   0.03  -0.00     0.14   0.10  -0.00
   2   6    -0.01  -0.00   0.02    -0.33  -0.10  -0.00     0.07   0.15  -0.00
   3   6     0.00  -0.00  -0.00     0.19  -0.17   0.00    -0.10   0.03   0.00
   4   6    -0.00   0.00  -0.00    -0.06   0.16   0.00     0.05  -0.10   0.00
   5   6    -0.00  -0.00  -0.00    -0.13  -0.15   0.00     0.08   0.19  -0.00
   6   6     0.01  -0.00  -0.00     0.30  -0.09   0.00    -0.16  -0.07   0.00
   7   6     0.00   0.01   0.02    -0.00   0.40  -0.00     0.04  -0.13   0.00
   8   6    -0.00  -0.00   0.15    -0.12  -0.14  -0.00    -0.06   0.01   0.00
   9   8    -0.00   0.00   0.00    -0.06   0.02  -0.00     0.05   0.01   0.00
  10   1    -0.30  -0.15  -0.06    -0.03  -0.08  -0.05    -0.12  -0.43  -0.29
  11   1     0.00  -0.00  -0.52     0.01   0.01   0.01    -0.26   0.31  -0.00
  12   1     0.30   0.15  -0.06    -0.05  -0.09   0.06    -0.12  -0.43   0.29
  13   1    -0.00   0.00  -0.00    -0.08   0.16   0.00     0.03  -0.09  -0.00
  14   1     0.00   0.00   0.00     0.01   0.05  -0.00    -0.05  -0.03   0.00
  15   1     0.00   0.00   0.00     0.07   0.16  -0.00    -0.06  -0.11   0.00
  16   1     0.25   0.19  -0.06     0.30  -0.09  -0.21     0.12   0.01  -0.07
  17   1    -0.24  -0.20  -0.05     0.31  -0.09   0.22     0.12   0.01   0.07
  18   1    -0.00   0.00  -0.49    -0.09   0.17   0.01    -0.04   0.09  -0.00
  19   1    -0.00  -0.00  -0.00    -0.08  -0.08   0.00     0.03   0.02  -0.00
                     40                     41                     42
                        a                      a                      a 
 Frequencies --  1593.7135              1603.8340              2997.9888
 Red. masses --     8.2730                 7.5591                 1.0923
 Frc consts  --     0.0000                 0.0000                 0.0000
 IR Inten    --    57.4700                 5.7763                47.7184
 Raman Activ --     0.0000                 0.0000                 0.0000
 Depolar     --     0.0000                 0.0000                 0.0000
 Atom AN      X      Y      Z        X      Y      Z        X      Y      Z
   1   6    -0.02  -0.02   0.00    -0.04   0.02   0.00     0.00  -0.00   0.09
   2   6     0.28   0.34  -0.00     0.13  -0.31   0.00     0.00  -0.00   0.00
   3   6    -0.15  -0.13   0.00    -0.30   0.42  -0.00     0.00   0.00   0.00
   4   6     0.45   0.14  -0.00     0.29  -0.16  -0.00     0.00  -0.00  -0.00
   5   6    -0.32  -0.38   0.00    -0.05   0.28  -0.00     0.00   0.00  -0.00
   6   6     0.21   0.16  -0.00     0.26  -0.42   0.00     0.00  -0.00   0.00
   7   6    -0.39  -0.16   0.00    -0.27   0.21  -0.00    -0.00   0.00   0.01
   8   6     0.03   0.02  -0.00     0.01  -0.03   0.00    -0.00   0.00   0.27
   9   8    -0.03  -0.01   0.00    -0.00   0.05  -0.00     0.00  -0.00  -0.00
  10   1     0.02  -0.03  -0.02    -0.01   0.04   0.03    -0.02   0.13  -0.17
  11   1    -0.05   0.05  -0.00     0.03  -0.03  -0.00     0.00   0.00   0.01
  12   1     0.02  -0.03   0.02    -0.01   0.04  -0.03     0.02  -0.13  -0.17
  13   1    -0.05  -0.01   0.00     0.06  -0.11  -0.00    -0.00  -0.00   0.00
  14   1    -0.10   0.03   0.00    -0.07  -0.05   0.00     0.00  -0.00  -0.00
  15   1     0.03   0.11  -0.00    -0.06  -0.03   0.00    -0.00   0.00   0.00
  16   1     0.01  -0.03  -0.01     0.03  -0.03  -0.03    -0.33   0.22  -0.50
  17   1     0.01  -0.03   0.01     0.03  -0.03   0.03     0.33  -0.22  -0.51
  18   1    -0.01   0.05   0.00    -0.02   0.05  -0.00     0.00   0.00   0.04
  19   1    -0.01  -0.01   0.00    -0.07  -0.08   0.00    -0.00   0.00   0.00
                     43                     44                     45
                        a                      a                      a 
 Frequencies --  3001.2573              3010.5038              3016.6814
 Red. masses --     1.0924                 1.0536                 1.0507
 Frc consts  --     0.0000                 0.0000                 0.0000
 IR Inten    --     9.4129                 5.0032                40.5531
 Raman Activ --     0.0000                 0.0000                 0.0000
 Depolar     --     0.0000                 0.0000                 0.0000
 Atom AN      X      Y      Z        X      Y      Z        X      Y      Z
   1   6     0.00  -0.00   0.27     0.00  -0.12  -0.00     0.01  -0.18  -0.00
   2   6     0.00  -0.00   0.01     0.00  -0.01  -0.00     0.01  -0.01  -0.00
   3   6     0.00   0.00   0.00     0.00   0.00  -0.00     0.00   0.00  -0.00
   4   6     0.00   0.00  -0.00     0.00   0.00   0.00     0.00   0.00   0.00
   5   6    -0.00   0.00   0.00     0.00  -0.00   0.00    -0.00  -0.00  -0.00
   6   6    -0.00  -0.00  -0.00     0.00  -0.00  -0.00    -0.00   0.00   0.00
   7   6    -0.00  -0.00  -0.00    -0.01   0.01  -0.00     0.00  -0.01   0.00
   8   6    -0.00  -0.00  -0.10    -0.16   0.09  -0.00     0.08  -0.06   0.00
   9   8    -0.00   0.00   0.00     0.00  -0.00   0.00    -0.00   0.00  -0.00
  10   1    -0.05   0.39  -0.51    -0.03   0.19  -0.29    -0.05   0.32  -0.49
  11   1     0.00   0.00   0.04     0.05   0.03  -0.00     0.04   0.01  -0.00
  12   1     0.05  -0.39  -0.50    -0.03   0.19   0.29    -0.05   0.33   0.50
  13   1    -0.00  -0.00   0.00    -0.01  -0.00  -0.00    -0.01  -0.00  -0.00
  14   1    -0.00  -0.00  -0.00     0.00  -0.00   0.00    -0.00   0.00   0.00
  15   1     0.00   0.00   0.00    -0.00   0.00  -0.00    -0.00   0.00  -0.00
  16   1     0.11  -0.07   0.17     0.27  -0.18   0.50    -0.16   0.11  -0.29
  17   1    -0.11   0.07   0.17     0.27  -0.18  -0.50    -0.16   0.11   0.29
  18   1     0.00   0.00  -0.01     0.01   0.02  -0.00     0.02  -0.00   0.00
  19   1     0.00  -0.00  -0.00    -0.00   0.00  -0.00     0.00  -0.00   0.00
                     46                     47                     48
                        a                      a                      a 
 Frequencies --  3046.3475              3050.5376              3072.2293
 Red. masses --     1.0663                 1.0798                 1.0703
 Frc consts  --     0.0000                 0.0000                 0.0000
 IR Inten    --    22.8061                41.5291                 6.3961
 Raman Activ --     0.0000                 0.0000                 0.0000
 Depolar     --     0.0000                 0.0000                 0.0000
 Atom AN      X      Y      Z        X      Y      Z        X      Y      Z
   1   6     0.19   0.16  -0.00     0.01   0.01  -0.00     0.00  -0.00  -0.00
   2   6     0.01   0.00  -0.00     0.00   0.00  -0.00    -0.00  -0.00  -0.00
   3   6    -0.02  -0.01   0.00     0.00  -0.00   0.00    -0.02  -0.01   0.00
   4   6     0.00   0.00   0.00     0.00  -0.04   0.00    -0.00   0.01  -0.00
   5   6     0.01  -0.01  -0.00    -0.24   0.12   0.00    -0.00   0.00  -0.00
   6   6     0.00   0.00   0.00    -0.01  -0.01   0.00     0.00   0.00   0.00
   7   6    -0.00  -0.00  -0.00     0.00   0.00  -0.00     0.01   0.00  -0.00
   8   6    -0.01   0.00  -0.00    -0.00   0.00  -0.00     0.23   0.09  -0.00
   9   8     0.00  -0.00   0.00     0.00   0.00  -0.00     0.00  -0.00   0.00
  10   1     0.02   0.06  -0.04     0.00   0.00  -0.00    -0.00   0.01  -0.01
  11   1    -0.70  -0.66   0.00    -0.03  -0.03   0.00    -0.01  -0.01   0.00
  12   1     0.02   0.06   0.04     0.00   0.00   0.00    -0.00   0.01   0.01
  13   1     0.06   0.04  -0.00    -0.00   0.00   0.00     0.06   0.04  -0.00
  14   1     0.00  -0.02   0.00    -0.01   0.18  -0.00     0.00  -0.04   0.00
  15   1    -0.04   0.02   0.00     0.84  -0.44  -0.00     0.00  -0.00  -0.00
  16   1     0.01  -0.01   0.02     0.00  -0.00   0.00     0.04   0.00   0.01
  17   1     0.01  -0.01  -0.02     0.00  -0.00  -0.00     0.04   0.00  -0.01
  18   1     0.02   0.01  -0.00    -0.00  -0.00   0.00    -0.90  -0.35   0.00
  19   1    -0.00  -0.00  -0.00     0.01   0.00  -0.00    -0.00   0.00  -0.00
                     49                     50                     51
                        a                      a                      a 
 Frequencies --  3076.0515              3090.0469              3529.4670
 Red. masses --     1.0778                 1.0882                 1.0649
 Frc consts  --     0.0000                 0.0000                 0.0000
 IR Inten    --    30.1886                62.3953                19.6187
 Raman Activ --     0.0000                 0.0000                 0.0000
 Depolar     --     0.0000                 0.0000                 0.0000
 Atom AN      X      Y      Z        X      Y      Z        X      Y      Z
   1   6    -0.01  -0.01   0.00    -0.01  -0.01   0.00    -0.00   0.00   0.00
   2   6    -0.01   0.00   0.00    -0.00   0.00   0.00    -0.00   0.00  -0.00
   3   6    -0.19  -0.12   0.00    -0.13  -0.08   0.00     0.00  -0.00  -0.00
   4   6    -0.01   0.13  -0.00     0.01  -0.24   0.00    -0.00  -0.00   0.00
   5   6    -0.03   0.02   0.00     0.04  -0.02  -0.00     0.00  -0.00  -0.00
   6   6    -0.00  -0.00   0.00     0.00   0.00  -0.00    -0.01   0.00   0.00
   7   6     0.00  -0.00   0.00     0.00   0.00  -0.00     0.00  -0.00   0.00
   8   6    -0.02  -0.01   0.00    -0.00  -0.00  -0.00     0.00   0.00  -0.00
   9   8     0.00   0.00  -0.00    -0.00  -0.00   0.00    -0.19   0.15  -0.00
  10   1    -0.00  -0.00  -0.00    -0.00   0.00  -0.00     0.00  -0.00   0.00
  11   1     0.05   0.05  -0.00     0.02   0.02  -0.00    -0.00  -0.00   0.00
  12   1    -0.00  -0.00   0.00    -0.00   0.00   0.00     0.00  -0.00  -0.00
  13   1     0.69   0.44  -0.00     0.42   0.27  -0.00    -0.00  -0.00  -0.00
  14   1     0.02  -0.49   0.00    -0.04   0.80  -0.00     0.00   0.00  -0.00
  15   1     0.08  -0.04  -0.00    -0.13   0.07   0.00    -0.01  -0.00   0.00
  16   1    -0.00   0.00  -0.00     0.00   0.00   0.00     0.00  -0.00   0.00
  17   1    -0.00   0.00   0.00     0.00   0.00  -0.00     0.00  -0.00  -0.00
  18   1     0.07   0.03  -0.00     0.00   0.00  -0.00    -0.00  -0.00   0.00
  19   1     0.00  -0.00   0.00    -0.00   0.00   0.00     0.78  -0.58   0.00
