
                                 *****************
                                 * O   R   C   A *
                                 *****************

                                            #,                                       
                                            ###                                      
                                            ####                                     
                                            #####                                    
                                            ######                                   
                                           ########,                                 
                                     ,,################,,,,,                         
                               ,,#################################,,                 
                          ,,##########################################,,             
                       ,#########################################, ''#####,          
                    ,#############################################,,   '####,        
                  ,##################################################,,,,####,       
                ,###########''''           ''''###############################       
              ,#####''   ,,,,##########,,,,          '''####'''          '####       
            ,##' ,,,,###########################,,,                        '##       
           ' ,,###''''                  '''############,,,                           
         ,,##''                                '''############,,,,        ,,,,,,###''
      ,#''                                            '''#######################'''  
     '                                                          ''''####''''         
             ,#######,   #######,   ,#######,      ##                                
            ,#'     '#,  ##    ##  ,#'     '#,    #''#        ,####,   ,####,        
            ##       ##  ##   ,#'  ##            #'  '#       #'       #'  '#        
            ##       ##  #######   ##           ,######,      #####,   #    #        
            '#,     ,#'  ##    ##  '#,     ,#' ,#      #,     #,   #   #,  ,#        
             '#######'   ##     ##  '#######'  #'      '#     '####' # '####'        



                #########################################################
                #                        -***-                          #
                #          Department of theory and spectroscopy        #
                #                                                       #
                #                      Frank Neese                      #
                #                                                       #
                #     Directorship, Architecture, Infrastructure        #
                #                    SHARK, DRIVERS                     #
                #        Core code/Algorithms in most modules           #
                #                                                       #
                #        Max Planck Institute fuer Kohlenforschung      #
                #                Kaiser Wilhelm Platz 1                 #
                #                 D-45470 Muelheim/Ruhr                 #
                #                      Germany                          #
                #                                                       #
                #                  All rights reserved                  #
                #                        -***-                          #
                #########################################################


                         Program Version 6.0.1  -  RELEASE   -


 With contributions from (in alphabetic order):
[Max-Planck-Institut fuer Kohlenforschung]                               
  Daniel Aravena         : Magnetic Suceptibility                        
  Michael Atanasov       : Ab Initio Ligand Field Theory (pilot matlab implementation)
  Alexander A. Auer      : GIAO ZORA, VPT2 properties, NMR spectrum      
  Ute Becker             : All parallelization in ORCA, NUMFREQ, NUMCALC 
  Giovanni Bistoni       : ED, misc. LED, open-shell LED, HFLD           
  Martin Brehm           : Molecular dynamics                            
  Dmytro Bykov           : pre 5.0 version of the SCF Hessian            
  Marcos Casanova-Páez   : Triplet and SCS-CIS(D). UHF-(DLPNO)-IP/EA/STEOM-CCSD. UHF-CVS-IP/STEOM-CCSD   
  Vijay G. Chilkuri      : MRCI spin determinant printing, contributions to CSF-ICE 
  Pauline Colinet        : FMM embedding                                 
  Dipayan Datta          : RHF DLPNO-CCSD density                        
  Achintya Kumar Dutta   : EOM-CC, STEOM-CC                              
  Nicolas Foglia         : Exact transition moments, OPA infrastructure, MCD improvements    
  Dmitry Ganyushin       : Spin-Orbit,Spin-Spin,Magnetic field MRCI      
  Miquel Garcia-Rates    : C-PCM and meta-GGA Hessian, CCSD/C-PCM, Gaussian charge scheme 
  Tiago L. C. Gouveia    : GS-ROHF, GS-ROCIS                             
  Yang Guo               : DLPNO-NEVPT2, F12-NEVPT2, CIM, IAO-localization        
  Andreas Hansen         : Spin unrestricted coupled pair/coupled cluster methods 
  Ingolf Harden          : AUTO-CI MPn and infrastructure                
  Benjamin Helmich-Paris : MC-RPA, TRAH-(SCF,CASSCF), AVAS, COSX integrals, SCF dyn. polar. 
  Lee Huntington         : MR-EOM, pCC                                   
  Robert Izsak           : Overlap fitted RIJCOSX, COSX-SCS-MP3, EOM     
  Riya Kayal             : Wick's Theorem for AUTO-CI, AUTO-CI UHF-CCSDT 
  Emily Kempfer          : AUTO-CI, RHF CISDT and CCSDT                  
  Christian Kollmar      : KDIIS, OOCD, Brueckner-CCSD(T), CCSD density, CASPT2, CASPT2-K, improved NEVPT2 
  Axel Koslowski         : Symmetry handling                             
  Simone Kossmann        : meta-GGA functionals, TD-DFT gradient, OOMP2, (MP2 Hessian; deprecated post 5.0) 
  Lucas Lang             : DCDCAS                                        
  Marvin Lechner         : AUTO-CI (C++ implementation), FIC-MRCC        
  Spencer Leger          : CASSCF response                               
  Dagmar Lenk            : GEPOL surface, SMD, ORCA-2-JSON               
  Dimitrios Liakos       : Extrapolation schemes; Compound Job, initial MDCI parallelization 
  Dimitrios Manganas     : Further ROCIS development; embedding schemes. LFT, Crystal Embedding 
  Dimitrios Pantazis     : SARC Basis sets                               
  Anastasios Papadopoulos: AUTO-CI, single reference methods and gradients 
  Taras Petrenko         : pre 6.0 DFT Hessian and TD-DFT gradient, (ASA, deprecated), ECA, 1-Electron XAS/XES, NRVS 
  Peter Pinski           : DLPNO-MP2, DLPNO-MP2 Gradient                 
  Christoph Reimann      : Effective Core Potentials                     
  Marius Retegan         : Local ZFS, SOC                                
  Christoph Riplinger    : Optimizer, TS searches, QM/MM, DLPNO-CCSD(T), (RO)-DLPNO pert. Triples 
  Michael Roemelt        : Original ROCIS implementation                 
  Masaaki Saitow         : Open-shell DLPNO-CCSD energy and density      
  Barbara Sandhoefer     : DKH picture change effects                    
  Kantharuban Sivalingam : CASSCF convergence/infrastructure, NEVPT2 and variants, FIC-MRCI 
  Bernardo de Souza      : ESD, SOC TD-DFT                               
  Georgi L. Stoychev     : AutoAux, RI-MP2 NMR, DLPNO-MP2 response, X2C  
  Van Anh Tran           : RI-MP2 g-tensors                              
  Willem Van den Heuvel  : Paramagnetic NMR                              
  Zikuan Wang            : NOTCH, Electric field optimization            
  Frank Wennmohs         : Technical directorship and infrastructure     
  Hang Xu                : AUTO-CI-Response properties                   
                                                                         
[FACCTs GmbH]                                                            
  Markus Bursch, Miquel Garcia-Rates, Christoph Riplinger, Bernardo de Souza, Georgi L. Stoychev 
                                                                 
  APM, Basis sets (HGBS, AHGBS, def-TZVP (Ac-Lr), def2-XVPD (La-Lu)), CI-OPT, improved COSX, DLPNO-Multilevel,           
  DOCKER, DRACO, updates on ESD, GOAT, IRC, LR-CPCM, MBIS, meta-GGA TD-DFT gradient, ML-optimized integration grids, 
  MM, NACMEs, nearIR, NEB, NEB-TS, NL-DFT gradient (VV10), 2- and 3-layer-ONIOM, interface openCOSMO-RS, QMMM,   
  Crystal-QMMM, SF, symmetry and pop. for TD-DFT, r2SCAN hybrids, SOLVATOR                                   
                                                                         
[Other institutions]                                                     
  V. Asgeirsson          : NEB                                           
  Christoph Bannwarth    : sTDA-DFT, sTD-DFT, PBEh-3c, B97-3c, D3        
  Sebastian Ehlert       : rSCAN, r2SCAN, r2SCAN-3c, D4, dhf basis sets  
  Marvin Friede          : D4 for Fr, Ra, Ac-Lr                          
  Lars Goerigk           : TD-DFT with DH, B97 family of functionals     
  Stefan Grimme          : VdW corrections, initial TS optimization, DFT functionals, gCP, sTDA/sTD-DF 
  Waldemar Hujo          : DFT-NL                                        
  H. Jonsson             : NEB                                           
  Holger Kruse           : gCP                                           
  Marcel Mueller         : wB97X-3c, vDZP basis set                      
  Hagen Neugebauer       : wr2SCAN                                       
  Tobias Risthaus        : range-separated hybrid DFT                    
  Lukas Wittmann         : regularized MP2, r2SCAN double-hybrids, wr2SCAN        
                                                                         
We gratefully acknowledge several colleagues who have allowed us to      
interface, adapt or use parts of their codes:                            
  Ed Valeev, F. Pavosevic, A. Kumar             : LibInt (2-el integral package), F12 methods 
  Garnet Chan, S. Sharma, J. Yang, R. Olivares  : DMRG                   
  Ulf Ekstrom                                   : XCFun DFT Library      
  Mihaly Kallay                                 : mrcc  (arbitrary order and MRCC methods)
  Frank Weinhold                                : gennbo (NPA and NBO analysis)           
  Simon Mueller                                 : openCOSMO-RS                            
  Christopher J. Cramer and Donald G. Truhlar   : smd solvation model                     
  S Lehtola, MJT Oliveira, MAL Marques          : LibXC Library                           
  Liviu Ungur et al                             : ANISO software                          


 Your calculation uses the libint2 library for the computation of 2-el integrals
 For citations please refer to: http://libint.valeyev.net

 Your ORCA version has been built with support for libXC version: 6.2.2
 For citations please refer to: https://libxc.gitlab.io

 This ORCA versions uses:
   CBLAS   interface :  Fast vector & matrix operations
   LAPACKE interface :  Fast linear algebra routines
   SCALAPACK package :  Parallel linear algebra routines
   Shared memory     :  Shared parallel matrices
   BLAS/LAPACK       :  OpenBLAS 0.3.27  USE64BITINT DYNAMIC_ARCH NO_AFFINITY Zen SINGLE_THREADED
        Core in use  :  Zen
   Copyright (c) 2011-2014, The OpenBLAS Project


Your calculation utilizes the geometrical counterpoise correction gCP
Please cite in your paper:
H.Kruse, S. Grimme J.Chem.Phys., 136, (2012), 154101 
   

Your calculation utilizes the DFT-NL dispersion correction.
Cite in your paper:
Vydrov, O. A.; Van Voorhis, T. J. Chem. Phys. 2010, 133, 244103
Hujo, W.; Grimme, S. J. Chem. Theory Comput. 2011, 7, 3866 
   

================================================================================

----- Orbital basis set information -----
Your calculation utilizes the basis: def2-TZVP
   F. Weigend and R. Ahlrichs, Phys. Chem. Chem. Phys. 7, 3297 (2005).

----- AuxJ basis set information -----
Your calculation utilizes the auxiliary basis: def2/J
   F. Weigend, Phys. Chem. Chem. Phys. 8, 1057 (2006).

================================================================================
                                        WARNINGS
                       Please study these warnings very carefully!
================================================================================

WARNING: Old DensityContainer found on disk!
         Will remove this file - 
         If you want to keep old densities, please start your calculation with a different basename. 


================================================================================
                                       INPUT FILE
================================================================================
NAME = sp.inp
|  1> ! wb97x-v def2-tzvp def2/J RIJCOSX DEFGRID2 scfconv7 GCP(DFT/TZ) printgap
|  2> %output
|  3>     printlevel normal
|  4> end
|  5> * xyz 0 1
|  6> C -1.5449027643453306 -0.6417083310770114 1.3796295716359834
|  7> C -0.9973645822949019 -0.17695793537708734 0.019795997972974433
|  8> C -1.730673201487649 1.103880486724018 -0.4181679196919029
|  9> C -1.1872743427302739 -1.2755505563832255 -1.028512169859179
| 10> C 0.46608230565375414 0.2081311329610219 0.23178140483338766
| 11> O 0.8410872947906547 1.0101373661558342 1.057167614412797
| 12> O 1.3119152214010792 -0.4322992573631331 -0.6086322628357805
| 13> C 2.7030477162507394 -0.08147748525503785 -0.44638042677958667
| 14> H -2.611782205612701 -0.8685333346993555 1.2860340579250698
| 15> H -1.0320012215980614 -1.5470108080255571 1.7203835567434937
| 16> H -1.413016477917196 0.13638551368430113 2.135101462765902
| 17> H -2.7985942648172286 0.8916624213485178 -0.5330394202731836
| 18> H -1.3502999976574883 1.4674647653374286 -1.378551627134456
| 19> H -1.6054104922503878 1.8934298415591224 0.3270402601319076
| 20> H -0.8159735914044657 -0.9654870135885446 -2.008491782178831
| 21> H -0.6678252278488825 -2.1947109145421586 -0.7445642044423488
| 22> H -2.254780297544761 -1.5011904989668716 -1.122005865175767
| 23> H 3.044243720703501 -0.33619688032926975 0.5605313090059667
| 24> H 2.8468995296760684 0.9897244673416982 -0.610357324218731
| 25> H 3.2390218835514935 -0.664244579128719 -1.1958066661699542
| 26> *
| 27> 
| 28>                          ****END OF INPUT****
================================================================================

                       ****************************
                       * Single Point Calculation *
                       ****************************

---------------------------------
CARTESIAN COORDINATES (ANGSTROEM)
---------------------------------
  C     -1.544903   -0.641708    1.379630
  C     -0.997365   -0.176958    0.019796
  C     -1.730673    1.103880   -0.418168
  C     -1.187274   -1.275551   -1.028512
  C      0.466082    0.208131    0.231781
  O      0.841087    1.010137    1.057168
  O      1.311915   -0.432299   -0.608632
  C      2.703048   -0.081477   -0.446380
  H     -2.611782   -0.868533    1.286034
  H     -1.032001   -1.547011    1.720384
  H     -1.413016    0.136386    2.135101
  H     -2.798594    0.891662   -0.533039
  H     -1.350300    1.467465   -1.378552
  H     -1.605410    1.893430    0.327040
  H     -0.815974   -0.965487   -2.008492
  H     -0.667825   -2.194711   -0.744564
  H     -2.254780   -1.501190   -1.122006
  H      3.044244   -0.336197    0.560531
  H      2.846900    0.989724   -0.610357
  H      3.239022   -0.664245   -1.195807

----------------------------
CARTESIAN COORDINATES (A.U.)
----------------------------
  NO LB      ZA    FRAG     MASS         X           Y           Z
   0 C     6.0000    0    12.011   -2.919443   -1.212653    2.607122
   1 C     6.0000    0    12.011   -1.884746   -0.334402    0.037409
   2 C     6.0000    0    12.011   -3.270498    2.086032   -0.790223
   3 C     6.0000    0    12.011   -2.243623   -2.410441   -1.943606
   4 C     6.0000    0    12.011    0.880768    0.393311    0.438003
   5 O     8.0000    0    15.999    1.589425    1.908883    1.997757
   6 O     8.0000    0    15.999    2.479160   -0.816927   -1.150148
   7 C     6.0000    0    12.011    5.108020   -0.153970   -0.843537
   8 H     1.0000    0     1.008   -4.935553   -1.641290    2.430252
   9 H     1.0000    0     1.008   -1.950200   -2.923427    3.251054
  10 H     1.0000    0     1.008   -2.670214    0.257731    4.034757
  11 H     1.0000    0     1.008   -5.288577    1.684998   -1.007299
  12 H     1.0000    0     1.008   -2.551697    2.773107   -2.605085
  13 H     1.0000    0     1.008   -3.033786    3.578064    0.618017
  14 H     1.0000    0     1.008   -1.541967   -1.824506   -3.795499
  15 H     1.0000    0     1.008   -1.262007   -4.147403   -1.407022
  16 H     1.0000    0     1.008   -4.260917   -2.836839   -2.120284
  17 H     1.0000    0     1.008    5.752787   -0.635320    1.059251
  18 H     1.0000    0     1.008    5.379860    1.870308   -1.153408
  19 H     1.0000    0     1.008    6.120864   -1.255240   -2.259747

--------------------------------
INTERNAL COORDINATES (ANGSTROEM)
--------------------------------
 C      0   0   0     0.000000000000     0.00000000     0.00000000
 C      1   0   0     1.537835602126     0.00000000     0.00000000
 C      2   1   0     1.539513230761   109.47483953     0.00000000
 C      2   1   3     1.530333780187   110.15707396   238.82420894
 C      2   1   3     1.528040639879   107.12654208   115.23828780
 O      5   2   1     1.210415273749   123.93839187   305.18330064
 O      5   2   1     1.353469445173   113.14937015   125.70269852
 C      7   5   2     1.443832120544   114.66907028   179.35453188
 H      1   2   3     1.094733503942   109.51189106    61.24481724
 H      1   2   3     1.094876178245   110.99551379   180.60772982
 H      1   2   3     1.092502541000   110.68594813   301.13828371
 H      3   2   1     1.094845818561   109.46274918   298.50162325
 H      3   2   1     1.095086374387   111.11663271   179.14558895
 H      3   2   1     1.092892566231   110.63904466    58.47489447
 H      4   2   1     1.092869474854   111.61848674   179.35047546
 H      4   2   1     1.093302151295   111.50993233   300.32090081
 H      4   2   1     1.095090598223   109.10929552    59.76464317
 H      8   7   5     1.093237360935   110.34025654    61.10762865
 H      8   7   5     1.093185890124   110.36647471   300.59051470
 H      8   7   5     1.090195157760   105.45917046   180.81148167

---------------------------
INTERNAL COORDINATES (A.U.)
---------------------------
 C      0   0   0     0.000000000000     0.00000000     0.00000000
 C      1   0   0     2.906088127013     0.00000000     0.00000000
 C      2   1   0     2.909258385687   109.47483953     0.00000000
 C      2   1   3     2.891911738042   110.15707396   238.82420894
 C      2   1   3     2.887578330873   107.12654208   115.23828780
 O      5   2   1     2.287353375701   123.93839187   305.18330064
 O      5   2   1     2.557686582008   113.14937015   125.70269852
 C      7   5   2     2.728447291187   114.66907028   179.35453188
 H      1   2   3     2.068746512079   109.51189106    61.24481724
 H      1   2   3     2.069016127437   110.99551379   180.60772982
 H      1   2   3     2.064530603102   110.68594813   301.13828371
 H      3   2   1     2.068958755949   109.46274918   298.50162325
 H      3   2   1     2.069413340580   111.11663271   179.14558895
 H      3   2   1     2.065267643974   110.63904466    58.47489447
 H      4   2   1     2.065224007596   111.61848674   179.35047546
 H      4   2   1     2.066041647574   111.50993233   300.32090081
 H      4   2   1     2.069421322474   109.10929552    59.76464317
 H      8   7   5     2.065919211538   110.34025654    61.10762865
 H      8   7   5     2.065821945802   110.36647471   300.59051470
 H      8   7   5     2.060170280693   105.45917046   180.81148167

---------------------
BASIS SET INFORMATION
---------------------
There are 3 groups of distinct atoms

 Group   1 Type C   : 11s6p2d1f contracted to 5s3p2d1f pattern {62111/411/11/1}
 Group   2 Type O   : 11s6p2d1f contracted to 5s3p2d1f pattern {62111/411/11/1}
 Group   3 Type H   : 5s1p contracted to 3s1p pattern {311/1}

Atom   0C    basis set group =>   1
Atom   1C    basis set group =>   1
Atom   2C    basis set group =>   1
Atom   3C    basis set group =>   1
Atom   4C    basis set group =>   1
Atom   5O    basis set group =>   2
Atom   6O    basis set group =>   2
Atom   7C    basis set group =>   1
Atom   8H    basis set group =>   3
Atom   9H    basis set group =>   3
Atom  10H    basis set group =>   3
Atom  11H    basis set group =>   3
Atom  12H    basis set group =>   3
Atom  13H    basis set group =>   3
Atom  14H    basis set group =>   3
Atom  15H    basis set group =>   3
Atom  16H    basis set group =>   3
Atom  17H    basis set group =>   3
Atom  18H    basis set group =>   3
Atom  19H    basis set group =>   3
---------------------------------
AUXILIARY/J BASIS SET INFORMATION
---------------------------------
There are 3 groups of distinct atoms

 Group   1 Type C   : 12s5p4d2f1g contracted to 6s4p3d1f1g pattern {711111/2111/211/2/1}
 Group   2 Type O   : 12s5p4d2f1g contracted to 6s4p3d1f1g pattern {711111/2111/211/2/1}
 Group   3 Type H   : 5s2p1d contracted to 3s1p1d pattern {311/2/1}

Atom   0C    basis set group =>   1
Atom   1C    basis set group =>   1
Atom   2C    basis set group =>   1
Atom   3C    basis set group =>   1
Atom   4C    basis set group =>   1
Atom   5O    basis set group =>   2
Atom   6O    basis set group =>   2
Atom   7C    basis set group =>   1
Atom   8H    basis set group =>   3
Atom   9H    basis set group =>   3
Atom  10H    basis set group =>   3
Atom  11H    basis set group =>   3
Atom  12H    basis set group =>   3
Atom  13H    basis set group =>   3
Atom  14H    basis set group =>   3
Atom  15H    basis set group =>   3
Atom  16H    basis set group =>   3
Atom  17H    basis set group =>   3
Atom  18H    basis set group =>   3
Atom  19H    basis set group =>   3

Checking for AutoStart:
The File: sp.gbw exists
Trying to determine its content:
     ... Fine, the file contains calculation information
     ... Fine, the calculation information was read
     ... Fine, the file contains a basis set
     ... Fine, the basis set was read
     ... Fine, the file contains a geometry
     ... Fine, the geometry was read
     ... Fine, the file contains a set of orbitals
     ... Fine, the orbitals can be read
     => possible old guess file was deleted
     => GBW file was renamed to GES file
     => GES file is set as startup file
     => Guess is set to MORead
     ... now leaving AutoStart

------------------------------------------------------------------------------
                             ORCA STARTUP CALCULATIONS
                           -- RI-GTO INTEGRALS CHOSEN --
------------------------------------------------------------------------------
------------------------------------------------------------------------------
                   ___                                                        
                  /   \      - P O W E R E D   B Y -                         
                 /     \                                                     
                 |  |  |   _    _      __       _____    __    __             
                 |  |  |  | |  | |    /  \     |  _  \  |  |  /  |          
                  \  \/   | |  | |   /    \    | | | |  |  | /  /          
                 / \  \   | |__| |  /  /\  \   | |_| |  |  |/  /          
                |  |  |   |  __  | /  /__\  \  |    /   |      \           
                |  |  |   | |  | | |   __   |  |    \   |  |\   \          
                \     /   | |  | | |  |  |  |  | |\  \  |  | \   \       
                 \___/    |_|  |_| |__|  |__|  |_| \__\ |__|  \__/        
                                                                              
                      - O R C A' S   B I G   F R I E N D -                    
                                      &                                       
                       - I N T E G R A L  F E E D E R -                       
                                                                              
 v1 FN, 2020, v2 2021, v3 2022-2024                                           
------------------------------------------------------------------------------


----------------------
SHARK INTEGRAL PACKAGE
----------------------

Number of atoms                             ...     20
Number of basis functions                   ...    320
Number of shells                            ...    136
Maximum angular momentum                    ...      3
Integral batch strategy                     ... SHARK/LIBINT Hybrid
RI-J (if used) integral strategy            ... SPLIT-RIJ (Revised 2003 algorithm where possible)
Printlevel                                  ...      1
Contraction scheme used                     ... SEGMENTED contraction
Prescreening option                         ... SCHWARTZ
   Thresh                                   ... 3.000e-11
   Tcut                                     ... 1.000e-12
   Tpresel                                  ... 1.000e-12 
Coulomb Range Separation                    ... NOT USED
Exchange Range Separation                   ... Long Range
   Mu parameter                             ... 3.000e-01
   Scaling (regular/separated)              ... 1.670e-01 8.330e-01
Multipole approximations                    ... NOT USED
Finite Nucleus Model                        ... NOT USED
CABS basis                                  ... NOT available
Auxiliary Coulomb fitting basis             ... AVAILABLE
   # of basis functions in Aux-J            ...    524
   # of shells in Aux-J                     ...    180
   Maximum angular momentum in Aux-J        ...      4
Auxiliary J/K fitting basis                 ... NOT available
Auxiliary Correlation fitting basis         ... NOT available
Auxiliary 'external' fitting basis          ... NOT available

Checking pre-screening integrals            ... done (  0.0 sec) Dimension = 136
Check shell pair data                       ... done (  0.0 sec)
Shell pair information
Shell pair cut-off parameter TPreSel        ...   1.0e-12
Total number of shell pairs                 ...      9316
Shell pairs after pre-screening             ...      8558
Total number of primitive shell pairs       ...     27240
Primitive shell pairs kept                  ...     18810
          la=0 lb=0:   2586 shell pairs
          la=1 lb=0:   2519 shell pairs
          la=1 lb=1:    633 shell pairs
          la=2 lb=0:   1140 shell pairs
          la=2 lb=1:    550 shell pairs
          la=2 lb=2:    133 shell pairs
          la=3 lb=0:    555 shell pairs
          la=3 lb=1:    278 shell pairs
          la=3 lb=2:    128 shell pairs
          la=3 lb=3:     36 shell pairs

Calculating one electron integrals          ... done (  0.0 sec)
Calculating RI/J V-Matrix + Cholesky decomp.... done (  0.0 sec)
Calculating Nuclear repulsion               ... done (  0.0 sec) ENN=    410.532396093878 Eh

Diagonalization of the overlap matrix:
Smallest eigenvalue                        ... 1.057e-04
Time for diagonalization                   ...    0.007 sec
Threshold for overlap eigenvalues          ... 1.000e-07
Number of eigenvalues below threshold      ... 0
Time for construction of square roots      ...    0.003 sec
Total time needed                          ...    0.012 sec

-------------------
DFT GRID GENERATION
-------------------

General Integration Accuracy     IntAcc      ... 4.388
Radial Grid Type                 RadialGrid  ... OptM3 with GC (2021)
Angular Grid (max. ang.)         AngularGrid ... 4 (Lebedev-302)
Angular grid pruning method      GridPruning ... 4 (adaptive)
Weight generation scheme         WeightScheme... mBecke (2022)
Basis function cutoff            BFCut       ... 1.0000e-11
Integration weight cutoff        WCut        ... 1.0000e-14
Partially contracted basis set               ... off
Rotationally invariant grid construction     ... off
Angular grids for H and He will be reduced by one unit

Total number of grid points                  ...    86619
Total number of batches                      ...     1363
Average number of points per batch           ...       63
Average number of grid points per atom       ...     4331

--------------------
COSX GRID GENERATION
--------------------

GRIDX 1
-------
General Integration Accuracy     IntAcc      ... 3.816
Radial Grid Type                 RadialGrid  ... OptM3 with GC (2021)
Angular Grid (max. ang.)         AngularGrid ... 1 (Lebedev-50)
Angular grid pruning method      GridPruning ... 4 (adaptive)
Weight generation scheme         WeightScheme... mBecke (2022)
Basis function cutoff            BFCut       ... 1.0000e-11
Integration weight cutoff        WCut        ... 1.0000e-14
Partially contracted basis set               ... on
Rotationally invariant grid construction     ... off
Angular grids for H and He will be reduced by one unit

Total number of grid points                  ...    11088
Total number of batches                      ...       99
Average number of points per batch           ...      112
Average number of grid points per atom       ...      554
UseSFitting                                  ... on

GRIDX 2
-------
General Integration Accuracy     IntAcc      ... 4.020
Radial Grid Type                 RadialGrid  ... OptM3 with GC (2021)
Angular Grid (max. ang.)         AngularGrid ... 2 (Lebedev-110)
Angular grid pruning method      GridPruning ... 4 (adaptive)
Weight generation scheme         WeightScheme... mBecke (2022)
Basis function cutoff            BFCut       ... 1.0000e-11
Integration weight cutoff        WCut        ... 1.0000e-14
Partially contracted basis set               ... on
Rotationally invariant grid construction     ... off
Angular grids for H and He will be reduced by one unit

Total number of grid points                  ...    23343
Total number of batches                      ...      192
Average number of points per batch           ...      121
Average number of grid points per atom       ...     1167
UseSFitting                                  ... on

GRIDX 3
-------
General Integration Accuracy     IntAcc      ... 4.338
Radial Grid Type                 RadialGrid  ... OptM3 with GC (2021)
Angular Grid (max. ang.)         AngularGrid ... 3 (Lebedev-194)
Angular grid pruning method      GridPruning ... 4 (adaptive)
Weight generation scheme         WeightScheme... mBecke (2022)
Basis function cutoff            BFCut       ... 1.0000e-11
Integration weight cutoff        WCut        ... 1.0000e-14
Partially contracted basis set               ... on
Rotationally invariant grid construction     ... off
Angular grids for H and He will be reduced by one unit

Total number of grid points                  ...    51091
Total number of batches                      ...      410
Average number of points per batch           ...      124
Average number of grid points per atom       ...     2555
UseSFitting                                  ... on
Initializing property integral containers    ... done (  0.0 sec)

SHARK setup successfully completed in   1.4 seconds

Maximum memory used throughout the entire STARTUP-calculation: 52.1 MB
-------------------------------------------------------------------------------
                                 ORCA GUESS
                   Start orbitals & Density for SCF / CASSCF
-------------------------------------------------------------------------------

------------
SCF SETTINGS
------------
Hamiltonian:
 Density Functional     Method          .... DFT(GTOs)
 Exchange Functional    Exchange        .... WB97X-V
 Correlation Functional Correlation     .... WB97X-V
 Gradients option       PostSCFGGA      .... off
 Hybrid DFT is turned on
   Fraction HF Exchange ScalHFX         ....  0.167000
   Scaling of DF-GGA-X  ScalDFX         ....  0.000000
   Scaling of DF-GGA-C  ScalDFC         ....  1.000000
   Scaling of DF-LDA-C  ScalLDAC        ....  1.000000
   Perturbative correction              ....  0.000000
 Long-range corrected/Screened/Range-Separated Hybrid DFT is turned on
   Amount of maximum screened exact exchange              ....  0.833000
   Range separation parameter mu (erf(mu*r12)/r12)        ....  0.300000
   NL short-range parameter             ....  6.000000
   NL long-range parameter              ....  0.010000
 RI-approximation to the Coulomb term is turned on
   Number of AuxJ basis functions       .... 524
   RIJ-COSX (HFX calculated with COS-X)).... on


General Settings:
 Integral files         IntName         .... sp
 Hartree-Fock type      HFTyp           .... RHF
 Total Charge           Charge          ....    0
 Multiplicity           Mult            ....    1
 Number of Electrons    NEL             ....   64
 Basis Dimension        Dim             ....  320
 Nuclear Repulsion      ENuc            ....    410.5323960939 Eh

Convergence Acceleration:
 AO-DIIS                CNVDIIS         .... on
   Start iteration      DIISMaxIt       ....    12
   Startup error        DIISStart       ....  0.200000
   # of expansion vecs  DIISMaxEq       ....     5
   Bias factor          DIISBfac        ....   1.050
   Max. coefficient     DIISMaxC        ....  10.000
 MO-DIIS                CNVKDIIS        .... off
 Trust-Rad. Augm. Hess. CNVTRAH         .... auto
   Auto Start mean grad. ratio tolernc. ....  1.125000
   Auto Start start iteration           ....     1
   Auto Start num. interpolation iter.  ....    10
   Max. Number of Micro iterations      ....    24
   Max. Number of Macro iterations      .... Maxiter - #DIIS iter
   Number of Davidson start vectors     ....     2
   Converg. threshold    (grad. norm)   ....   1.000e-04
   Grad. Scal. Fac. for Micro threshold ....   0.100
   Minimum threshold for Micro iter.    ....   1.000e-02
   NR start threshold (gradient norm)   ....   1.000e-04
   Initial trust radius                 ....   0.400
   Minimum AH scaling param. (alpha)    ....   1.000
   Maximum AH scaling param. (alpha)    .... 1000.000
   Quad. conv. algorithm                .... NR
   White noise on init. David. guess    .... on
   Maximum white noise                  ....   0.010
   Pseudo random numbers                .... off
   Inactive MOs                         .... canonical
   Orbital update algorithm             .... Taylor
   Preconditioner                       .... Diag
   Full preconditioner red. dimension   ....   250
 SOSCF                  CNVSOSCF        .... on
   Start iteration      SOSCFMaxIt      ....   150
   Startup grad/error   SOSCFStart      ....  0.003300
   Hessian update       SOSCFHessUp     .... L-BFGS
 Level Shifting         CNVShift        .... on
   Level shift para.    LevelShift      ....    0.2500
   Turn off err/grad.   ShiftErr        ....    0.0010
 Zerner damping         CNVZerner       .... off
 Static damping         CNVDamp         .... on
   Fraction old density DampFac         ....    0.7000
   Max. Damping (<1)    DampMax         ....    0.9800
   Min. Damping (>=0)   DampMin         ....    0.0000
   Turn off err/grad.   DampErr         ....    0.1000

SCF Procedure:
 Maximum # iterations   MaxIter         ....   125
 SCF integral mode      SCFMode         .... Direct
   Integral package                     .... SHARK and LIBINT hybrid scheme
 Reset frequency        DirectResetFreq ....    20
 Integral Threshold     Thresh          ....  3.000e-11 Eh
 Primitive CutOff       TCut            ....  1.000e-12 Eh

Convergence Tolerance:
 Convergence Check Mode ConvCheckMode   .... Total+1el-Energy
 Convergence forced     ConvForced      .... 0
 Energy Change          TolE            ....  1.000e-07 Eh
 1-El. energy change                    ....  1.000e-04 Eh
 Orbital Gradient       TolG            ....  1.000e-04
 Orbital Rotation angle TolX            ....  1.000e-04
 DIIS Error             TolErr          ....  1.000e-07

---------------------
INITIAL GUESS: MOREAD
---------------------
Guess MOs are being read from file: sp.ges
Input Geometry matches current geometry (good)
Atom 0: N(Shells)= 11 and 9 - projection required
Input basis set needs projection
NBasis(read)= 222
NBasis(calc)= 320
Basis set overlap was calculated
Using GuessMode=FMatrix for the initial guess
C*T matrix was formed
Effective Fockian was calculated
Effective Fockian was diagonalized
Initial density was built
                      ------------------
                      INITIAL GUESS DONE (   0.0 sec)
                      ------------------
             **** ENERGY FILE WAS UPDATED (sp.en.tmp) ****
Finished Guess after   0.1 sec
Maximum memory used throughout the entire GUESS-calculation: 31.3 MB

-------------------------------------------------------------------------------------------
                                      ORCA LEAN-SCF
                              memory conserving SCF solver
-------------------------------------------------------------------------------------------

----------------------------------------D-I-I-S--------------------------------------------
Iteration    Energy (Eh)           Delta-E    RMSDP     MaxDP     DIISErr   Damp  Time(sec)
-------------------------------------------------------------------------------------------
               ***  Starting incremental Fock matrix formation  ***
    1    -386.5926957998981379     0.00e+00  9.40e-04  6.22e-02  4.80e-02  0.700  13.9
    2    -386.5976393556093171    -4.94e-03  8.00e-04  5.05e-02  3.34e-02  0.700   6.6
                               ***Turning on AO-DIIS***
    3    -386.6013804908574230    -3.74e-03  6.50e-04  3.92e-02  2.33e-02  0.700   6.6
    4    -386.6041411102144139    -2.76e-03  1.61e-03  9.46e-02  1.63e-02  0.000   6.3
                              *** Initializing SOSCF ***
---------------------------------------S-O-S-C-F--------------------------------------
Iteration    Energy (Eh)           Delta-E    RMSDP     MaxDP     MaxGrad    Time(sec)
--------------------------------------------------------------------------------------
    5    -386.6112003082934052    -7.06e-03  6.02e-05  1.98e-03  9.77e-04     6.5
               *** Restarting incremental Fock matrix formation ***
    6    -386.6112325307076389    -3.22e-05  2.89e-05  1.12e-03  5.54e-04    13.7
    7    -386.6112383895112998    -5.86e-06  1.63e-05  6.25e-04  1.87e-04    10.5
    8    -386.6112391749145445    -7.85e-07  3.22e-06  1.57e-04  9.50e-05    10.1
    9    -386.6112393356190751    -1.61e-07  2.00e-06  5.96e-05  6.23e-05     8.8
   10    -386.6112393670881602    -3.15e-08  5.02e-07  2.19e-05  1.93e-05     8.5
                 **** Energy Check signals convergence ****

               *****************************************************
               *                     SUCCESS                       *
               *           SCF CONVERGED AFTER  10 CYCLES          *
               *****************************************************


------------------
NL GRID GENERATION
------------------

General Integration Accuracy     IntAcc      ... 4.004
Radial Grid Type                 RadialGrid  ... OptM3 with GC (2021)
Angular Grid (max. ang.)         AngularGrid ... 2 (Lebedev-110)
Angular grid pruning method      GridPruning ... 4 (adaptive)
Weight generation scheme         WeightScheme... mBecke (2022)
Basis function cutoff            BFCut       ... 1.0000e-10
Integration weight cutoff        WCut        ... 1.0000e-14
Partially contracted basis set               ... off
Rotationally invariant grid construction     ... off
Angular grids for H and He will be reduced by one unit

Total number of grid points                  ...    26166
Total number of batches                      ...      419
Average number of points per batch           ...       62
Average number of grid points per atom       ...     1308
Final grid set up in    0.1 sec

-------------------------------------------------------------------------------
                    post-SCF DFT-NL dispersion correction                      
-------------------------------------------------------------------------------

SCF Energy:     -386.611239367 
NL    Energy:      0.243886902 
SC+NL Energy:   -386.367352465 
NL done in  :              2.1 sec
-------------------------------------------------------------------------------
Recomputing exchange energy using gridx3       ... done (   25.852 sec)
Old exchange energy                            :    -17.016658003 Eh
New exchange energy                            :    -17.016674550 Eh
Exchange energy change after final integration :     -0.000016546 Eh
Total energy after final integration           :   -386.367369012 Eh
             **** ENERGY FILE WAS UPDATED (sp.en.tmp) ****

----------------
TOTAL SCF ENERGY
----------------

Total Energy       :       -386.36736901169513 Eh          -10513.59061 eV

Components:
Nuclear Repulsion  :        410.53239609387845 Eh           11171.15443 eV
Electronic Energy  :       -797.14363546096661 Eh          -21691.38109 eV
One Electron Energy:      -1338.05314640638062 Eh          -36410.27718 eV
Two Electron Energy:        540.90951094541401 Eh           14718.89609 eV

Virial components:
Potential Energy   :       -771.14685326649078 Eh          -20983.97268 eV
Kinetic Energy     :        384.77948425479570 Eh           10470.38207 eV
Virial Ratio       :          2.00412673965707

DFT components:
N(Alpha)           :       32.000042185843 electrons
N(Beta)            :       32.000042185843 electrons
N(Total)           :       64.000084371686 electrons
E(X)               :      -34.789028315714 Eh       
E(C)               :       -2.629525197057 Eh       
NL Energy, E(C,NL) :        0.243886901599 Eh       
E(XC)              :      -37.174666611173 Eh       

---------------
SCF CONVERGENCE
---------------

  Last Energy change         ...    3.1469e-08  Tolerance :   1.0000e-07
  Last MAX-Density change    ...    2.1908e-05  Tolerance :   1.0000e-05
  Last RMS-Density change    ...    5.0215e-07  Tolerance :   1.0000e-06
  Last DIIS Error            ...    9.7739e-04  Tolerance :   1.0000e-07
  Last Orbital Gradient      ...    1.9283e-05  Tolerance :   1.0000e-04
  Last Orbital Rotation      ...    2.2664e-05  Tolerance :   1.0000e-04


----------------
ORBITAL ENERGIES
----------------

  NO   OCC          E(Eh)            E(eV) 
   0   2.0000     -19.261401      -524.1294 
   1   2.0000     -19.196627      -522.3668 
   2   2.0000     -10.396593      -282.9057 
   3   2.0000     -10.326355      -280.9944 
   4   2.0000     -10.299285      -280.2578 
   5   2.0000     -10.265555      -279.3400 
   6   2.0000     -10.263971      -279.2968 
   7   2.0000     -10.262183      -279.2482 
   8   2.0000      -1.237351       -33.6700 
   9   2.0000      -1.145199       -31.1624 
  10   2.0000      -0.965449       -26.2712 
  11   2.0000      -0.858714       -23.3668 
  12   2.0000      -0.823435       -22.4068 
  13   2.0000      -0.820041       -22.3145 
  14   2.0000      -0.739448       -20.1214 
  15   2.0000      -0.669104       -18.2072 
  16   2.0000      -0.614699       -16.7268 
  17   2.0000      -0.605121       -16.4662 
  18   2.0000      -0.590059       -16.0563 
  19   2.0000      -0.553702       -15.0670 
  20   2.0000      -0.552153       -15.0249 
  21   2.0000      -0.549918       -14.9640 
  22   2.0000      -0.520095       -14.1525 
  23   2.0000      -0.499277       -13.5860 
  24   2.0000      -0.484156       -13.1745 
  25   2.0000      -0.482541       -13.1306 
  26   2.0000      -0.475137       -12.9291 
  27   2.0000      -0.456751       -12.4288 
  28   2.0000      -0.439245       -11.9525 
  29   2.0000      -0.438291       -11.9265 
  30   2.0000      -0.411588       -11.1999 
  31   2.0000      -0.378511       -10.2998 
  32   0.0000       0.098521         2.6809 
  33   0.0000       0.104398         2.8408 
  34   0.0000       0.134893         3.6706 
  35   0.0000       0.151613         4.1256 
  36   0.0000       0.162125         4.4116 
  37   0.0000       0.165910         4.5146 
  38   0.0000       0.173226         4.7137 
  39   0.0000       0.180582         4.9139 
  40   0.0000       0.187374         5.0987 
  41   0.0000       0.189067         5.1448 
  42   0.0000       0.203888         5.5481 
*Only the first 10 virtual orbitals were printed.

                    ********************************
                    * MULLIKEN POPULATION ANALYSIS *
                    ********************************

-----------------------
MULLIKEN ATOMIC CHARGES
-----------------------
   0 C :   -0.375372
   1 C :    0.119404
   2 C :   -0.377610
   3 C :   -0.339572
   4 C :    0.277267
   5 O :   -0.345192
   6 O :   -0.227464
   7 C :   -0.198217
   8 H :    0.114601
   9 H :    0.113653
  10 H :    0.139873
  11 H :    0.115187
  12 H :    0.115185
  13 H :    0.139106
  14 H :    0.116669
  15 H :    0.114830
  16 H :    0.112403
  17 H :    0.128442
  18 H :    0.129089
  19 H :    0.127719
Sum of atomic charges:   -0.0000000

--------------------------------
MULLIKEN REDUCED ORBITAL CHARGES
--------------------------------
  0 C s       :     3.258867  s :     3.258867
      pz      :     0.959043  p :     3.057293
      px      :     1.037074
      py      :     1.061176
      dz2     :     0.012925  d :     0.055904
      dxz     :     0.007469
      dyz     :     0.018545
      dx2y2   :     0.010531
      dxy     :     0.006433
      f0      :     0.000698  f :     0.003308
      f+1     :     0.000490
      f-1     :     0.000720
      f+2     :     0.000584
      f-2     :     0.000318
      f+3     :     0.000412
      f-3     :     0.000087

  1 C s       :     2.972043  s :     2.972043
      pz      :     0.911552  p :     2.728861
      px      :     0.910517
      py      :     0.906792
      dz2     :     0.040342  d :     0.169824
      dxz     :     0.024158
      dyz     :     0.039605
      dx2y2   :     0.038489
      dxy     :     0.027231
      f0      :     0.001637  f :     0.009867
      f+1     :     0.001002
      f-1     :     0.001765
      f+2     :     0.001379
      f-2     :     0.001404
      f+3     :     0.001201
      f-3     :     0.001478

  2 C s       :     3.260709  s :     3.260709
      pz      :     1.062093  p :     3.057611
      px      :     1.022800
      py      :     0.972718
      dz2     :     0.009332  d :     0.055997
      dxz     :     0.004500
      dyz     :     0.018182
      dx2y2   :     0.016980
      dxy     :     0.007003
      f0      :     0.000241  f :     0.003293
      f+1     :     0.000324
      f-1     :     0.000757
      f+2     :     0.000366
      f-2     :     0.000384
      f+3     :     0.000547
      f-3     :     0.000677

  3 C s       :     3.231561  s :     3.231561
      pz      :     1.004757  p :     3.047627
      px      :     1.047770
      py      :     0.995100
      dz2     :     0.018568  d :     0.057004
      dxz     :     0.007215
      dyz     :     0.007689
      dx2y2   :     0.012660
      dxy     :     0.010872
      f0      :     0.000426  f :     0.003379
      f+1     :     0.000317
      f-1     :     0.000895
      f+2     :     0.000424
      f-2     :     0.000501
      f+3     :     0.000621
      f-3     :     0.000196

  4 C s       :     3.119321  s :     3.119321
      pz      :     0.724138  p :     2.313566
      px      :     0.850059
      py      :     0.739368
      dz2     :     0.070474  d :     0.265769
      dxz     :     0.056428
      dyz     :     0.032429
      dx2y2   :     0.049684
      dxy     :     0.056754
      f0      :     0.002784  f :     0.024076
      f+1     :     0.003278
      f-1     :     0.003376
      f+2     :     0.004730
      f-2     :     0.004042
      f+3     :     0.002917
      f-3     :     0.002949

  5 O s       :     3.792252  s :     3.792252
      pz      :     1.408321  p :     4.519102
      px      :     1.727368
      py      :     1.383413
      dz2     :     0.008819  d :     0.031929
      dxz     :     0.005189
      dyz     :     0.007715
      dx2y2   :     0.005561
      dxy     :     0.004645
      f0      :     0.000267  f :     0.001909
      f+1     :     0.000194
      f-1     :     0.000399
      f+2     :     0.000357
      f-2     :     0.000335
      f+3     :     0.000166
      f-3     :     0.000191

  6 O s       :     3.739183  s :     3.739183
      pz      :     1.599360  p :     4.447119
      px      :     1.209437
      py      :     1.638322
      dz2     :     0.006458  d :     0.039155
      dxz     :     0.010000
      dyz     :     0.005464
      dx2y2   :     0.007546
      dxy     :     0.009687
      f0      :     0.000197  f :     0.002008
      f+1     :     0.000338
      f-1     :     0.000178
      f+2     :     0.000319
      f-2     :     0.000307
      f+3     :     0.000350
      f-3     :     0.000318

  7 C s       :     3.240489  s :     3.240489
      pz      :     1.087596  p :     2.861752
      px      :     0.705069
      py      :     1.069088
      dz2     :     0.012540  d :     0.088785
      dxz     :     0.026626
      dyz     :     0.006156
      dx2y2   :     0.019518
      dxy     :     0.023945
      f0      :     0.000991  f :     0.007191
      f+1     :     0.000972
      f-1     :     0.000490
      f+2     :     0.001005
      f-2     :     0.000301
      f+3     :     0.001476
      f-3     :     0.001957

  8 H s       :     0.864404  s :     0.864404
      pz      :     0.004099  p :     0.020995
      px      :     0.012321
      py      :     0.004574

  9 H s       :     0.865425  s :     0.865425
      pz      :     0.005216  p :     0.020922
      px      :     0.005741
      py      :     0.009965

 10 H s       :     0.838810  s :     0.838810
      pz      :     0.008574  p :     0.021317
      px      :     0.004289
      py      :     0.008454

 11 H s       :     0.863806  s :     0.863806
      pz      :     0.004290  p :     0.021007
      px      :     0.012445
      py      :     0.004273

 12 H s       :     0.863913  s :     0.863913
      pz      :     0.010659  p :     0.020902
      px      :     0.004930
      py      :     0.005313

 13 H s       :     0.839666  s :     0.839666
      pz      :     0.008024  p :     0.021228
      px      :     0.004236
      py      :     0.008968

 14 H s       :     0.862212  s :     0.862212
      pz      :     0.011234  p :     0.021119
      px      :     0.005248
      py      :     0.004637

 15 H s       :     0.864098  s :     0.864098
      pz      :     0.004540  p :     0.021073
      px      :     0.006139
      py      :     0.010393

 16 H s       :     0.866617  s :     0.866617
      pz      :     0.004291  p :     0.020980
      px      :     0.012040
      py      :     0.004649

 17 H s       :     0.851411  s :     0.851411
      pz      :     0.012123  p :     0.020147
      px      :     0.003650
      py      :     0.004374

 18 H s       :     0.850751  s :     0.850751
      pz      :     0.004189  p :     0.020160
      px      :     0.002782
      py      :     0.013189

 19 H s       :     0.851941  s :     0.851941
      pz      :     0.008484  p :     0.020340
      px      :     0.005236
      py      :     0.006619


------------------------
MULLIKEN OVERLAP CHARGES
------------------------
B(  0-C ,  1-C ) :   0.6653 B(  0-C ,  2-C ) :  -0.0951 B(  0-C ,  3-C ) :  -0.1258 
B(  0-C ,  4-C ) :  -0.0759 B(  0-C ,  8-H ) :   0.8336 B(  0-C ,  9-H ) :   0.8042 
B(  0-C , 10-H ) :   0.8162 B(  1-C ,  2-C ) :   0.6535 B(  1-C ,  3-C ) :   0.6353 
B(  1-C ,  4-C ) :   0.5249 B(  1-C ,  5-O ) :  -0.1469 B(  1-C ,  6-O ) :  -0.2090 
B(  1-C ,  8-H ) :  -0.0855 B(  1-C ,  9-H ) :  -0.0592 B(  1-C , 11-H ) :  -0.0807 
B(  1-C , 12-H ) :  -0.0574 B(  1-C , 13-H ) :  -0.0508 B(  1-C , 16-H ) :  -0.0807 
B(  2-C ,  3-C ) :  -0.1171 B(  2-C ,  4-C ) :  -0.0678 B(  2-C , 11-H ) :   0.8331 
B(  2-C , 12-H ) :   0.8004 B(  2-C , 13-H ) :   0.8187 B(  3-C ,  4-C ) :  -0.1294 
B(  3-C , 14-H ) :   0.8048 B(  3-C , 15-H ) :   0.8080 B(  3-C , 16-H ) :   0.8199 
B(  4-C ,  5-O ) :   1.3815 B(  4-C ,  6-O ) :   0.7618 B(  4-C ,  7-C ) :  -0.0891 
B(  5-O ,  6-O ) :  -0.1892 B(  6-O ,  7-C ) :   0.4718 B(  6-O , 17-H ) :  -0.0703 
B(  6-O , 18-H ) :  -0.0693 B(  6-O , 19-H ) :  -0.0675 B(  7-C , 17-H ) :   0.8397 
B(  7-C , 18-H ) :   0.8388 B(  7-C , 19-H ) :   0.7956 B( 17-H , 18-H ) :  -0.0737 
B( 17-H , 19-H ) :  -0.0512 B( 18-H , 19-H ) :  -0.0508 


                     *******************************
                     * LOEWDIN POPULATION ANALYSIS *
                     *******************************

----------------------
LOEWDIN ATOMIC CHARGES
----------------------
   0 C :   -0.244571
   1 C :   -0.323436
   2 C :   -0.243772
   3 C :   -0.254980
   4 C :   -0.422134
   5 O :    0.103096
   6 O :    0.231370
   7 C :   -0.294511
   8 H :    0.122574
   9 H :    0.122882
  10 H :    0.128941
  11 H :    0.123049
  12 H :    0.123039
  13 H :    0.128852
  14 H :    0.122634
  15 H :    0.122532
  16 H :    0.122302
  17 H :    0.111219
  18 H :    0.111434
  19 H :    0.109482

-------------------------------
LOEWDIN REDUCED ORBITAL CHARGES
-------------------------------
  0 C s       :     2.821722  s :     2.821722
      pz      :     1.021201  p :     3.137650
      px      :     1.052964
      py      :     1.063485
      dz2     :     0.062934  d :     0.260955
      dxz     :     0.036396
      dyz     :     0.081425
      dx2y2   :     0.051089
      dxy     :     0.029112
      f0      :     0.005107  f :     0.024244
      f+1     :     0.004781
      f-1     :     0.003638
      f+2     :     0.003681
      f-2     :     0.003220
      f+3     :     0.002731
      f-3     :     0.001085

  1 C s       :     2.695955  s :     2.695955
      pz      :     0.998416  p :     2.950253
      px      :     0.956359
      py      :     0.995477
      dz2     :     0.133679  d :     0.610868
      dxz     :     0.094204
      dyz     :     0.141118
      dx2y2   :     0.134641
      dxy     :     0.107226
      f0      :     0.010788  f :     0.066360
      f+1     :     0.008317
      f-1     :     0.010165
      f+2     :     0.008775
      f-2     :     0.009874
      f+3     :     0.008167
      f-3     :     0.010273

  2 C s       :     2.822266  s :     2.822266
      pz      :     1.063710  p :     3.136323
      px      :     1.045672
      py      :     1.026941
      dz2     :     0.045158  d :     0.261020
      dxz     :     0.019309
      dyz     :     0.079968
      dx2y2   :     0.080153
      dxy     :     0.036431
      f0      :     0.002004  f :     0.024164
      f+1     :     0.003411
      f-1     :     0.003746
      f+2     :     0.002549
      f-2     :     0.003576
      f+3     :     0.003686
      f-3     :     0.005192

  3 C s       :     2.820252  s :     2.820252
      pz      :     1.042933  p :     3.146766
      px      :     1.064834
      py      :     1.038999
      dz2     :     0.082274  d :     0.263462
      dxz     :     0.030094
      dyz     :     0.045190
      dx2y2   :     0.058816
      dxy     :     0.047089
      f0      :     0.002964  f :     0.024500
      f+1     :     0.003528
      f-1     :     0.004789
      f+2     :     0.003022
      f-2     :     0.004426
      f+3     :     0.003962
      f-3     :     0.001808

  4 C s       :     2.752086  s :     2.752086
      pz      :     0.832545  p :     2.597905
      px      :     0.942509
      py      :     0.822851
      dz2     :     0.199189  d :     0.922039
      dxz     :     0.205504
      dyz     :     0.159899
      dx2y2   :     0.163294
      dxy     :     0.194154
      f0      :     0.017218  f :     0.150104
      f+1     :     0.021423
      f-1     :     0.020024
      f+2     :     0.027394
      f-2     :     0.025346
      f+3     :     0.018628
      f-3     :     0.020072

  5 O s       :     3.391323  s :     3.391323
      pz      :     1.430144  p :     4.432610
      px      :     1.597695
      py      :     1.404771
      dz2     :     0.012488  d :     0.066918
      dxz     :     0.011663
      dyz     :     0.021976
      dx2y2   :     0.009664
      dxy     :     0.011126
      f0      :     0.000632  f :     0.006053
      f+1     :     0.000438
      f-1     :     0.001425
      f+2     :     0.001261
      f-2     :     0.001324
      f+3     :     0.000488
      f-3     :     0.000485

  6 O s       :     3.262110  s :     3.262110
      pz      :     1.549323  p :     4.394811
      px      :     1.277763
      py      :     1.567724
      dz2     :     0.014464  d :     0.105214
      dxz     :     0.029396
      dyz     :     0.010384
      dx2y2   :     0.025187
      dxy     :     0.025783
      f0      :     0.000669  f :     0.006496
      f+1     :     0.000851
      f-1     :     0.000580
      f+2     :     0.001165
      f-2     :     0.001139
      f+3     :     0.001057
      f-3     :     0.001036

  7 C s       :     2.863461  s :     2.863461
      pz      :     1.110731  p :     3.019501
      px      :     0.809033
      py      :     1.099738
      dz2     :     0.055454  d :     0.360405
      dxz     :     0.100582
      dyz     :     0.024043
      dx2y2   :     0.090605
      dxy     :     0.089720
      f0      :     0.005848  f :     0.051145
      f+1     :     0.006663
      f-1     :     0.003024
      f+2     :     0.006811
      f-2     :     0.005551
      f+3     :     0.009655
      f-3     :     0.013594

  8 H s       :     0.817238  s :     0.817238
      pz      :     0.012647  p :     0.060188
      px      :     0.033537
      py      :     0.014004

  9 H s       :     0.816848  s :     0.816848
      pz      :     0.014514  p :     0.060270
      px      :     0.017754
      py      :     0.028003

 10 H s       :     0.809338  s :     0.809338
      pz      :     0.023184  p :     0.061721
      px      :     0.013245
      py      :     0.025292

 11 H s       :     0.816717  s :     0.816717
      pz      :     0.013303  p :     0.060234
      px      :     0.033543
      py      :     0.013388

 12 H s       :     0.816658  s :     0.816658
      pz      :     0.029935  p :     0.060303
      px      :     0.015502
      py      :     0.014865

 13 H s       :     0.809620  s :     0.809620
      pz      :     0.024135  p :     0.061528
      px      :     0.013075
      py      :     0.024318

 14 H s       :     0.816619  s :     0.816619
      pz      :     0.030378  p :     0.060748
      px      :     0.015827
      py      :     0.014543

 15 H s       :     0.816889  s :     0.816889
      pz      :     0.014247  p :     0.060579
      px      :     0.018297
      py      :     0.028035

 16 H s       :     0.817747  s :     0.817747
      pz      :     0.012905  p :     0.059950
      px      :     0.033481
      py      :     0.013564

 17 H s       :     0.827356  s :     0.827356
      pz      :     0.036293  p :     0.061426
      px      :     0.011122
      py      :     0.014011

 18 H s       :     0.827055  s :     0.827055
      pz      :     0.013436  p :     0.061512
      px      :     0.008851
      py      :     0.039225

 19 H s       :     0.830170  s :     0.830170
      pz      :     0.025349  p :     0.060349
      px      :     0.014625
      py      :     0.020375


---------------------------------
LOEWDIN BOND ORDERS (THRESH 0.050000)
---------------------------------
B(  0-C ,  1-C ) :   1.1447 B(  0-C ,  2-C ) :   0.1412 B(  0-C ,  3-C ) :   0.1413 
B(  0-C ,  4-C ) :   0.1516 B(  0-C ,  8-H ) :   0.8936 B(  0-C ,  9-H ) :   0.8975 
B(  0-C , 10-H ) :   0.8935 B(  1-C ,  2-C ) :   1.1417 B(  1-C ,  3-C ) :   1.1632 
B(  1-C ,  4-C ) :   1.0288 B(  1-C ,  5-O ) :   0.1465 B(  1-C ,  6-O ) :   0.1170 
B(  1-C ,  8-H ) :   0.0781 B(  1-C ,  9-H ) :   0.0751 B(  1-C , 10-H ) :   0.0749 
B(  1-C , 11-H ) :   0.0778 B(  1-C , 12-H ) :   0.0746 B(  1-C , 13-H ) :   0.0745 
B(  1-C , 14-H ) :   0.0758 B(  1-C , 15-H ) :   0.0760 B(  1-C , 16-H ) :   0.0806 
B(  2-C ,  3-C ) :   0.1412 B(  2-C ,  4-C ) :   0.1545 B(  2-C , 11-H ) :   0.8935 
B(  2-C , 12-H ) :   0.8977 B(  2-C , 13-H ) :   0.8940 B(  3-C ,  4-C ) :   0.1259 
B(  3-C , 14-H ) :   0.8969 B(  3-C , 15-H ) :   0.8972 B(  3-C , 16-H ) :   0.8907 
B(  4-C ,  5-O ) :   2.6247 B(  4-C ,  6-O ) :   1.6548 B(  4-C ,  7-C ) :   0.1997 
B(  5-O ,  6-O ) :   0.1739 B(  5-O ,  7-C ) :   0.0692 B(  6-O ,  7-C ) :   1.3743 
B(  6-O , 19-H ) :   0.0517 B(  7-C , 17-H ) :   0.9368 B(  7-C , 18-H ) :   0.9363 
B(  7-C , 19-H ) :   0.9401 

------------------------------------------
LOEWDIN REDUCED ORBITAL POPULATIONS PER MO
-------------------------------------------
THRESHOLD FOR PRINTING IS 0.1%%
                      0         1         2         3         4         5   
                 -19.26140 -19.19663 -10.39659 -10.32635 -10.29928 -10.26556
                   2.00000   2.00000   2.00000   2.00000   2.00000   2.00000
                  --------  --------  --------  --------  --------  --------
 1 C  s               0.0       0.0       0.0       0.0      99.0       0.0
 2 C  s               0.0       0.0       0.0       0.0       0.0      99.4
 3 C  dyz             0.0       0.0       0.0       0.0       0.1       0.0
 4 C  s               0.0       0.0      99.0       0.0       0.0       0.0
 4 C  dyz             0.0       0.1       0.0       0.0       0.0       0.0
 5 O  s               0.0      99.6       0.0       0.0       0.0       0.0
 5 O  pz              0.0       0.0       0.1       0.0       0.0       0.0
 5 O  dyz             0.0       0.0       0.2       0.0       0.0       0.0
 6 O  s              99.7       0.0       0.0       0.0       0.0       0.0
 7 C  s               0.0       0.0       0.0      99.6       0.0       0.0

                      6         7         8         9        10        11   
                 -10.26397 -10.26218  -1.23735  -1.14520  -0.96545  -0.85871
                   2.00000   2.00000   2.00000   2.00000   2.00000   2.00000
                  --------  --------  --------  --------  --------  --------
 0 C  s              99.4       0.0       0.1       0.1       9.0       2.5
 0 C  pz              0.0       0.0       0.1       0.0       3.0       0.0
 0 C  px              0.0       0.0       0.2       0.1       0.3       0.1
 0 C  py              0.0       0.0       0.0       0.1       0.3       0.0
 0 C  dz2             0.0       0.0       0.0       0.0       0.4       0.0
 0 C  dxz             0.0       0.0       0.0       0.0       0.2       0.0
 0 C  dyz             0.0       0.0       0.0       0.0       0.2       0.0
 1 C  s               0.0       0.0       1.0       0.2      23.4       0.3
 1 C  pz              0.1       0.0       0.0       0.4       0.0       0.4
 1 C  px              0.0       0.0       2.2       0.1       0.3       3.4
 1 C  py              0.0       0.0       0.1       0.4       0.0       0.1
 1 C  dz2             0.1       0.0       0.1       0.0       0.0       0.2
 1 C  dxz             0.0       0.0       0.0       0.2       0.0       0.0
 1 C  dyz             0.0       0.1       0.0       0.0       0.0       0.1
 1 C  dx2y2           0.0       0.0       0.3       0.0       0.0       0.4
 1 C  dxy             0.0       0.0       0.0       0.2       0.0       0.0
 2 C  s               0.0       0.0       0.1       0.1       9.2       2.2
 2 C  pz              0.0       0.0       0.0       0.0       0.3       0.1
 2 C  px              0.0       0.0       0.2       0.1       0.7       0.1
 2 C  py              0.0       0.0       0.1       0.0       2.7       0.0
 2 C  dz2             0.0       0.0       0.0       0.0       0.1       0.0
 2 C  dyz             0.0       0.0       0.0       0.0       0.1       0.0
 2 C  dx2y2           0.0       0.0       0.0       0.0       0.1       0.0
 2 C  dxy             0.0       0.0       0.0       0.0       0.3       0.0
 3 C  s               0.0      99.4       0.1       0.0       9.3       0.0
 3 C  pz              0.0       0.0       0.1       0.0       1.8       0.0
 3 C  px              0.0       0.0       0.2       0.0       0.0       0.3
 3 C  py              0.0       0.0       0.1       0.0       1.9       0.0
 3 C  dyz             0.0       0.0       0.0       0.0       0.5       0.0
 3 C  dx2y2           0.0       0.0       0.0       0.0       0.1       0.0
 4 C  s               0.0       0.0      17.7       3.4       1.9       3.2
 4 C  pz              0.0       0.0       0.1      13.1       0.7       2.4
 4 C  px              0.0       0.0       4.6       0.2       8.2       0.3
 4 C  py              0.0       0.0       0.0      10.5       1.2       1.8
 4 C  dz2             0.0       0.0       0.1       0.1       0.2       0.1
 4 C  dxz             0.0       0.0       0.5       2.4       0.0       0.1
 4 C  dyz             0.0       0.0       2.4       0.7       0.1       0.1
 4 C  dx2y2           0.0       0.0       0.0       0.6       0.5       0.2
 4 C  dxy             0.0       0.0       0.2       1.7       0.1       0.1
 4 C  f0              0.0       0.0       0.0       0.1       0.0       0.0
 4 C  f+1             0.0       0.0       0.1       0.0       0.0       0.0
 4 C  f-1             0.0       0.0       0.0       0.3       0.0       0.0
 4 C  f+2             0.0       0.0       0.2       0.1       0.0       0.0
 4 C  f-2             0.0       0.0       0.5       0.0       0.0       0.0
 4 C  f-3             0.0       0.0       0.1       0.0       0.0       0.0
 5 O  s               0.0       0.0      13.8      35.8       1.4       0.5
 5 O  pz              0.0       0.0       1.8       1.3       0.1       0.2
 5 O  px              0.0       0.0       0.0       0.6       0.3       0.0
 5 O  py              0.0       0.0       1.6       1.3       0.1       0.2
 5 O  dyz             0.0       0.0       0.2       0.1       0.0       0.0
 6 O  s               0.0       0.0      33.5      17.7       0.1       0.6
 6 O  pz              0.0       0.0       1.5       0.3       0.0       1.0
 6 O  px              0.0       0.0       0.0       0.4       2.1      21.9
 6 O  py              0.0       0.0       1.2       0.2       0.0       0.1
 6 O  dz2             0.0       0.0       0.0       0.0       0.0       0.1
 6 O  dxz             0.0       0.0       0.1       0.0       0.0       0.2
 6 O  dyz             0.0       0.0       0.1       0.0       0.0       0.0
 6 O  dx2y2           0.0       0.0       0.0       0.1       0.0       0.2
 6 O  dxy             0.0       0.0       0.0       0.0       0.0       0.3
 7 C  s               0.0       0.0       4.2       2.4       0.9      26.7
 7 C  pz              0.0       0.0       0.0       0.2       0.0       0.1
 7 C  px              0.0       0.0       5.5       1.8       0.1       0.5
 7 C  py              0.0       0.0       0.1       0.3       0.0       0.0
 7 C  dz2             0.0       0.0       0.5       0.2       0.0       0.0
 7 C  dx2y2           0.0       0.0       1.3       0.5       0.0       0.1
 7 C  dxy             0.0       0.0       0.2       0.2       0.0       0.0
 7 C  f+1             0.0       0.0       0.1       0.1       0.0       0.0
 7 C  f+3             0.0       0.0       0.1       0.1       0.0       0.0
 8 H  s               0.1       0.0       0.0       0.0       1.7       0.8
 8 H  px              0.0       0.0       0.0       0.0       0.1       0.1
 9 H  s               0.1       0.0       0.0       0.0       1.6       0.5
10 H  s               0.1       0.0       0.0       0.0       1.5       0.7
11 H  s               0.0       0.0       0.0       0.0       1.7       0.7
11 H  px              0.0       0.0       0.0       0.0       0.1       0.1
12 H  s               0.0       0.0       0.0       0.0       1.6       0.4
12 H  pz              0.0       0.0       0.0       0.0       0.1       0.0
13 H  s               0.0       0.0       0.0       0.0       1.6       0.6
14 H  s               0.0       0.1       0.0       0.0       1.6       0.0
14 H  pz              0.0       0.0       0.0       0.0       0.1       0.0
15 H  s               0.0       0.1       0.0       0.0       1.6       0.0
15 H  py              0.0       0.0       0.0       0.0       0.1       0.0
16 H  s               0.0       0.1       0.0       0.0       1.7       0.0
16 H  px              0.0       0.0       0.0       0.0       0.1       0.0
17 H  s               0.0       0.0       0.6       0.2       0.2       6.9
17 H  pz              0.0       0.0       0.0       0.0       0.0       0.6
18 H  s               0.0       0.0       0.6       0.2       0.2       6.8
18 H  py              0.0       0.0       0.0       0.0       0.0       0.7
19 H  s               0.0       0.0       0.5       0.3       0.2       8.2
19 H  pz              0.0       0.0       0.0       0.0       0.0       0.4
19 H  px              0.0       0.0       0.0       0.0       0.0       0.2
19 H  py              0.0       0.0       0.0       0.0       0.0       0.2

                     12        13        14        15        16        17   
                  -0.82344  -0.82004  -0.73945  -0.66910  -0.61470  -0.60512
                   2.00000   2.00000   2.00000   2.00000   2.00000   2.00000
                  --------  --------  --------  --------  --------  --------
 0 C  s              15.9       8.2       3.1       0.8       0.6       0.2
 0 C  pz              0.3       0.6       1.0       1.4      10.2       0.7
 0 C  px              0.0       0.0       2.2       0.9       0.9       1.3
 0 C  py              0.6       0.3       0.3       0.7       0.1       0.0
 0 C  dz2             0.0       0.1       0.0       0.1       0.6       0.0
 0 C  dxz             0.0       0.0       0.4       0.1       0.0       0.0
 0 C  dyz             0.1       0.1       0.1       0.1       0.2       0.0
 1 C  s               0.0       0.0       3.9       2.2       3.9       0.0
 1 C  pz              5.9       9.6       0.1       0.2       0.2       1.0
 1 C  px              0.1       0.1      10.7       0.2       9.9       0.0
 1 C  py             10.1       5.3       0.4       0.2       0.7       1.1
 1 C  dz2             1.0       0.0       0.3       0.0       0.0       0.0
 1 C  dxz             0.4       0.2       0.1       0.1       0.0       0.3
 1 C  dyz             0.0       2.0       0.0       0.0       0.0       0.0
 1 C  dx2y2           0.1       0.3       0.6       0.0       0.0       0.0
 1 C  dxy             0.8       0.1       0.2       0.0       0.0       0.3
 2 C  s              22.1       2.3       3.1       0.7       0.5       0.2
 2 C  pz              0.4       0.6       0.2       0.5       0.3       0.0
 2 C  px              0.0       0.0       2.7       1.1       0.3       1.7
 2 C  py              0.5       0.3       0.7       1.1      10.5       0.5
 2 C  dz2             0.0       0.1       0.1       0.0       0.2       0.0
 2 C  dyz             0.0       0.1       0.0       0.0       0.2       0.0
 2 C  dx2y2           0.0       0.0       0.0       0.0       0.3       0.0
 2 C  dxy             0.0       0.0       0.5       0.2       0.1       0.0
 3 C  s               0.6      27.0       2.1       0.2       0.6       0.0
 3 C  pz              0.4       0.5       0.7       0.3       5.4       0.7
 3 C  px              0.0       0.0       1.2       0.2       3.6       0.0
 3 C  py              0.6       0.3       1.0       0.5       4.6       0.5
 3 C  dz2             0.2       0.0       0.0       0.0       0.0       0.0
 3 C  dxz             0.0       0.0       0.2       0.0       0.0       0.0
 3 C  dyz             0.0       0.0       0.2       0.1       0.8       0.0
 3 C  dxy             0.0       0.0       0.2       0.0       0.0       0.0
 4 C  s               0.0       0.2       5.1       1.2       0.5       0.0
 4 C  pz              0.5       0.2       0.4       1.6       0.0       7.0
 4 C  px              0.0       0.2       8.6       8.0       3.4       0.2
 4 C  py              0.7       0.1       0.9       0.6       0.1       8.5
 4 C  dz2             0.0       0.0       0.2       0.0       0.3       0.1
 4 C  dxz             0.1       0.3       0.1       0.1       0.0       0.2
 4 C  dyz             0.0       0.1       0.3       0.3       0.1       0.0
 4 C  dx2y2           0.0       0.1       0.4       0.0       0.6       0.0
 4 C  dxy             0.2       0.2       0.1       0.0       0.1       0.3
 4 C  f-1             0.0       0.0       0.0       0.0       0.0       0.1
 4 C  f+2             0.0       0.0       0.0       0.0       0.0       0.1
 5 O  s               0.0       0.4       2.2       1.1       0.0       0.0
 5 O  pz              0.1       0.0       0.6       2.0       0.2       3.4
 5 O  px              0.0       0.1       1.5       2.8       3.4       0.1
 5 O  py              0.0       0.1       0.7       1.1       0.0       4.4
 5 O  dz2             0.0       0.0       0.0       0.0       0.0       0.2
 5 O  dyz             0.0       0.0       0.0       0.1       0.0       0.0
 6 O  s               0.0       0.2       2.5       3.7       0.3       0.0
 6 O  pz              0.0       0.1       0.6      12.8       3.0      13.1
 6 O  px              0.0       0.3       1.0       9.9       1.8       0.4
 6 O  py              0.0       0.0       0.3       7.8       3.1      15.9
 6 O  dz2             0.0       0.0       0.0       0.0       0.0       0.1
 6 O  dyz             0.0       0.0       0.0       0.2       0.0       0.0
 6 O  dx2y2           0.0       0.0       0.2       0.0       0.0       0.1
 7 C  s               0.0       0.9       5.8       1.5       0.2       0.0
 7 C  pz              0.0       0.0       0.1       5.1       2.0       9.3
 7 C  px              0.0       0.1       4.9       5.4       2.6       0.2
 7 C  py              0.0       0.0       0.3       5.6       1.2      11.5
 7 C  dz2             0.0       0.0       0.2       0.1       0.0       0.2
 7 C  dxz             0.0       0.0       0.0       0.4       0.0       0.1
 7 C  dyz             0.0       0.0       0.0       0.2       0.1       0.0
 7 C  dx2y2           0.0       0.0       0.4       0.2       0.1       0.0
 7 C  dxy             0.0       0.0       0.1       0.6       0.0       0.3
 8 H  s               4.4       2.2       2.8       1.1       0.0       0.8
 8 H  pz              0.0       0.0       0.0       0.0       0.1       0.0
 8 H  px              0.4       0.2       0.2       0.1       0.0       0.0
 9 H  s               5.5       2.0       1.2       0.8       2.3       0.0
 9 H  px              0.1       0.0       0.1       0.0       0.0       0.0
 9 H  py              0.4       0.2       0.0       0.0       0.1       0.0
10 H  s               4.1       3.1       1.2       0.3       3.0       0.3
10 H  pz              0.2       0.1       0.0       0.0       0.0       0.0
10 H  py              0.2       0.2       0.1       0.0       0.2       0.0
11 H  s               6.0       0.6       2.8       1.0       0.0       0.9
11 H  px              0.6       0.1       0.2       0.0       0.0       0.0
11 H  py              0.0       0.0       0.0       0.0       0.1       0.0
12 H  s               7.2       0.4       1.2       0.7       2.4       0.0
12 H  pz              0.6       0.0       0.1       0.0       0.1       0.0
13 H  s               6.1       1.1       1.2       0.3       2.9       0.3
13 H  pz              0.3       0.1       0.1       0.0       0.2       0.0
13 H  py              0.3       0.1       0.0       0.0       0.0       0.0
14 H  s               0.0       8.2       0.9       0.1       3.2       0.4
14 H  pz              0.0       0.6       0.0       0.0       0.1       0.0
14 H  px              0.0       0.1       0.0       0.0       0.0       0.0
14 H  py              0.0       0.1       0.0       0.0       0.1       0.0
15 H  s               0.5       7.8       0.9       0.2       3.1       0.3
15 H  pz              0.0       0.1       0.0       0.0       0.1       0.0
15 H  px              0.0       0.2       0.0       0.0       0.0       0.0
15 H  py              0.0       0.5       0.0       0.0       0.1       0.0
16 H  s               0.2       7.9       2.1       0.4       0.0       0.0
16 H  px              0.0       0.7       0.2       0.0       0.0       0.0
17 H  s               0.0       0.3       3.1       4.1       0.0       5.3
17 H  pz              0.0       0.0       0.3       0.2       0.0       0.2
17 H  py              0.0       0.0       0.0       0.1       0.0       0.0
18 H  s               0.0       0.3       3.1       4.2       0.0       5.2
18 H  py              0.0       0.0       0.3       0.2       0.0       0.2
19 H  s               0.0       0.3       2.9       0.0       3.0       0.0
19 H  pz              0.0       0.0       0.2       0.0       0.1       0.1
19 H  px              0.0       0.0       0.0       0.1       0.0       0.0
19 H  py              0.0       0.0       0.1       0.0       0.0       0.1

                     18        19        20        21        22        23   
                  -0.59006  -0.55370  -0.55215  -0.54992  -0.52009  -0.49928
                   2.00000   2.00000   2.00000   2.00000   2.00000   2.00000
                  --------  --------  --------  --------  --------  --------
 0 C  s               0.0       0.2       0.1       0.1       0.0       0.0
 0 C  pz              0.1       5.1       0.1       2.1       1.9       0.3
 0 C  px              0.2       4.7       0.4       5.0       6.6       5.5
 0 C  py              0.6       5.1      13.7       2.4       4.0       0.2
 0 C  dxz             0.0       0.1       0.0       0.0       0.0       0.0
 0 C  dx2y2           0.0       0.0       0.1       0.1       0.1       0.2
 0 C  dxy             0.0       0.1       0.1       0.1       0.0       0.0
 1 C  s               0.2       0.0       0.0       0.2       0.0       0.0
 1 C  pz              1.3       3.0       5.1       1.1       0.1       0.5
 1 C  px              0.1       0.3       0.1       2.6       0.0       0.0
 1 C  py              1.0       7.1       2.1       0.1       0.0       0.4
 1 C  dz2             0.0       0.5       0.0       0.4       1.3       0.0
 1 C  dxz             0.2       0.0       0.3       0.1       0.8       1.0
 1 C  dyz             0.1       0.1       0.7       0.3       0.0       0.3
 1 C  dx2y2           0.0       0.3       0.0       0.7       0.8       0.0
 1 C  dxy             0.2       0.0       0.2       0.0       0.7       0.9
 1 C  f-2             0.0       0.0       0.0       0.0       0.0       0.1
 2 C  s               0.0       0.3       0.0       0.0       0.0       0.0
 2 C  pz              0.6       0.1      18.2       5.1       2.0       0.7
 2 C  px              0.2       3.4       0.1       6.3       7.7       3.3
 2 C  py              0.3       5.7       0.6       0.9       2.9       0.4
 2 C  dz2             0.0       0.0       0.0       0.1       0.0       0.1
 2 C  dxz             0.0       0.0       0.2       0.1       0.0       0.0
 2 C  dx2y2           0.0       0.0       0.1       0.0       0.2       0.1
 2 C  dxy             0.0       0.2       0.0       0.0       0.0       0.0
 3 C  s               0.4       0.0       0.3       0.0       0.0       0.0
 3 C  pz              1.3      12.1       1.0       0.0       4.0       0.0
 3 C  px              1.2       0.4       0.0       2.9       0.0      37.1
 3 C  py              2.4       6.3       5.5       1.0       3.4       0.2
[...]
 4 C  py              0.0       0.1       0.6       0.5       0.1       0.1
 4 C  dz2             0.1       2.1       0.1       0.1       0.2       0.4
 4 C  dxz             1.3       0.0       0.8       0.2       1.6       0.3
 4 C  dyz             0.1       0.0       0.0       0.5       0.3       0.6
 4 C  dx2y2           0.3       0.7       0.1       0.1       0.1       1.1
 4 C  dxy             1.0       0.0       0.8       0.2       1.4       0.1
 4 C  f0              0.9       0.0       0.0       0.0       0.1       0.0
 4 C  f+1             0.3       0.3       0.0       0.3       0.3       0.2
 4 C  f-1             0.9       0.0       0.3       0.8       0.7       0.3
 4 C  f+2             3.0       0.0       0.1       1.3       0.8       0.5
 4 C  f-2             1.0       0.0       0.0       0.3       1.7       0.3
 4 C  f+3             1.2       0.1       0.0       0.2       0.5       0.4
 4 C  f-3             1.9       0.0       0.0       0.6       0.4       0.1
 5 O  s               0.1       0.0       0.5       1.4       0.0       0.5
 5 O  pz              0.1       0.6       0.1       1.6       0.1       0.1
 5 O  px              0.9       0.0       1.4       0.4       2.2       0.0
 5 O  py              0.0       0.7       0.2       1.2       0.0       0.0
 5 O  dz2             0.8      20.7       1.2       6.7       0.9       0.1
 5 O  dxz             3.5       3.9      23.7       0.8       4.6       0.8
 5 O  dyz             6.6       0.1       3.5      38.2       0.2       1.6
 5 O  dx2y2           0.3      10.0       0.9      11.8       1.1       0.1
 5 O  dxy             2.4       1.8      24.5       0.4       5.3       0.5
 5 O  f0              1.3       3.6       0.9       0.0       1.5       0.4
 5 O  f+1             0.2       1.4       0.9       0.0       0.3       0.1
 5 O  f-1             1.1       2.5       0.2       6.6       1.2       0.0
 5 O  f+2             3.4       1.2       0.0       6.4       2.9       0.2
 5 O  f-2             2.5       0.0       4.8       0.0       5.6       0.0
 5 O  f+3             0.9       0.5       1.6       0.0       1.2       0.0
 5 O  f-3             3.1       1.3       0.4       1.3       3.2       0.7
 6 O  s               1.1       0.0       0.4       0.4       0.9       2.5
 6 O  pz              0.5       0.0       0.1       0.1       0.3       0.1
 6 O  px              2.4       0.0       0.1       0.0       0.8       0.2
 6 O  py              0.7       0.0       0.1       0.0       0.2       0.0
 6 O  dz2             1.8       4.8       0.0       0.0       0.1      17.9
 6 O  dxz            11.6      14.4      10.9       2.5      24.8       0.5
 6 O  dyz             8.6       0.6       8.1       6.2       0.4       2.6
 6 O  dx2y2           2.8       0.0       2.2       0.7       1.7      48.6
 6 O  dxy            14.4      20.7       4.9       0.7      16.9       1.5
 6 O  f0              0.0       1.6       0.0       0.4       0.1       0.9
 6 O  f+1             2.9       2.4       0.2       0.1       1.8       0.4
 6 O  f-1             1.9       0.1       0.5       0.1       1.0       1.5
 6 O  f+2             2.9       0.0       0.2       0.2       0.8       4.1
 6 O  f-2             0.3       0.0       0.8       0.0       5.0       0.1
 6 O  f+3             4.7       2.2       0.1       0.5       2.1       0.0
 6 O  f-3             0.0       0.2       0.0       0.2       0.2       3.9
 7 C  s               0.9       0.0       0.0       0.0       0.2       1.3
 7 C  px              0.8       0.0       0.1       0.0       0.1       1.6
 7 C  py              0.0       0.0       0.0       0.0       0.0       0.2
 7 C  dz2             0.1       0.0       0.0       0.0       0.0       0.2
 7 C  dxz             0.0       0.1       0.0       0.0       0.3       0.1
 7 C  dx2y2           0.3       0.1       0.0       0.0       0.1       0.5
 7 C  dxy             0.1       0.1       0.0       0.0       0.2       0.2
 7 C  f-2             0.0       0.0       0.0       0.0       0.2       0.0
 7 C  f-3             0.0       0.1       0.0       0.0       0.1       0.0

                    312       313       314       315       316       317   
                  22.39270  22.49628  22.49960  22.55099  22.77576  23.39647
                   0.00000   0.00000   0.00000   0.00000   0.00000   0.00000
                  --------  --------  --------  --------  --------  --------
 0 C  s               0.1      12.6      72.1      13.4       0.2       0.2
 1 C  s               0.2       0.3       0.0       1.0      97.7       0.1
 1 C  dyz             0.0       0.0       0.0       0.1       0.0       0.0
 2 C  s               0.2      60.4      24.0      13.2       0.4       0.3
 3 C  s               2.9      23.4       2.4      69.0       0.4       0.3
 4 C  s               0.8       0.2       0.0       0.5       0.1      94.6
 4 C  px              0.0       0.0       0.0       0.0       0.1       0.2
 4 C  dyz             0.0       0.0       0.0       0.0       0.0       0.2
 5 O  s               0.0       0.0       0.0       0.0       0.0       0.9
 5 O  pz              0.0       0.0       0.0       0.0       0.0       0.3
 5 O  py              0.0       0.0       0.0       0.0       0.0       0.3
 6 O  s               0.2       0.0       0.0       0.0       0.0       0.4
 6 O  pz              0.0       0.0       0.0       0.0       0.0       0.2
 6 O  px              0.2       0.0       0.0       0.0       0.0       0.2
 7 C  s              94.2       1.6       0.1       1.4       0.2       0.8
 8 H  s               0.0       0.0       0.1       0.0       0.0       0.0
 9 H  s               0.0       0.0       0.1       0.0       0.0       0.0
10 H  s               0.0       0.0       0.2       0.0       0.0       0.0
11 H  s               0.0       0.1       0.1       0.0       0.0       0.0
12 H  s               0.0       0.1       0.0       0.0       0.0       0.0
13 H  s               0.0       0.1       0.0       0.0       0.0       0.0
14 H  s               0.0       0.1       0.0       0.1       0.0       0.0
15 H  s               0.0       0.1       0.0       0.1       0.0       0.0
16 H  s               0.0       0.0       0.0       0.1       0.0       0.0
17 H  s               0.2       0.0       0.0       0.0       0.0       0.0
18 H  s               0.2       0.0       0.0       0.0       0.0       0.0
18 H  py              0.1       0.0       0.0       0.0       0.0       0.0
19 H  s               0.2       0.0       0.0       0.0       0.0       0.0

                    318       319   
                  44.03908  44.18257
                   0.00000   0.00000
                  --------  --------
 5 O  s              97.8       2.0
 6 O  s               2.0      97.7


                      *****************************
                      * MAYER POPULATION ANALYSIS *
                      *****************************

  NA   - Mulliken gross atomic population
  ZA   - Total nuclear charge
  QA   - Mulliken gross atomic charge
  VA   - Mayer's total valence
  BVA  - Mayer's bonded valence
  FA   - Mayer's free valence

  ATOM       NA         ZA         QA         VA         BVA        FA
  0 C      6.3754     6.0000    -0.3754     3.9001     3.9001    -0.0000
  1 C      5.8806     6.0000     0.1194     3.8468     3.8468    -0.0000
  2 C      6.3776     6.0000    -0.3776     3.8988     3.8988    -0.0000
  3 C      6.3396     6.0000    -0.3396     3.8917     3.8917    -0.0000
  4 C      5.7227     6.0000     0.2773     4.2166     4.2166    -0.0000
  5 O      8.3452     8.0000    -0.3452     2.1853     2.1853    -0.0000
  6 O      8.2275     8.0000    -0.2275     2.1265     2.1265    -0.0000
  7 C      6.1982     6.0000    -0.1982     3.8978     3.8978    -0.0000
  8 H      0.8854     1.0000     0.1146     0.9751     0.9751    -0.0000
  9 H      0.8863     1.0000     0.1137     0.9776     0.9776    -0.0000
 10 H      0.8601     1.0000     0.1399     0.9846     0.9846    -0.0000
 11 H      0.8848     1.0000     0.1152     0.9755     0.9755    -0.0000
 12 H      0.8848     1.0000     0.1152     0.9774     0.9774     0.0000
 13 H      0.8609     1.0000     0.1391     0.9833     0.9833     0.0000
 14 H      0.8833     1.0000     0.1167     0.9858     0.9858     0.0000
 15 H      0.8852     1.0000     0.1148     0.9853     0.9853    -0.0000
 16 H      0.8876     1.0000     0.1124     0.9742     0.9742     0.0000
 17 H      0.8716     1.0000     0.1284     0.9712     0.9712    -0.0000
 18 H      0.8709     1.0000     0.1291     0.9714     0.9714    -0.0000
 19 H      0.8723     1.0000     0.1277     0.9663     0.9663    -0.0000

  Mayer bond orders larger than 0.100000
B(  0-C ,  1-C ) :   0.9671 B(  0-C ,  8-H ) :   0.9779 B(  0-C ,  9-H ) :   0.9756 
B(  0-C , 10-H ) :   0.9723 B(  1-C ,  2-C ) :   0.9598 B(  1-C ,  3-C ) :   0.9963 
B(  1-C ,  4-C ) :   0.9321 B(  2-C , 11-H ) :   0.9776 B(  2-C , 12-H ) :   0.9746 
B(  2-C , 13-H ) :   0.9736 B(  3-C , 14-H ) :   0.9721 B(  3-C , 15-H ) :   0.9733 
B(  3-C , 16-H ) :   0.9746 B(  4-C ,  5-O ) :   2.0612 B(  4-C ,  6-O ) :   1.2053 
B(  6-O ,  7-C ) :   0.9112 B(  7-C , 17-H ) :   0.9784 B(  7-C , 18-H ) :   0.9780 
B(  7-C , 19-H ) :   0.9737 

-------
TIMINGS
-------

Total SCF time: 0 days 0 hours 2 min 0 sec 

Total time                  ....     120.031 sec
Sum of individual times     ....     117.860 sec  ( 98.2%)

SCF preparation             ....       0.069 sec  (  0.1%)
Fock matrix formation       ....     117.219 sec  ( 97.7%)
  Startup                   ....       0.006 sec  (  0.0% of F)
  Split-RI-J                ....       4.462 sec  (  3.8% of F)
  Chain of spheres X        ....     104.379 sec  ( 89.0% of F)
  XC integration            ....      10.478 sec  (  8.9% of F)
    XC Preparation          ....       0.000 sec  (  0.0% of XC)
    Basis function eval.    ....       2.605 sec  ( 24.9% of XC)
    Density eval.           ....       2.479 sec  ( 23.7% of XC)
    XC-Functional eval.     ....       2.532 sec  ( 24.2% of XC)
    XC-Potential eval.      ....       2.724 sec  ( 26.0% of XC)
Diagonalization             ....       0.000 sec  (  0.0%)
Density matrix formation    ....       0.022 sec  (  0.0%)
Total Energy calculation    ....       0.005 sec  (  0.0%)
Population analysis         ....       0.210 sec  (  0.2%)
Orbital Transformation      ....       0.030 sec  (  0.0%)
Orbital Orthonormalization  ....       0.000 sec  (  0.0%)
DIIS solution               ....       0.102 sec  (  0.1%)
  MO trafo                  ....       0.000 sec  (  0.0 % of DIIS)
  Orb grad                  ....       0.000 sec  (  0.0 % of DIIS)
  Energy W gradient         ....       0.000 sec  (  0.0 % of DIIS)
  DIIS error                ....       0.014 sec  ( 13.7 % of DIIS)
  DIIS work                 ....       0.072 sec  ( 70.5 % of DIIS)
  Form Q                    ....       0.000 sec  (  0.0 % of DIIS)
  Form QpQm                 ....       0.000 sec  (  0.0 % of DIIS)
  Exp/Cayley                ....       0.000 sec  (  0.0 % of DIIS)
  Orb update                ....       0.000 sec  (  0.0 % of DIIS)
  Wake-sleep                ....       0.001 sec  (  0.8 % of DIIS)
SOSCF solution              ....       0.061 sec  (  0.1%)
  MO trafo                  ....       0.031 sec  ( 51.8 % of SOSCF)
  Orb grad                  ....       0.000 sec  (  0.7 % of SOSCF)
  Rot update                ....       0.002 sec  (  2.5 % of SOSCF)
  Step                      ....       0.027 sec  ( 44.8 % of SOSCF)
Grid generation             ....       0.141 sec  (  0.1%)
Finished LeanSCF after 120.0 sec

Maximum memory used throughout the entire LEANSCF-calculation: 45.7 MB
------------------   -----------------
gCP correction             0.014180589
------------------   -----------------

-------------------------   --------------------
FINAL SINGLE POINT ENERGY      -386.353188422895
-------------------------   --------------------


------------------------------------------------------------------------------
                              ORCA PROPERTY CALCULATIONS
------------------------------------------------------------------------------

GBWName                                 ... sp.gbw
Number of atoms                         ...     20
Number of basis functions               ...    320
Max core memory                         ...   1024 MB

Electric properties:
Dipole moment                           ... YES
Quadrupole moment                       ...  NO
Static polarizability (Dipole/Dipole)   ...  NO
Static polarizability (Dipole/Quad.)    ...  NO
Static polarizability (Quad./Quad.)     ...  NO
Static polarizability (Velocity)        ...  NO

Atomic electric properties:
Dipole moment                           ...  NO
Quadrupole moment                       ...  NO
Static polarizability                   ...  NO

Choice of electric origin               ... Center of mass
Position of electric origin             ...     0.023830    -0.062619     0.039935

General magnetic properties:
Magnetizability                         ...  NO

EPR properties:
g-Tensor (aka g-matrix)                 ...  NO
Zero-Field splitting spin-orbit         ...  NO
Zero-field splitting spin-spin          ...  NO
Hyperfine couplings                     ...  NO (   0 nuclei)
Quadrupole couplings                    ...  NO (   0 nuclei)
Contact density                         ...  NO (   0 nuclei)

NMR properties:
Chemical shifts                         ...  NO (   0 nuclei)
Spin-rotation constants                 ...  NO (   0 nuclei)
Spin-spin couplings                     ...  NO (   0 nuclei,    0 pairs)

Choice of magnetic origin               ... GIAO
Position of magnetic origin             ...     0.000000     0.000000     0.000000

Properties with geometric perturbations:
SCF Hessian                             ...  NO
IR spectrum                             ...  NO
VCD spectrum                            ...  NO
X-ray spectroscopy properties:
SCF XES/XAS/RIXS spectra                ...  NO


-------------
DIPOLE MOMENT
-------------

Method             : SCF
Type of density    : Electron Density
Multiplicity       :   1
Irrep              :   0
Energy             :  -386.3673690116951320 Eh
Relativity type    : 
Basis              : AO
                                X                 Y                 Z
Electronic contribution:      5.207987916       1.712417249       1.196184098
Nuclear contribution   :     -5.194962434      -2.149280627      -1.698955462
                        -----------------------------------------
Total Dipole Moment    :      0.013025482      -0.436863377      -0.502771364
                        -----------------------------------------
Magnitude (a.u.)       :      0.666181896
Magnitude (Debye)      :      1.693299810



--------------------
Rotational spectrum 
--------------------
 
Rotational constants in cm-1:             0.105199             0.049748             0.043781 
Rotational constants in MHz :          3153.787969          1491.422198          1312.506448 

Dipole components along the rotational axes: 
x,y,z [a.u.] :     0.032004    -0.665308    -0.011818 
x,y,z [Debye]:     0.081349    -1.691078    -0.030038 

 

Dipole moment calculation done in   0.0 sec 

Maximum memory used throughout the entire PROP-calculation: 28.5 MB

--------------------------------
SUGGESTED CITATIONS FOR THIS RUN
--------------------------------

Below you find a list of papers that are relevant to this ORCA run
We neither can nor want to force you to cite these papers, but we appreciate if you do
You receive ORCA, which is the product of decades of hard work by many enthusiastic individuals, for free
The only thing we kindly ask in return is that you cite our papers,
We deeply appreciate it, if you show your appreciation for ORCA by not just citing the generic ORCA reference.

Please note that relegating all ORCA citations to the supporting information does *not* help us.
SI sections are not indexed - citations you put there will not count into any citation statistics
But we need these citations in order to attract the funding resources that allow us to do what we are doing

Therefore, if you are a happy ORCA user, please consider citing a few of the papers listed below in the main body of your paper

In addition to the list printed below, the program has created the file sp.bibtex that contains the list in bibtex format
You can import this file easily into all common literature databanks and citation aid programs


List of essential papers. We consider these as the minimum necessary citations

  1. Neese,F.
     Software update: the ORCA program system, version 5.0
     WIRES Comput. Molec. Sci., 2022 12(1)e1606
     doi.org/10.1002/wcms.1606

List of papers to cite with high priority. The work reported in these papers was absolutely
necessary for this run to complete.
Our perspective: the developers of density functionals and basis sets usually get cited in chemistry papers
Good! But without the algorithms to do something with them, the functionals or basis sets would not do anything.
Hence, in our opinion, the algorithm design and method developments papers are equally worthy of getting cited

  1. Neese,F.
     An improvement of the resolution of the identity approximation for the formation of the Coulomb matrix
     J. Comp. Chem., 2003 24(14)1740-1747
     doi.org/10.1002/jcc.10318
  2. Neese,F.; Wennmohs,F.; Hansen,A.; Becker,U.
     Efficient, approximate and parallel Hartree-Fock and hybrid DFT calculations. A 'chain-of-spheres' algorithm for the Hartree-Fock exchange
     Chem. Phys., 2009 356(1-3)98-109
     doi.org/10.1016/j.chemphys.2008.10.036
  3. Helmich-Paris,B.; de Souza,B.; Neese,F.; Izsák,R.
     An improved chain of spheres for exchange algorithm
     J. Chem. Phys., 2021 155 104109
     doi.org/doi: 10.1063/5.0058766.
  4. Neese,F.
     The SHARK Integral Generation and Digestion System
     J. Comp. Chem., 2022  1-16
     doi.org/10.1002/jcc.26942

List of suggested additional citations. These are papers that are important in the 'surrounding' of 
of this run, or papers that preceded the highly important papers. If you like your results we are grateful for a citation.

  1. Izsak,R.; Neese,F.
     An overlap fitted chain of spheres exchange method
     J. Chem. Phys., 2011 135 144105
     doi.org/10.1063/1.3646921
  2. Izsak,R.; Hansen,A.; Neese,F.
     The resolution of identity and chain of spheres approximations for the LPNO-CCSD singles Fock term
     Molec. Phys., 2012 110 2413-2417
     doi.org/10.1080/00268976.2012.687466
  3. Neese,F.
     The ORCA program system
     WIRES Comput. Molec. Sci., 2012 2(1)73-78
     doi.org/10.1002/wcms.81
  4. Izsak,R.; Neese,F.; Klopper,W.
     Robust fitting techniques in the chain of spheres approximation to the Fock exchange: The role of the complementary space
     J. Chem. Phys., 2013 139 
     doi.org/10.1063/1.4819264
  5. Neese,F.
     Software update: the ORCA program system, version 4.0
     WIRES Comput. Molec. Sci., 2018 8(1)1-6
     doi.org/10.1002/wcms.1327
  6. Neese,F.; Wennmohs,F.; Becker,U.; Riplinger,C.
     The ORCA quantum chemistry program package
     J. Chem. Phys., 2020 152 Art. No. L224108
     doi.org/10.1063/5.0004608

List of optional additional citations

  1. Neese,F.
     Approximate second-order SCF convergence for spin unrestricted wavefunctions
     Chem. Phys. Lett., 2000 325(1-3)93-98
     doi.org/10.1016/s0009-2614(00)00662-x

Timings for individual modules:

Sum of individual times          ...      121.656 sec (=   2.028 min)
Startup calculation              ...        1.456 sec (=   0.024 min)   1.2 %
SCF iterations                   ...      120.145 sec (=   2.002 min)  98.8 %
Property calculations            ...        0.056 sec (=   0.001 min)   0.0 %
                             ****ORCA TERMINATED NORMALLY****
TOTAL RUN TIME: 0 days 0 hours 2 minutes 1 seconds 716 msec
