
                                 *****************
                                 * O   R   C   A *
                                 *****************

                                            #,                                       
                                            ###                                      
                                            ####                                     
                                            #####                                    
                                            ######                                   
                                           ########,                                 
                                     ,,################,,,,,                         
                               ,,#################################,,                 
                          ,,##########################################,,             
                       ,#########################################, ''#####,          
                    ,#############################################,,   '####,        
                  ,##################################################,,,,####,       
                ,###########''''           ''''###############################       
              ,#####''   ,,,,##########,,,,          '''####'''          '####       
            ,##' ,,,,###########################,,,                        '##       
           ' ,,###''''                  '''############,,,                           
         ,,##''                                '''############,,,,        ,,,,,,###''
      ,#''                                            '''#######################'''  
     '                                                          ''''####''''         
             ,#######,   #######,   ,#######,      ##                                
            ,#'     '#,  ##    ##  ,#'     '#,    #''#        ,####,   ,####,        
            ##       ##  ##   ,#'  ##            #'  '#       #'       #'  '#        
            ##       ##  #######   ##           ,######,      #####,   #    #        
            '#,     ,#'  ##    ##  '#,     ,#' ,#      #,     #,   #   #,  ,#        
             '#######'   ##     ##  '#######'  #'      '#     '####' # '####'        



                #########################################################
                #                        -***-                          #
                #          Department of theory and spectroscopy        #
                #                                                       #
                #                      Frank Neese                      #
                #                                                       #
                #     Directorship, Architecture, Infrastructure        #
                #                    SHARK, DRIVERS                     #
                #        Core code/Algorithms in most modules           #
                #                                                       #
                #        Max Planck Institute fuer Kohlenforschung      #
                #                Kaiser Wilhelm Platz 1                 #
                #                 D-45470 Muelheim/Ruhr                 #
                #                      Germany                          #
                #                                                       #
                #                  All rights reserved                  #
                #                        -***-                          #
                #########################################################


                         Program Version 6.0.1  -  RELEASE   -


 With contributions from (in alphabetic order):
[Max-Planck-Institut fuer Kohlenforschung]                               
  Daniel Aravena         : Magnetic Suceptibility                        
  Michael Atanasov       : Ab Initio Ligand Field Theory (pilot matlab implementation)
  Alexander A. Auer      : GIAO ZORA, VPT2 properties, NMR spectrum      
  Ute Becker             : All parallelization in ORCA, NUMFREQ, NUMCALC 
  Giovanni Bistoni       : ED, misc. LED, open-shell LED, HFLD           
  Martin Brehm           : Molecular dynamics                            
  Dmytro Bykov           : pre 5.0 version of the SCF Hessian            
  Marcos Casanova-Páez   : Triplet and SCS-CIS(D). UHF-(DLPNO)-IP/EA/STEOM-CCSD. UHF-CVS-IP/STEOM-CCSD   
  Vijay G. Chilkuri      : MRCI spin determinant printing, contributions to CSF-ICE 
  Pauline Colinet        : FMM embedding                                 
  Dipayan Datta          : RHF DLPNO-CCSD density                        
  Achintya Kumar Dutta   : EOM-CC, STEOM-CC                              
  Nicolas Foglia         : Exact transition moments, OPA infrastructure, MCD improvements    
  Dmitry Ganyushin       : Spin-Orbit,Spin-Spin,Magnetic field MRCI      
  Miquel Garcia-Rates    : C-PCM and meta-GGA Hessian, CCSD/C-PCM, Gaussian charge scheme 
  Tiago L. C. Gouveia    : GS-ROHF, GS-ROCIS                             
  Yang Guo               : DLPNO-NEVPT2, F12-NEVPT2, CIM, IAO-localization        
  Andreas Hansen         : Spin unrestricted coupled pair/coupled cluster methods 
  Ingolf Harden          : AUTO-CI MPn and infrastructure                
  Benjamin Helmich-Paris : MC-RPA, TRAH-(SCF,CASSCF), AVAS, COSX integrals, SCF dyn. polar. 
  Lee Huntington         : MR-EOM, pCC                                   
  Robert Izsak           : Overlap fitted RIJCOSX, COSX-SCS-MP3, EOM     
  Riya Kayal             : Wick's Theorem for AUTO-CI, AUTO-CI UHF-CCSDT 
  Emily Kempfer          : AUTO-CI, RHF CISDT and CCSDT                  
  Christian Kollmar      : KDIIS, OOCD, Brueckner-CCSD(T), CCSD density, CASPT2, CASPT2-K, improved NEVPT2 
  Axel Koslowski         : Symmetry handling                             
  Simone Kossmann        : meta-GGA functionals, TD-DFT gradient, OOMP2, (MP2 Hessian; deprecated post 5.0) 
  Lucas Lang             : DCDCAS                                        
  Marvin Lechner         : AUTO-CI (C++ implementation), FIC-MRCC        
  Spencer Leger          : CASSCF response                               
  Dagmar Lenk            : GEPOL surface, SMD, ORCA-2-JSON               
  Dimitrios Liakos       : Extrapolation schemes; Compound Job, initial MDCI parallelization 
  Dimitrios Manganas     : Further ROCIS development; embedding schemes. LFT, Crystal Embedding 
  Dimitrios Pantazis     : SARC Basis sets                               
  Anastasios Papadopoulos: AUTO-CI, single reference methods and gradients 
  Taras Petrenko         : pre 6.0 DFT Hessian and TD-DFT gradient, (ASA, deprecated), ECA, 1-Electron XAS/XES, NRVS 
  Peter Pinski           : DLPNO-MP2, DLPNO-MP2 Gradient                 
  Christoph Reimann      : Effective Core Potentials                     
  Marius Retegan         : Local ZFS, SOC                                
  Christoph Riplinger    : Optimizer, TS searches, QM/MM, DLPNO-CCSD(T), (RO)-DLPNO pert. Triples 
  Michael Roemelt        : Original ROCIS implementation                 
  Masaaki Saitow         : Open-shell DLPNO-CCSD energy and density      
  Barbara Sandhoefer     : DKH picture change effects                    
  Kantharuban Sivalingam : CASSCF convergence/infrastructure, NEVPT2 and variants, FIC-MRCI 
  Bernardo de Souza      : ESD, SOC TD-DFT                               
  Georgi L. Stoychev     : AutoAux, RI-MP2 NMR, DLPNO-MP2 response, X2C  
  Van Anh Tran           : RI-MP2 g-tensors                              
  Willem Van den Heuvel  : Paramagnetic NMR                              
  Zikuan Wang            : NOTCH, Electric field optimization            
  Frank Wennmohs         : Technical directorship and infrastructure     
  Hang Xu                : AUTO-CI-Response properties                   
                                                                         
[FACCTs GmbH]                                                            
  Markus Bursch, Miquel Garcia-Rates, Christoph Riplinger, Bernardo de Souza, Georgi L. Stoychev 
                                                                 
  APM, Basis sets (HGBS, AHGBS, def-TZVP (Ac-Lr), def2-XVPD (La-Lu)), CI-OPT, improved COSX, DLPNO-Multilevel,           
  DOCKER, DRACO, updates on ESD, GOAT, IRC, LR-CPCM, MBIS, meta-GGA TD-DFT gradient, ML-optimized integration grids, 
  MM, NACMEs, nearIR, NEB, NEB-TS, NL-DFT gradient (VV10), 2- and 3-layer-ONIOM, interface openCOSMO-RS, QMMM,   
  Crystal-QMMM, SF, symmetry and pop. for TD-DFT, r2SCAN hybrids, SOLVATOR                                   
                                                                         
[Other institutions]                                                     
  V. Asgeirsson          : NEB                                           
  Christoph Bannwarth    : sTDA-DFT, sTD-DFT, PBEh-3c, B97-3c, D3        
  Sebastian Ehlert       : rSCAN, r2SCAN, r2SCAN-3c, D4, dhf basis sets  
  Marvin Friede          : D4 for Fr, Ra, Ac-Lr                          
  Lars Goerigk           : TD-DFT with DH, B97 family of functionals     
  Stefan Grimme          : VdW corrections, initial TS optimization, DFT functionals, gCP, sTDA/sTD-DF 
  Waldemar Hujo          : DFT-NL                                        
  H. Jonsson             : NEB                                           
  Holger Kruse           : gCP                                           
  Marcel Mueller         : wB97X-3c, vDZP basis set                      
  Hagen Neugebauer       : wr2SCAN                                       
  Tobias Risthaus        : range-separated hybrid DFT                    
  Lukas Wittmann         : regularized MP2, r2SCAN double-hybrids, wr2SCAN        
                                                                         
We gratefully acknowledge several colleagues who have allowed us to      
interface, adapt or use parts of their codes:                            
  Ed Valeev, F. Pavosevic, A. Kumar             : LibInt (2-el integral package), F12 methods 
  Garnet Chan, S. Sharma, J. Yang, R. Olivares  : DMRG                   
  Ulf Ekstrom                                   : XCFun DFT Library      
  Mihaly Kallay                                 : mrcc  (arbitrary order and MRCC methods)
  Frank Weinhold                                : gennbo (NPA and NBO analysis)           
  Simon Mueller                                 : openCOSMO-RS                            
  Christopher J. Cramer and Donald G. Truhlar   : smd solvation model                     
  S Lehtola, MJT Oliveira, MAL Marques          : LibXC Library                           
  Liviu Ungur et al                             : ANISO software                          


 Your calculation uses the libint2 library for the computation of 2-el integrals
 For citations please refer to: http://libint.valeyev.net

 Your ORCA version has been built with support for libXC version: 6.2.2
 For citations please refer to: https://libxc.gitlab.io

 This ORCA versions uses:
   CBLAS   interface :  Fast vector & matrix operations
   LAPACKE interface :  Fast linear algebra routines
   SCALAPACK package :  Parallel linear algebra routines
   Shared memory     :  Shared parallel matrices
   BLAS/LAPACK       :  OpenBLAS 0.3.27  USE64BITINT DYNAMIC_ARCH NO_AFFINITY Zen SINGLE_THREADED
        Core in use  :  Zen
   Copyright (c) 2011-2014, The OpenBLAS Project


Your calculation utilizes the geometrical counterpoise correction gCP
Please cite in your paper:
H.Kruse, S. Grimme J.Chem.Phys., 136, (2012), 154101 
   

Your calculation utilizes the atom-pairwise dispersion correction
based on EEQ partial charges (D4)


================================================================================

----- Orbital basis set information -----
Your calculation utilizes the basis: def2-mTZVPP
   Stefan Grimme, Andreas Hansen, Sebastian Ehlert, and Jan-Michael Mewes 
   J. Chem. Phys. 154, 064103 (2021). DOI: 10.1063/5.0040021

----- AuxJ basis set information -----
Your calculation utilizes the auxiliary basis: def2/J
   F. Weigend, Phys. Chem. Chem. Phys. 8, 1057 (2006).

================================================================================
                                        WARNINGS
                       Please study these warnings very carefully!
================================================================================

WARNING: Old DensityContainer found on disk!
         Will remove this file - 
         If you want to keep old densities, please start your calculation with a different basename. 



WARNING: SCAN, rSCAN, or r2SCAN functional requested.
  ===> : libXC variant has now been activated.



================================================================================
                                       INPUT FILE
================================================================================
NAME = sp.inp
|  1> ! r2scan-3c def2/J RI DEFGRID2 scfconv6 printgap
|  2> %output
|  3>     printlevel normal
|  4> end
|  5> * xyz 0 1
|  6> C 1.400797233 -0.0006187001 -4.40983e-05
|  7> C 0.693534123 -1.1923695618 -4.87244e-05
|  8> C -0.6921922123 -1.1330103089 0.0001160767
|  9> N -1.3716724636 0.0006158367 -2.4666e-06
| 10> C -0.6911418371 1.133597698 -0.0001101818
| 11> C 0.6946195266 1.1917715439 0.0001482449
| 12> H 2.4816391647 -0.0010953095 -0.0002455805
| 13> H 1.203638907 -2.1434262061 -0.0002367608
| 14> H -1.2905458152 -2.035034603 -4.00636e-05
| 15> H -1.2887761099 2.0361242566 -0.0003877639
| 16> H 1.2055240714 2.1423732552 0.0002137401
| 17> *
| 18> 
| 19>                          ****END OF INPUT****
================================================================================

                       ****************************
                       * Single Point Calculation *
                       ****************************

---------------------------------
CARTESIAN COORDINATES (ANGSTROEM)
---------------------------------
  C      1.400797   -0.000619   -0.000044
  C      0.693534   -1.192370   -0.000049
  C     -0.692192   -1.133010    0.000116
  N     -1.371672    0.000616   -0.000002
  C     -0.691142    1.133598   -0.000110
  C      0.694620    1.191772    0.000148
  H      2.481639   -0.001095   -0.000246
  H      1.203639   -2.143426   -0.000237
  H     -1.290546   -2.035035   -0.000040
  H     -1.288776    2.036124   -0.000388
  H      1.205524    2.142373    0.000214

----------------------------
CARTESIAN COORDINATES (A.U.)
----------------------------
  NO LB      ZA    FRAG     MASS         X           Y           Z
   0 C     6.0000    0    12.011    2.647123   -0.001169   -0.000083
   1 C     6.0000    0    12.011    1.310590   -2.253252   -0.000092
   2 C     6.0000    0    12.011   -1.308054   -2.141079    0.000219
   3 N     7.0000    0    14.007   -2.592085    0.001164   -0.000005
   4 C     6.0000    0    12.011   -1.306069    2.142189   -0.000208
   5 C     6.0000    0    12.011    1.312641    2.252122    0.000280
   6 H     1.0000    0     1.008    4.689618   -0.002070   -0.000464
   7 H     1.0000    0     1.008    2.274548   -4.050489   -0.000447
   8 H     1.0000    0     1.008   -2.438778   -3.845658   -0.000076
   9 H     1.0000    0     1.008   -2.435434    3.847717   -0.000733
  10 H     1.0000    0     1.008    2.278110    4.048499    0.000404

--------------------------------
INTERNAL COORDINATES (ANGSTROEM)
--------------------------------
 C      0   0   0     0.000000000000     0.00000000     0.00000000
 C      1   0   0     1.385817889606     0.00000000     0.00000000
 C      2   1   0     1.386997124874   118.23483804     0.00000000
 N      3   2   1     1.321666245293   123.39073775     0.00000000
 C      4   3   2     1.321654207137   118.07077422     0.00000000
 C      1   2   3     1.385814375737   118.67673756     0.00000000
 H      1   2   3     1.080842055563   120.66240647   180.00470011
 H      2   1   3     1.079219934344   121.10518328   179.99628612
 H      3   2   1     1.082439321916   121.10528453   179.99011245
 H      5   4   3     1.082460618247   115.49698358   179.98928274
 H      6   1   2     1.079197420175   121.10843247   179.99660592

---------------------------
INTERNAL COORDINATES (A.U.)
---------------------------
 C      0   0   0     0.000000000000     0.00000000     0.00000000
 C      1   0   0     2.618816282843     0.00000000     0.00000000
 C      2   1   0     2.621044714548   118.23483804     0.00000000
 N      3   2   1     2.497587244052   123.39073775     0.00000000
 C      4   3   2     2.497564495233   118.07077422     0.00000000
 C      1   2   3     2.618809642594   118.67673756     0.00000000
 H      1   2   3     2.042495479038   120.66240647   180.00470011
 H      2   1   3     2.039430114178   121.10518328   179.99628612
 H      3   2   1     2.045513875009   121.10528453   179.99011245
 H      5   4   3     2.045554119242   115.49698358   179.98928274
 H      6   1   2     2.039387568566   121.10843247   179.99660592

---------------------
BASIS SET INFORMATION
---------------------
There are 3 groups of distinct atoms

 Group   1 Type C   : 11s6p1d contracted to 5s3p1d pattern {62111/411/1}
 Group   2 Type N   : 11s6p2d contracted to 5s3p2d pattern {62111/411/11}
 Group   3 Type H   : 4s1p contracted to 2s1p pattern {31/1}

Atom   0C    basis set group =>   1
Atom   1C    basis set group =>   1
Atom   2C    basis set group =>   1
Atom   3N    basis set group =>   2
Atom   4C    basis set group =>   1
Atom   5C    basis set group =>   1
Atom   6H    basis set group =>   3
Atom   7H    basis set group =>   3
Atom   8H    basis set group =>   3
Atom   9H    basis set group =>   3
Atom  10H    basis set group =>   3
---------------------------------
AUXILIARY/J BASIS SET INFORMATION
---------------------------------
There are 3 groups of distinct atoms

 Group   1 Type C   : 12s5p4d2f1g contracted to 6s4p3d1f1g pattern {711111/2111/211/2/1}
 Group   2 Type N   : 12s5p4d2f1g contracted to 6s4p3d1f1g pattern {711111/2111/211/2/1}
 Group   3 Type H   : 5s2p1d contracted to 3s1p1d pattern {311/2/1}

Atom   0C    basis set group =>   1
Atom   1C    basis set group =>   1
Atom   2C    basis set group =>   1
Atom   3N    basis set group =>   2
Atom   4C    basis set group =>   1
Atom   5C    basis set group =>   1
Atom   6H    basis set group =>   3
Atom   7H    basis set group =>   3
Atom   8H    basis set group =>   3
Atom   9H    basis set group =>   3
Atom  10H    basis set group =>   3

Checking for AutoStart:
The File: sp.gbw exists
Trying to determine its content:
     ... Fine, the file contains calculation information
     ... Fine, the calculation information was read
     ... Fine, the file contains a basis set
     ... Fine, the basis set was read
     ... Fine, the file contains a geometry
     ... Fine, the geometry was read
     ... Fine, the file contains a set of orbitals
     ... Fine, the orbitals can be read
     => possible old guess file was deleted
     => GBW file was renamed to GES file
     => GES file is set as startup file
     => Guess is set to MORead
     ... now leaving AutoStart

------------------------------------------------------------------------------
                             ORCA STARTUP CALCULATIONS
                           -- RI-GTO INTEGRALS CHOSEN --
------------------------------------------------------------------------------
------------------------------------------------------------------------------
                   ___                                                        
                  /   \      - P O W E R E D   B Y -                         
                 /     \                                                     
                 |  |  |   _    _      __       _____    __    __             
                 |  |  |  | |  | |    /  \     |  _  \  |  |  /  |          
                  \  \/   | |  | |   /    \    | | | |  |  | /  /          
                 / \  \   | |__| |  /  /\  \   | |_| |  |  |/  /          
                |  |  |   |  __  | /  /__\  \  |    /   |      \           
                |  |  |   | |  | | |   __   |  |    \   |  |\   \          
                \     /   | |  | | |  |  |  |  | |\  \  |  | \   \       
                 \___/    |_|  |_| |__|  |__|  |_| \__\ |__|  \__/        
                                                                              
                      - O R C A' S   B I G   F R I E N D -                    
                                      &                                       
                       - I N T E G R A L  F E E D E R -                       
                                                                              
 v1 FN, 2020, v2 2021, v3 2022-2024                                           
------------------------------------------------------------------------------


----------------------
SHARK INTEGRAL PACKAGE
----------------------

Number of atoms                             ...     11
Number of basis functions                   ...    144
Number of shells                            ...     70
Maximum angular momentum                    ...      2
Integral batch strategy                     ... SHARK/LIBINT Hybrid
RI-J (if used) integral strategy            ... SPLIT-RIJ (Revised 2003 algorithm where possible)
Printlevel                                  ...      1
Contraction scheme used                     ... SEGMENTED contraction
Prescreening option                         ... SCHWARTZ
   Thresh                                   ... 1.000e-10
   Tcut                                     ... 1.000e-11
   Tpresel                                  ... 1.000e-11 
Coulomb Range Separation                    ... NOT USED
Exchange Range Separation                   ... NOT USED
Multipole approximations                    ... NOT USED
Finite Nucleus Model                        ... NOT USED
CABS basis                                  ... NOT available
Auxiliary Coulomb fitting basis             ... AVAILABLE
   # of basis functions in Aux-J            ...    349
   # of shells in Aux-J                     ...    115
   Maximum angular momentum in Aux-J        ...      4
Auxiliary J/K fitting basis                 ... NOT available
Auxiliary Correlation fitting basis         ... NOT available
Auxiliary 'external' fitting basis          ... NOT available

Checking pre-screening integrals            ... done (  0.0 sec) Dimension = 70
Check shell pair data                       ... done (  0.0 sec)
Shell pair information
Shell pair cut-off parameter TPreSel        ...   1.0e-11
Total number of shell pairs                 ...      2485
Shell pairs after pre-screening             ...      2383
Total number of primitive shell pairs       ...      9192
Primitive shell pairs kept                  ...      6664
          la=0 lb=0:    759 shell pairs
          la=1 lb=0:    885 shell pairs
          la=1 lb=1:    270 shell pairs
          la=2 lb=0:    280 shell pairs
          la=2 lb=1:    161 shell pairs
          la=2 lb=2:     28 shell pairs

Calculating one electron integrals          ... done (  0.0 sec)
Calculating RI/J V-Matrix + Cholesky decomp.... done (  0.0 sec)
Calculating Nuclear repulsion               ... done (  0.0 sec) ENN=    207.574260345040 Eh

Diagonalization of the overlap matrix:
Smallest eigenvalue                        ... 1.147e-04
Time for diagonalization                   ...    0.001 sec
Threshold for overlap eigenvalues          ... 1.000e-07
Number of eigenvalues below threshold      ... 0
Time for construction of square roots      ...    0.000 sec
Total time needed                          ...    0.003 sec

-------------------
DFT GRID GENERATION
-------------------

General Integration Accuracy     IntAcc      ... 4.388
Radial Grid Type                 RadialGrid  ... OptM3 with GC (2021)
Angular Grid (max. ang.)         AngularGrid ... 4 (Lebedev-302)
Angular grid pruning method      GridPruning ... 4 (adaptive)
Weight generation scheme         WeightScheme... mBecke (2022)
Basis function cutoff            BFCut       ... 1.0000e-10
Integration weight cutoff        WCut        ... 1.0000e-14
Partially contracted basis set               ... off
Rotationally invariant grid construction     ... off
Angular grids for H and He will be reduced by one unit

Total number of grid points                  ...    52356
Total number of batches                      ...      824
Average number of points per batch           ...       63
Average number of grid points per atom       ...     4760
Initializing property integral containers    ... done (  0.0 sec)

SHARK setup successfully completed in   0.3 seconds

Maximum memory used throughout the entire STARTUP-calculation: 23.8 MB
-------------------------------------------------------------------------------
                                 ORCA GUESS
                   Start orbitals & Density for SCF / CASSCF
-------------------------------------------------------------------------------

------------
SCF SETTINGS
------------
Hamiltonian:
 Density Functional     Method          .... DFT(GTOs)
  Functional kind                       .... Exchange
  Functional name                       .... Re-regularized SCAN exchange by Furness et al
  Functional family                     .... MGGA
  Functional refs                              
    [ 0] J. W. Furness, A. D. Kaplan, J. Ning, J. P. Perdew, and J. Sun.,  J. Phys. Chem. Lett. 11, 8208-8215 (2020), doi: 10.1021/acs.jpclett.0c02405
    [ 1] J. W. Furness, A. D. Kaplan, J. Ning, J. P. Perdew, and J. Sun.,  J. Phys. Chem. Lett. 11, 9248-9248 (2020), doi: 10.1021/acs.jpclett.0c03077
  Functional external parameters        .... 6
    Parameter  0 _c1        =  6.670000e-01 : c1 parameter        
    Parameter  1 _c2        =  8.000000e-01 : c2 parameter        
    Parameter  2 _d         =  1.240000e+00 : d parameter         
    Parameter  3 _k1        =  6.500000e-02 : k1 parameter        
    Parameter  4 _eta       =  1.000000e-03 : eta parameter       
    Parameter  5 _dp2       =  3.610000e-01 : dp2 parameter       
  Functional kind                       .... Correlation
  Functional name                       .... Re-regularized SCAN correlation by Furness et al
  Functional family                     .... MGGA
  Functional refs                              
    [ 0] J. W. Furness, A. D. Kaplan, J. Ning, J. P. Perdew, and J. Sun.,  J. Phys. Chem. Lett. 11, 8208-8215 (2020), doi: 10.1021/acs.jpclett.0c02405
    [ 1] J. W. Furness, A. D. Kaplan, J. Ning, J. P. Perdew, and J. Sun.,  J. Phys. Chem. Lett. 11, 9248-9248 (2020), doi: 10.1021/acs.jpclett.0c03077
  Functional external parameters        .... 1
    Parameter  0 _eta       =  1.000000e-03 : Regularization parameter
 Gradients option       PostSCFGGA      .... off
 RI-approximation to the Coulomb term is turned on
   Number of AuxJ basis functions       .... 349


General Settings:
 Integral files         IntName         .... sp
 Hartree-Fock type      HFTyp           .... RHF
 Total Charge           Charge          ....    0
 Multiplicity           Mult            ....    1
 Number of Electrons    NEL             ....   42
 Basis Dimension        Dim             ....  144
 Nuclear Repulsion      ENuc            ....    207.5742603450 Eh

Convergence Acceleration:
 AO-DIIS                CNVDIIS         .... on
   Start iteration      DIISMaxIt       ....    12
   Startup error        DIISStart       ....  0.200000
   # of expansion vecs  DIISMaxEq       ....     5
   Bias factor          DIISBfac        ....   1.050
   Max. coefficient     DIISMaxC        ....  10.000
 MO-DIIS                CNVKDIIS        .... off
 Trust-Rad. Augm. Hess. CNVTRAH         .... auto
   Auto Start mean grad. ratio tolernc. ....  1.125000
   Auto Start start iteration           ....     1
   Auto Start num. interpolation iter.  ....    10
   Max. Number of Micro iterations      ....    24
   Max. Number of Macro iterations      .... Maxiter - #DIIS iter
   Number of Davidson start vectors     ....     2
   Converg. threshold    (grad. norm)   ....   3.330e-04
   Grad. Scal. Fac. for Micro threshold ....   0.100
   Minimum threshold for Micro iter.    ....   1.000e-02
   NR start threshold (gradient norm)   ....   1.000e-04
   Initial trust radius                 ....   0.400
   Minimum AH scaling param. (alpha)    ....   1.000
   Maximum AH scaling param. (alpha)    .... 1000.000
   Quad. conv. algorithm                .... NR
   White noise on init. David. guess    .... on
   Maximum white noise                  ....   0.010
   Pseudo random numbers                .... off
   Inactive MOs                         .... canonical
   Orbital update algorithm             .... Taylor
   Preconditioner                       .... Diag
   Full preconditioner red. dimension   ....   250
   COSX micro iterations for RIJONX calc.... off
 SOSCF                  CNVSOSCF        .... on
   Start iteration      SOSCFMaxIt      ....   150
   Startup grad/error   SOSCFStart      ....  0.003300
   Hessian update       SOSCFHessUp     .... L-BFGS
 Level Shifting         CNVShift        .... on
   Level shift para.    LevelShift      ....    0.2500
   Turn off err/grad.   ShiftErr        ....    0.0010
 Zerner damping         CNVZerner       .... off
 Static damping         CNVDamp         .... on
   Fraction old density DampFac         ....    0.7000
   Max. Damping (<1)    DampMax         ....    0.9800
   Min. Damping (>=0)   DampMin         ....    0.0000
   Turn off err/grad.   DampErr         ....    0.1000

SCF Procedure:
 Maximum # iterations   MaxIter         ....   125
 SCF integral mode      SCFMode         .... Direct
   Integral package                     .... SHARK and LIBINT hybrid scheme
 Reset frequency        DirectResetFreq ....    20
 Integral Threshold     Thresh          ....  1.000e-10 Eh
 Primitive CutOff       TCut            ....  1.000e-11 Eh

Convergence Tolerance:
 Convergence Check Mode ConvCheckMode   .... Total+1el-Energy
 Convergence forced     ConvForced      .... 0
 Energy Change          TolE            ....  1.000e-06 Eh
 1-El. energy change                    ....  1.000e-03 Eh
 Orbital Gradient       TolG            ....  3.330e-04
 Orbital Rotation angle TolX            ....  3.330e-04
 DIIS Error             TolErr          ....  1.000e-06

---------------------
INITIAL GUESS: MOREAD
---------------------
Guess MOs are being read from file: sp.ges
Input Geometry matches current geometry (good)
Atom 0: N(Shells)= 9 and 6 - projection required
Input basis set needs projection
NBasis(read)= 94
NBasis(calc)= 144
Basis set overlap was calculated
Using GuessMode=FMatrix for the initial guess
C*T matrix was formed
Effective Fockian was calculated
Effective Fockian was diagonalized
Initial density was built
                      ------------------
                      INITIAL GUESS DONE (   0.0 sec)
                      ------------------
             **** ENERGY FILE WAS UPDATED (sp.en.tmp) ****
Finished Guess after   0.0 sec
Maximum memory used throughout the entire GUESS-calculation: 10.5 MB

-------------------------------------------------------------------------------------------
                                      ORCA LEAN-SCF
                              memory conserving SCF solver
-------------------------------------------------------------------------------------------

----------------------------------------D-I-I-S--------------------------------------------
Iteration    Energy (Eh)           Delta-E    RMSDP     MaxDP     DIISErr   Damp  Time(sec)
-------------------------------------------------------------------------------------------
               ***  Starting incremental Fock matrix formation  ***
    1    -248.1029733471177394     0.00e+00  4.74e-03  1.35e-01  4.38e-01  0.700   0.6
    2    -248.1363248004805371    -3.34e-02  3.85e-03  1.17e-01  3.07e-01  0.700   0.5
    3    -248.1598746591873521    -2.35e-02  2.85e-03  8.80e-02  2.15e-01  0.700   0.5
                               ***Turning on AO-DIIS***
    4    -248.1764023217199622    -1.65e-02  2.08e-03  6.53e-02  1.51e-01  0.700   0.5
    5    -248.1879916575226446    -1.16e-02  1.49e-03  4.69e-02  1.05e-01  0.700   0.5
    6    -248.1961157680433701    -8.12e-03  1.05e-03  3.34e-02  7.37e-02  0.700   0.5
    7    -248.2018086554809599    -5.69e-03  2.47e-03  7.87e-02  5.16e-02  0.000   0.5
                              *** Initializing SOSCF ***
---------------------------------------S-O-S-C-F--------------------------------------
Iteration    Energy (Eh)           Delta-E    RMSDP     MaxDP     MaxGrad    Time(sec)
--------------------------------------------------------------------------------------
    8    -248.2151117199832413    -1.33e-02  1.63e-05  4.56e-04  9.76e-05     0.5
               *** Restarting incremental Fock matrix formation ***
    9    -248.2151117903170245    -7.03e-08  9.29e-06  1.92e-04  5.41e-05     0.6
                  *** Gradient check signals convergence ***

               *****************************************************
               *                     SUCCESS                       *
               *           SCF CONVERGED AFTER   9 CYCLES          *
               *****************************************************

             **** ENERGY FILE WAS UPDATED (sp.en.tmp) ****

----------------
TOTAL SCF ENERGY
----------------

Total Energy       :       -248.21511179031702 Eh           -6754.27657 eV

Components:
Nuclear Repulsion  :        207.57426034504024 Eh            5648.38278 eV
Electronic Energy  :       -455.78937213535727 Eh          -12402.65935 eV
One Electron Energy:       -744.73411026395786 Eh          -20265.24541 eV
Two Electron Energy:        288.94473812860059 Eh            7862.58605 eV

Virial components:
Potential Energy   :       -495.49271347345177 Eh          -13483.04220 eV
Kinetic Energy     :        247.27760168313472 Eh            6728.76563 eV
Virial Ratio       :          2.00379132643151

DFT components:
N(Alpha)           :       21.000019213757 electrons
N(Beta)            :       21.000019213757 electrons
N(Total)           :       42.000038427513 electrons
E(X)               :      -34.467092166774 Eh       
E(C)               :       -1.350769426295 Eh       
E(XC)              :      -35.817861593069 Eh       

---------------
SCF CONVERGENCE
---------------

  Last Energy change         ...    7.0334e-08  Tolerance :   1.0000e-06
  Last MAX-Density change    ...    1.9237e-04  Tolerance :   1.0000e-05
  Last RMS-Density change    ...    9.2883e-06  Tolerance :   1.0000e-06
  Last DIIS Error            ...    9.7618e-05  Tolerance :   1.0000e-06
  Last Orbital Gradient      ...    5.4076e-05  Tolerance :   3.3300e-04
  Last Orbital Rotation      ...    2.4628e-04  Tolerance :   3.3300e-04


----------------
ORBITAL ENERGIES
----------------

  NO   OCC          E(Eh)            E(eV) 
   0   2.0000     -14.155732      -385.1971 
   1   2.0000     -10.068639      -273.9816 
   2   2.0000     -10.068630      -273.9814 
   3   2.0000     -10.057270      -273.6722 
   4   2.0000     -10.047571      -273.4083 
   5   2.0000     -10.047555      -273.4079 
   6   2.0000      -0.918031       -24.9809 
   7   2.0000      -0.778131       -21.1740 
   8   2.0000      -0.735247       -20.0071 
   9   2.0000      -0.605129       -16.4664 
  10   2.0000      -0.599949       -16.3254 
  11   2.0000      -0.502777       -13.6813 
  12   2.0000      -0.454492       -12.3673 
  13   2.0000      -0.442162       -12.0318 
  14   2.0000      -0.401264       -10.9190 
  15   2.0000      -0.380320       -10.3490 
  16   2.0000      -0.375885       -10.2283 
  17   2.0000      -0.335944        -9.1415 
  18   2.0000      -0.275604        -7.4996 
  19   2.0000      -0.251290        -6.8379 
  20   2.0000      -0.224689        -6.1141 
  21   0.0000      -0.056027        -1.5246 
  22   0.0000      -0.043504        -1.1838 
  23   0.0000       0.086467         2.3529 
  24   0.0000       0.107447         2.9238 
  25   0.0000       0.123776         3.3681 
  26   0.0000       0.125937         3.4269 
  27   0.0000       0.128783         3.5044 
  28   0.0000       0.139539         3.7970 
  29   0.0000       0.154716         4.2100 
  30   0.0000       0.193433         5.2636 
  31   0.0000       0.210125         5.7178 
*Only the first 10 virtual orbitals were printed.

                    ********************************
                    * MULLIKEN POPULATION ANALYSIS *
                    ********************************

-----------------------
MULLIKEN ATOMIC CHARGES
-----------------------
   0 C :   -0.154557
   1 C :   -0.093557
   2 C :   -0.099186
   3 N :   -0.178460
   4 C :   -0.099178
   5 C :   -0.093555
   6 H :    0.150648
   7 H :    0.150691
   8 H :    0.133231
   9 H :    0.133231
  10 H :    0.150693
Sum of atomic charges:   -0.0000000

--------------------------------
MULLIKEN REDUCED ORBITAL CHARGES
--------------------------------
  0 C s       :     3.217221  s :     3.217221
      pz      :     0.943528  p :     2.899367
      px      :     1.044797
      py      :     0.911042
      dz2     :     0.003254  d :     0.037969
      dxz     :     0.002473
      dyz     :     0.006842
      dx2y2   :     0.013634
      dxy     :     0.011765

  1 C s       :     3.132184  s :     3.132184
      pz      :     0.998404  p :     2.925042
      px      :     0.943520
      py      :     0.983118
      dz2     :     0.003327  d :     0.036331
      dxz     :     0.004835
      dyz     :     0.003364
      dx2y2   :     0.012464
      dxy     :     0.012340

  2 C s       :     3.244667  s :     3.244667
      pz      :     0.911651  p :     2.799285
      px      :     0.916469
      py      :     0.971165
      dz2     :     0.003853  d :     0.055235
      dxz     :     0.006417
      dyz     :     0.005455
      dx2y2   :     0.019424
      dxy     :     0.020085

  3 N s       :     3.463568  s :     3.463568
      pz      :     1.146705  p :     3.655757
      px      :     1.557567
      py      :     0.951486
      dz2     :     0.003880  d :     0.059135
      dxz     :     0.019290
      dyz     :     0.001548
      dx2y2   :     0.008495
      dxy     :     0.025923

  4 C s       :     3.244649  s :     3.244649
      pz      :     0.911649  p :     2.799292
      px      :     0.916379
      py      :     0.971264
      dz2     :     0.003853  d :     0.055237
      dxz     :     0.006424
      dyz     :     0.005449
      dx2y2   :     0.019436
      dxy     :     0.020075

  5 C s       :     3.132185  s :     3.132185
      pz      :     0.998402  p :     2.925038
      px      :     0.943620
      py      :     0.983016
      dz2     :     0.003327  d :     0.036332
      dxz     :     0.004833
      dyz     :     0.003367
      dx2y2   :     0.012463
      dxy     :     0.012342

  6 H s       :     0.829959  s :     0.829959
      pz      :     0.003826  p :     0.019393
      px      :     0.012397
      py      :     0.003170

  7 H s       :     0.829728  s :     0.829728
      pz      :     0.004118  p :     0.019580
      px      :     0.005216
      py      :     0.010246

  8 H s       :     0.847735  s :     0.847735
      pz      :     0.003650  p :     0.019034
      px      :     0.005783
      py      :     0.009601

  9 H s       :     0.847736  s :     0.847736
      pz      :     0.003650  p :     0.019033
      px      :     0.005775
      py      :     0.009609

 10 H s       :     0.829726  s :     0.829726
      pz      :     0.004118  p :     0.019581
      px      :     0.005223
      py      :     0.010240


------------------------
MULLIKEN OVERLAP CHARGES
------------------------
B(  0-C ,  1-C ) :   0.8529 B(  0-C ,  2-C ) :  -0.0514 B(  0-C ,  4-C ) :  -0.0515 
B(  0-C ,  5-C ) :   0.8528 B(  0-C ,  6-H ) :   0.7909 B(  0-C ,  7-H ) :  -0.0526 
B(  0-C , 10-H ) :  -0.0526 B(  1-C ,  2-C ) :   0.7564 B(  1-C ,  3-N ) :  -0.1494 
B(  1-C ,  4-C ) :  -0.1602 B(  1-C ,  7-H ) :   0.7648 B(  1-C ,  8-H ) :  -0.1708 
B(  2-C ,  3-N ) :   0.9563 B(  2-C ,  4-C ) :  -0.1919 B(  2-C ,  5-C ) :  -0.1602 
B(  2-C ,  8-H ) :   0.9081 B(  3-N ,  4-C ) :   0.9564 B(  3-N ,  5-C ) :  -0.1494 
B(  3-N ,  8-H ) :  -0.1053 B(  3-N ,  9-H ) :  -0.1053 B(  4-C ,  5-C ) :   0.7564 
B(  4-C ,  9-H ) :   0.9081 B(  5-C ,  9-H ) :  -0.1708 B(  5-C , 10-H ) :   0.7648 



                     *******************************
                     * LOEWDIN POPULATION ANALYSIS *
                     *******************************

----------------------
LOEWDIN ATOMIC CHARGES
----------------------
   0 C :   -0.126155
   1 C :   -0.148770
   2 C :    0.079738
   3 N :   -0.614437
   4 C :    0.079733
   5 C :   -0.148770
   6 H :    0.169516
   7 H :    0.170058
   8 H :    0.184512
   9 H :    0.184518
  10 H :    0.170057

-------------------------------
LOEWDIN REDUCED ORBITAL CHARGES
-------------------------------
  0 C s       :     2.908357  s :     2.908357
      pz      :     0.931960  p :     3.136159
      px      :     1.101282
      py      :     1.102917
      dz2     :     0.005451  d :     0.081640
      dxz     :     0.003510
      dyz     :     0.012581
      dx2y2   :     0.032342
      dxy     :     0.027756

  1 C s       :     2.906945  s :     2.906945
      pz      :     0.978557  p :     3.162630
      px      :     1.085572
      py      :     1.098501
      dz2     :     0.005745  d :     0.079194
      dxz     :     0.008686
      dyz     :     0.005292
      dx2y2   :     0.029189
      dxy     :     0.030282

  2 C s       :     2.832790  s :     2.832790
      pz      :     0.867519  p :     2.962986
      px      :     1.051550
      py      :     1.043917
      dz2     :     0.008036  d :     0.124485
      dxz     :     0.012603
      dyz     :     0.009028
      dx2y2   :     0.046355
      dxy     :     0.048463

  3 N s       :     3.233698  s :     3.233698
      pz      :     1.121487  p :     3.906835
      px      :     1.573119
      py      :     1.212228
      dz2     :     0.051469  d :     0.473904
      dxz     :     0.030861
      dyz     :     0.094787
      dx2y2   :     0.158492
      dxy     :     0.138296

  4 C s       :     2.832786  s :     2.832786
      pz      :     0.867520  p :     2.962991
      px      :     1.051544
      py      :     1.043927
      dz2     :     0.008036  d :     0.124490
      dxz     :     0.012617
      dyz     :     0.009016
      dx2y2   :     0.046390
      dxy     :     0.048431

  5 C s       :     2.906938  s :     2.906938
      pz      :     0.978554  p :     3.162635
      px      :     1.085565
      py      :     1.098516
      dz2     :     0.005745  d :     0.079197
      dxz     :     0.008681
      dyz     :     0.005298
      dx2y2   :     0.029184
      dxy     :     0.030289

  6 H s       :     0.786081  s :     0.786081
      pz      :     0.008117  p :     0.044403
      px      :     0.029139
      py      :     0.007147

  7 H s       :     0.784445  s :     0.784445
      pz      :     0.009045  p :     0.045497
      px      :     0.012353
      py      :     0.024099

  8 H s       :     0.774834  s :     0.774834
      pz      :     0.007618  p :     0.040654
      px      :     0.013857
      py      :     0.019179

  9 H s       :     0.774831  s :     0.774831
      pz      :     0.007617  p :     0.040651
      px      :     0.013839
      py      :     0.019195

 10 H s       :     0.784443  s :     0.784443
      pz      :     0.009046  p :     0.045500
      px      :     0.012370
      py      :     0.024084


---------------------------------
LOEWDIN BOND ORDERS (THRESH 0.050000)
---------------------------------
B(  0-C ,  1-C ) :   1.5046 B(  0-C ,  2-C ) :   0.0899 B(  0-C ,  3-N ) :   0.1402 
B(  0-C ,  4-C ) :   0.0899 B(  0-C ,  5-C ) :   1.5046 B(  0-C ,  6-H ) :   0.8749 
B(  0-C ,  7-H ) :   0.0536 B(  0-C , 10-H ) :   0.0536 B(  1-C ,  2-C ) :   1.3985 
B(  1-C ,  3-N ) :   0.2169 B(  1-C ,  4-C ) :   0.1320 B(  1-C ,  5-C ) :   0.0893 
B(  1-C ,  6-H ) :   0.0537 B(  1-C ,  7-H ) :   0.8713 B(  1-C ,  8-H ) :   0.0526 
B(  2-C ,  3-N ) :   1.8208 B(  2-C ,  4-C ) :   0.1073 B(  2-C ,  5-C ) :   0.1320 
B(  2-C ,  7-H ) :   0.0577 B(  2-C ,  8-H ) :   0.8066 B(  3-N ,  4-C ) :   1.8209 
B(  3-N ,  5-C ) :   0.2169 B(  3-N ,  8-H ) :   0.1167 B(  3-N ,  9-H ) :   0.1168 
B(  4-C ,  5-C ) :   1.3985 B(  4-C ,  9-H ) :   0.8066 B(  4-C , 10-H ) :   0.0577 
B(  5-C ,  6-H ) :   0.0537 B(  5-C ,  9-H ) :   0.0526 B(  5-C , 10-H ) :   0.8713 


------------------------------------------
LOEWDIN REDUCED ORBITAL POPULATIONS PER MO
-------------------------------------------
THRESHOLD FOR PRINTING IS 0.1%%
                      0         1         2         3         4         5   
                 -14.15573 -10.06864 -10.06863 -10.05727 -10.04757 -10.04756
                   2.00000   2.00000   2.00000   2.00000   2.00000   2.00000
                  --------  --------  --------  --------  --------  --------
 0 C  s               0.0       0.0       0.0      99.5       0.0       0.2
 0 C  py              0.0       0.0       0.0       0.0       0.2       0.0
 1 C  s               0.0       0.0       0.0       0.1      56.5      43.0
 1 C  py              0.0       0.0       0.0       0.1       0.0       0.0
 2 C  s               0.0      66.0      33.2       0.0       0.0       0.0
 3 N  s              99.8       0.0       0.1       0.0       0.0       0.0
 3 N  py              0.0       0.2       0.0       0.0       0.0       0.0
 3 N  dz2             0.0       0.0       0.2       0.0       0.0       0.0
 3 N  dx2y2           0.0       0.0       0.1       0.0       0.0       0.0
 3 N  dxy             0.0       0.4       0.0       0.0       0.0       0.0
 4 C  s               0.0      33.2      66.1       0.0       0.0       0.0
 5 C  s               0.0       0.0       0.0       0.1      43.0      56.5
 5 C  py              0.0       0.0       0.0       0.1       0.0       0.0

                      6         7         8         9        10        11   
                  -0.91803  -0.77813  -0.73525  -0.60513  -0.59995  -0.50278
                   2.00000   2.00000   2.00000   2.00000   2.00000   2.00000
                  --------  --------  --------  --------  --------  --------
 0 C  s               2.6      26.4       0.0       0.0      12.0       1.5
 0 C  px              1.5       1.5       0.0       0.0       3.8      17.2
 0 C  py              0.0       0.0       8.6      13.6       0.0       0.0
 0 C  dz2             0.0       0.2       0.0       0.0       0.0       0.0
 0 C  dxy             0.0       0.0       0.3       0.2       0.0       0.0
 1 C  s               3.9      13.6      13.0       8.3       2.1       0.5
 1 C  px              1.6       1.6       1.9       3.4       9.0       2.9
 1 C  py              0.9       3.0       0.6       0.4       5.7       7.2
 1 C  dz2             0.0       0.1       0.1       0.0       0.0       0.0
 1 C  dx2y2           0.0       0.0       0.1       0.0       0.2       0.0
 1 C  dxy             0.0       0.1       0.0       0.0       0.1       0.0
 2 C  s              13.3       0.1      14.1       4.9       4.7       1.2
 2 C  px              0.2       7.0       1.1       7.9       4.3       5.0
 2 C  py              6.3       1.4       0.9       0.3       5.6       6.1
 2 C  dz2             0.2       0.0       0.1       0.0       0.0       0.0
 2 C  dx2y2           0.1       0.2       0.1       0.1       0.2       0.0
 2 C  dxy             0.2       0.1       0.0       0.0       0.0       0.0
 3 N  s              34.4       8.9       0.0       0.0       4.9       1.3
 3 N  px              4.5       0.4       0.0       0.0       0.7       4.9
 3 N  py              0.0       0.0      13.2      21.0       0.0       0.0
 3 N  dz2             0.8       0.2       0.0       0.0       0.6       0.0
 3 N  dx2y2           0.1       0.4       0.0       0.0       0.3       3.3
 3 N  dxy             0.0       0.0       3.3       0.4       0.0       0.0
 4 C  s              13.3       0.1      14.1       4.9       4.7       1.2
 4 C  px              0.2       7.0       1.1       7.9       4.3       5.0
 4 C  py              6.3       1.3       0.9       0.3       5.6       6.1
 4 C  dz2             0.2       0.0       0.1       0.0       0.0       0.0
 4 C  dx2y2           0.1       0.2       0.1       0.1       0.2       0.0
 4 C  dxy             0.2       0.1       0.0       0.0       0.1       0.0
 5 C  s               3.9      13.6      13.0       8.3       2.1       0.5
 5 C  px              1.6       1.6       1.9       3.4       9.0       2.9
 5 C  py              0.9       3.0       0.6       0.4       5.7       7.1
 5 C  dz2             0.0       0.1       0.1       0.0       0.0       0.0
 5 C  dx2y2           0.0       0.0       0.1       0.0       0.2       0.0
 5 C  dxy             0.0       0.1       0.0       0.0       0.1       0.0
 6 H  s               0.2       3.4       0.0       0.0       6.3       8.0
 6 H  px              0.0       0.3       0.0       0.0       0.5       0.4
 7 H  s               0.3       1.7       2.2       3.9       1.1       3.3
 7 H  py              0.0       0.1       0.1       0.3       0.0       0.1
 8 H  s               0.9       0.0       2.6       2.7       2.2       5.1
 8 H  px              0.0       0.0       0.1       0.0       0.1       0.1
 8 H  py              0.1       0.0       0.2       0.2       0.0       0.2
 9 H  s               0.9       0.0       2.6       2.7       2.2       5.1
 9 H  px              0.0       0.0       0.1       0.0       0.1       0.1
 9 H  py              0.1       0.0       0.2       0.2       0.0       0.2
10 H  s               0.3       1.7       2.2       3.9       1.0       3.3
10 H  py              0.0       0.1       0.1       0.3       0.0       0.1

                     12        13        14        15        16        17   
                  -0.45449  -0.44216  -0.40126  -0.38032  -0.37588  -0.33594
                   2.00000   2.00000   2.00000   2.00000   2.00000   2.00000
                  --------  --------  --------  --------  --------  --------
 0 C  s               0.0       2.9       0.0       0.0       0.3       0.0
 0 C  pz              0.0       0.0       0.0      10.3       0.0       0.0
 0 C  px              0.0       0.1       0.0       0.0      30.5       0.0
 0 C  py             16.3       0.0       1.8       0.0       0.0      14.7
 0 C  dx2y2           0.0       0.3       0.0       0.0       1.0       0.0
 0 C  dxy             0.1       0.0       0.5       0.0       0.0       0.3
 1 C  s               0.1       2.7       0.5       0.0       0.5       0.1
 1 C  pz              0.0       0.0       0.0      11.7       0.0       0.0
 1 C  px             14.0       3.2       5.6       0.0       5.5       0.7
 1 C  py              2.4      10.9      11.6       0.0       1.3      11.0
 1 C  dx2y2           0.1       0.0       0.2       0.0       0.7       0.0
 1 C  dxy             0.0       0.4       0.0       0.0       0.0       0.8
 2 C  s               0.3       2.2       0.4       0.0       0.7       0.2
 2 C  pz              0.0       0.0       0.0      18.1       0.0       0.0
 2 C  px              8.6       1.2       6.9       0.0       5.8       0.8
 2 C  py              6.5       5.1       8.6       0.0       1.3       8.9
 2 C  dyz             0.0       0.0       0.0       0.2       0.0       0.0
 2 C  dx2y2           0.0       0.0       0.2       0.0       0.0       0.0
 2 C  dxy             0.1       0.5       0.0       0.0       0.0       0.9
 3 N  s               0.0       2.4       0.0       0.0       1.4       0.0
 3 N  pz              0.0       0.0       0.0      27.6       0.0       0.0
 3 N  px              0.0       0.3       0.0       0.0      11.4       0.0
 3 N  py             16.8       0.0       0.8       0.0       0.0       8.6
 3 N  dz2             0.0       0.6       0.0       0.0       0.0       0.0
 3 N  dxz             0.0       0.0       0.0       1.5       0.0       0.0
 3 N  dx2y2           0.0       1.4       0.0       0.0       0.5       0.0
 3 N  dxy             0.8       0.0       1.8       0.0       0.0       0.2
 4 C  s               0.3       2.2       0.4       0.0       0.7       0.2
 4 C  pz              0.0       0.0       0.0      18.1       0.0       0.0
 4 C  px              8.6       1.1       6.9       0.0       5.8       0.8
 4 C  py              6.5       5.1       8.6       0.0       1.3       8.9
 4 C  dyz             0.0       0.0       0.0       0.2       0.0       0.0
 4 C  dx2y2           0.0       0.0       0.2       0.0       0.0       0.0
 4 C  dxy             0.1       0.5       0.0       0.0       0.0       0.9
 5 C  s               0.1       2.7       0.5       0.0       0.5       0.1
 5 C  pz              0.0       0.0       0.0      11.7       0.0       0.0
 5 C  px             14.0       3.2       5.6       0.0       5.5       0.7
 5 C  py              2.4      10.9      11.6       0.0       1.3      11.0
 5 C  dx2y2           0.1       0.0       0.2       0.0       0.7       0.0
 5 C  dxy             0.0       0.4       0.0       0.0       0.0       0.8
 6 H  s               0.0       1.6       0.0       0.0      18.9       0.0
 6 H  px              0.0       0.1       0.0       0.0       0.2       0.0
 6 H  py              0.1       0.0       0.0       0.0       0.0       0.2
 7 H  s               0.2      11.7       7.2       0.0       0.4       6.5
 7 H  px              0.1       0.1       0.0       0.0       0.0       0.1
 7 H  py              0.1       0.3       0.1       0.0       0.0       0.0
 8 H  s               0.5       6.6       6.2       0.0       1.6       7.9
 8 H  pz              0.0       0.0       0.0       0.1       0.0       0.0
 8 H  px              0.1       0.1       0.0       0.0       0.0       0.1
 8 H  py              0.0       0.1       0.1       0.0       0.0       0.0
 9 H  s               0.5       6.6       6.2       0.0       1.6       7.9
 9 H  pz              0.0       0.0       0.0       0.1       0.0       0.0
 9 H  px              0.1       0.1       0.0       0.0       0.0       0.1
 9 H  py              0.0       0.1       0.1       0.0       0.0       0.0
10 H  s               0.2      11.7       7.2       0.0       0.4       6.5
10 H  px              0.1       0.1       0.0       0.0       0.0       0.1
10 H  py              0.1       0.3       0.1       0.0       0.0       0.0

                     18        19        20        21        22        23   
                  -0.27560  -0.25129  -0.22469  -0.05603  -0.04350   0.08647
                   2.00000   2.00000   2.00000   0.00000   0.00000   0.00000
                  --------  --------  --------  --------  --------  --------
 0 C  s               0.0       0.0       0.0       0.0       0.0      10.9
 0 C  pz             36.3       0.0       0.0      33.3       0.0       0.0
 0 C  px              0.0       0.0       0.4       0.0       0.0       6.1
 0 C  dxz             0.1       0.0       0.0       0.2       0.0       0.0
 0 C  dyz             0.0       0.6       0.0       0.0       1.4       0.0
 0 C  dx2y2           0.0       0.0       0.2       0.0       0.0       1.6
 1 C  s               0.0       0.0       0.5       0.0       0.0       8.1
 1 C  pz             12.7      24.5       0.0       6.8      22.6       0.0
 1 C  px              0.0       0.0       4.7       0.0       0.0       1.5
 1 C  py              0.0       0.0       0.1       0.0       0.0       3.2
 1 C  dxz             0.2       0.2       0.0       0.7       0.5       0.0
 1 C  dyz             0.2       0.0       0.0       0.5       0.0       0.0
 1 C  dx2y2           0.0       0.0       0.0       0.0       0.0       0.5
 1 C  dxy             0.0       0.0       0.1       0.0       0.0       1.0
 2 C  s               0.0       0.0       0.3       0.0       0.0       7.2
 2 C  pz              3.4      21.9       0.0       9.2      19.6       0.0
 2 C  px              0.0       0.0       3.6       0.0       0.0       1.7
 2 C  py              0.0       0.0       1.3       0.0       0.0       1.4
 2 C  dxz             0.4       0.2       0.0       0.6       0.4       0.0
 2 C  dyz             0.2       0.0       0.0       0.7       0.0       0.0
 2 C  dx2y2           0.0       0.0       1.3       0.0       0.0       0.0
 2 C  dxy             0.0       0.0       0.4       0.0       0.0       0.9
 3 N  s               0.0       0.0       8.6       0.0       0.0       2.0
 3 N  pz             28.5       0.0       0.0      26.2       0.0       0.0
 3 N  px              0.0       0.0      56.3       0.0       0.0       0.3
 3 N  dz2             0.0       0.0       0.2       0.0       0.0       0.6
 3 N  dxz             0.0       0.0       0.0       1.6       0.0       0.0
 3 N  dyz             0.0       4.7       0.0       0.0       9.7       0.0
 3 N  dx2y2           0.0       0.0       1.7       0.0       0.0       2.2
 4 C  s               0.0       0.0       0.3       0.0       0.0       7.2
 4 C  pz              3.4      21.9       0.0       9.2      19.6       0.0
 4 C  px              0.0       0.0       3.6       0.0       0.0       1.7
 4 C  py              0.0       0.0       1.3       0.0       0.0       1.4
 4 C  dxz             0.4       0.2       0.0       0.6       0.4       0.0
 4 C  dyz             0.2       0.0       0.0       0.7       0.0       0.0
 4 C  dx2y2           0.0       0.0       1.3       0.0       0.0       0.0
 4 C  dxy             0.0       0.0       0.4       0.0       0.0       0.9
 5 C  s               0.0       0.0       0.5       0.0       0.0       8.1
 5 C  pz             12.7      24.5       0.0       6.8      22.6       0.0
 5 C  px              0.0       0.0       4.7       0.0       0.0       1.5
 5 C  py              0.0       0.0       0.1       0.0       0.0       3.2
 5 C  dxz             0.2       0.2       0.0       0.7       0.5       0.0
 5 C  dyz             0.2       0.0       0.0       0.5       0.0       0.0
 5 C  dx2y2           0.0       0.0       0.0       0.0       0.0       0.5
 5 C  dxy             0.0       0.0       0.1       0.0       0.0       1.0
 6 H  s               0.0       0.0       0.9       0.0       0.0       5.3
 6 H  pz              0.4       0.0       0.0       0.9       0.0       0.0
 6 H  px              0.0       0.0       0.0       0.0       0.0       2.3
 7 H  s               0.0       0.0       0.8       0.0       0.0       4.3
 7 H  pz              0.1       0.3       0.0       0.2       0.7       0.0
 7 H  px              0.0       0.0       0.1       0.0       0.0       0.4
 7 H  py              0.0       0.0       0.0       0.0       0.0       1.3
 8 H  s               0.0       0.0       2.5       0.0       0.0       2.0
 8 H  pz              0.0       0.2       0.0       0.2       0.6       0.0
 8 H  px              0.0       0.0       0.0       0.0       0.0       0.5
 8 H  py              0.0       0.0       0.0       0.0       0.0       0.3
 9 H  s               0.0       0.0       2.5       0.0       0.0       2.0
 9 H  pz              0.0       0.2       0.0       0.2       0.6       0.0
 9 H  px              0.0       0.0       0.0       0.0       0.0       0.5
 9 H  py              0.0       0.0       0.0       0.0       0.0       0.3
10 H  s               0.0       0.0       0.8       0.0       0.0       4.3
10 H  pz              0.1       0.3       0.0       0.2       0.7       0.0
10 H  px              0.0       0.0       0.1       0.0       0.0       0.4
10 H  py              0.0       0.0       0.0       0.0       0.0       1.3

                     24        25        26        27        28        29   
                   0.10745   0.12378   0.12594   0.12878   0.13954   0.15472
                   0.00000   0.00000   0.00000   0.00000   0.00000   0.00000
                  --------  --------  --------  --------  --------  --------
 0 C  s               0.0       9.6       0.0       6.8       0.0       5.1
 0 C  pz             14.6       0.0       0.0       0.0       0.0       0.0
 0 C  px              0.0       0.8       0.0      30.1       0.0       0.6
 0 C  py              0.0       0.0       3.8       0.0       9.1       0.0
 0 C  dz2             0.0       0.1       0.0       1.4       0.0       0.9
 0 C  dxz             0.5       0.0       0.0       0.0       0.0       0.0
 0 C  dx2y2           0.0       1.0       0.0       0.1       0.0       0.1
 0 C  dxy             0.0       0.0       0.0       0.0       1.6       0.0
 1 C  s               0.0       4.3       6.0       2.8       5.3       6.0
 1 C  pz             16.2       0.0       0.0       0.0       0.0       0.0
 1 C  px              0.0       1.5       4.7       3.2       7.5       1.3
 1 C  py              0.0       6.5      15.4       0.7       0.3       5.3
 1 C  dz2             0.0       1.0       0.1       0.1       0.4       0.1
 1 C  dxz             0.1       0.0       0.0       0.0       0.0       0.0
 1 C  dyz             0.4       0.0       0.0       0.0       0.0       0.0
 1 C  dx2y2           0.0       0.8       0.0       0.0       0.5       0.1
 1 C  dxy             0.0       0.0       0.5       0.4       0.1       0.3
 2 C  s               0.0       4.9       2.5       7.2       4.7       1.2
 2 C  pz             14.7       0.0       0.0       0.0       0.0       0.0
 2 C  px              0.0       0.6       1.7       0.5       4.8      16.1
 2 C  py              0.0       9.0       6.9       3.2       9.1       2.9
 2 C  dz2             0.0       1.4       0.0       0.1       0.4       0.1
 2 C  dxz             0.1       0.0       0.0       0.0       0.0       0.0
 2 C  dyz             0.5       0.0       0.0       0.0       0.0       0.0
 2 C  dx2y2           0.0       0.2       0.1       0.2       0.1       0.0
 2 C  dxy             0.0       0.0       0.6       0.1       0.0       0.5
 3 N  s               0.0       5.7       0.0       0.1       0.0       1.2
 3 N  pz             15.5       0.0       0.0       0.0       0.0       0.0
 3 N  px              0.0       0.4       0.0       1.2       0.0       2.3
 3 N  py              0.0       0.0       0.7       0.0       0.5       0.0
 3 N  dz2             0.0       3.0       0.0       6.4       0.0       0.7
 3 N  dxz             0.8       0.0       0.0       0.0       0.0       0.0
 3 N  dx2y2           0.0       2.0       0.0       1.0       0.0       0.9
 3 N  dxy             0.0       0.0       0.3       0.0       5.9       0.0
 4 C  s               0.0       4.9       2.5       7.2       4.7       1.2
 4 C  pz             14.7       0.0       0.0       0.0       0.0       0.0
 4 C  px              0.0       0.6       1.7       0.5       4.8      16.1
 4 C  py              0.0       9.0       7.0       3.2       9.1       2.9
 4 C  dz2             0.0       1.4       0.0       0.1       0.4       0.1
 4 C  dxz             0.1       0.0       0.0       0.0       0.0       0.0
 4 C  dyz             0.5       0.0       0.0       0.0       0.0       0.0
 4 C  dx2y2           0.0       0.2       0.1       0.2       0.1       0.0
 4 C  dxy             0.0       0.0       0.6       0.1       0.0       0.5
 5 C  s               0.0       4.3       6.0       2.8       5.3       6.0
 5 C  pz             16.2       0.0       0.0       0.0       0.0       0.0
 5 C  px              0.0       1.5       4.8       3.2       7.5       1.3
 5 C  py              0.0       6.5      15.4       0.7       0.3       5.3
 5 C  dz2             0.0       1.0       0.1       0.1       0.4       0.1
 5 C  dxz             0.1       0.0       0.0       0.0       0.0       0.0
 5 C  dyz             0.4       0.0       0.0       0.0       0.0       0.0
 5 C  dx2y2           0.0       0.8       0.0       0.0       0.5       0.1
 5 C  dxy             0.0       0.0       0.5       0.4       0.1       0.3
 6 H  s               0.0       1.9       0.0       8.0       0.0       1.0
 6 H  pz              0.9       0.0       0.0       0.0       0.0       0.0
 6 H  px              0.0       0.0       0.0       3.8       0.0       0.1
 6 H  py              0.0       0.0       0.1       0.0       1.4       0.0
 7 H  s               0.0       2.7       4.1       0.5       0.5       1.8
 7 H  pz              1.0       0.0       0.0       0.0       0.0       0.0
 7 H  px              0.0       0.1       0.9       0.3       0.6       0.0
 7 H  py              0.0       1.0       1.8       0.0       0.1       1.2
 8 H  s               0.0       2.8       1.3       0.7       4.2       4.3
 8 H  pz              0.9       0.0       0.0       0.0       0.0       0.0
 8 H  px              0.0       0.0       0.2       0.0       1.2       1.6
 8 H  py              0.0       1.0       0.7       0.4       1.0       0.6
 9 H  s               0.0       2.8       1.3       0.7       4.2       4.3
 9 H  pz              0.9       0.0       0.0       0.0       0.0       0.0
 9 H  px              0.0       0.0       0.2       0.0       1.2       1.6
 9 H  py              0.0       1.0       0.7       0.4       1.0       0.6
10 H  s               0.0       2.7       4.1       0.5       0.5       1.8
10 H  pz              1.0       0.0       0.0       0.0       0.0       0.0
10 H  px              0.0       0.1       0.9       0.3       0.6       0.0
10 H  py              0.0       1.0       1.8       0.0       0.1       1.2

                     30        31        32        33        34        35   
                   0.19343   0.21012   0.21402   0.22332   0.24496   0.25521
                   0.00000   0.00000   0.00000   0.00000   0.00000   0.00000
                  --------  --------  --------  --------  --------  --------
 0 C  s              10.3       0.0       0.0       0.0       2.4       0.0
 0 C  pz              0.0      18.1       0.0       0.0       0.0       0.0
 0 C  px              9.7       0.0       0.0       0.0       5.7       0.0
 0 C  py              0.0       0.0       8.6      14.9       0.0      11.9
 0 C  dz2             0.4       0.0       0.0       0.0       0.4       0.0
 0 C  dx2y2           0.1       0.0       0.0       0.0       1.6       0.0
 0 C  dxy             0.0       0.0       0.0       1.3       0.0       3.8
 1 C  s               2.8       0.0       0.8       8.0       1.0       6.9
 1 C  pz              0.0      16.8       0.0       0.0       0.0       0.0
 1 C  px              0.3       0.0       5.4       0.5      17.3       1.6
 1 C  py              2.7       0.0       8.3       2.2       0.6       5.1
 1 C  dz2             0.8       0.0       0.0       1.0       0.0       0.8
 1 C  dyz             0.0       0.2       0.0       0.0       0.0       0.0
 1 C  dx2y2           0.0       0.0       0.3       0.2       2.4       0.5
 1 C  dxy             0.4       0.0       1.3       0.6       0.2       0.2
 2 C  s               2.8       0.0       0.6      10.8       1.6       2.1
 2 C  pz              0.0      22.1       0.0       0.0       0.0       0.0
 2 C  px              4.9       0.0      13.3       0.4       2.7       3.0
 2 C  py              6.4       0.0       6.5       0.9       0.3       9.4
 2 C  dz2             0.5       0.0       0.0       0.8       0.2       0.3
 2 C  dx2y2           0.5       0.0       0.3       0.0       0.0       0.3
 2 C  dxy             0.7       0.0       1.0       0.7       0.2       0.4
 3 N  s               7.8       0.0       0.0       0.0       0.9       0.0
 3 N  pz              0.0       1.2       0.0       0.0       0.0       0.0
 3 N  px              0.7       0.0       0.0       0.0       0.5       0.0
 3 N  py              0.0       0.0       5.9       2.0       0.0       5.0
 3 N  dz2             0.2       0.0       0.0       0.0       4.4       0.0
 3 N  dxz             0.0       2.2       0.0       0.0       0.0       0.0
 3 N  dx2y2           0.2       0.0       0.0       0.0       0.6       0.0
 3 N  dxy             0.0       0.0       0.7       0.7       0.0       0.3
 4 C  s               2.8       0.0       0.6      10.8       1.6       2.2
 4 C  pz              0.0      22.1       0.0       0.0       0.0       0.0
 4 C  px              4.9       0.0      13.3       0.4       2.7       3.0
 4 C  py              6.3       0.0       6.5       0.9       0.3       9.4
 4 C  dz2             0.5       0.0       0.0       0.8       0.2       0.3
 4 C  dx2y2           0.5       0.0       0.3       0.0       0.0       0.3
 4 C  dxy             0.7       0.0       1.0       0.7       0.2       0.4
 5 C  s               2.8       0.0       0.8       8.0       1.0       6.9
 5 C  pz              0.0      16.8       0.0       0.0       0.0       0.0
 5 C  px              0.3       0.0       5.4       0.5      17.3       1.6
 5 C  py              2.7       0.0       8.4       2.2       0.6       5.1
 5 C  dz2             0.8       0.0       0.0       1.0       0.0       0.8
 5 C  dyz             0.0       0.2       0.0       0.0       0.0       0.0
 5 C  dx2y2           0.0       0.0       0.3       0.2       2.4       0.5
 5 C  dxy             0.4       0.0       1.3       0.6       0.1       0.2
 6 H  s               2.1       0.0       0.0       0.0      17.1       0.0
 6 H  px              1.0       0.0       0.0       0.0       3.2       0.0
 6 H  py              0.0       0.0       0.0       0.3       0.0       3.5
 7 H  s               7.0       0.0       0.8       8.5       0.7       1.7
 7 H  px              0.8       0.0       0.7       0.2       1.1       0.1
 7 H  py              0.7       0.0       0.3       1.1       0.0       0.5
 8 H  s               1.5       0.0       1.4       4.3       2.7       3.1
 8 H  px              0.0       0.0       1.4       0.0       0.1       0.0
 8 H  py              0.9       0.0       0.0       0.2       0.4       1.7
 9 H  s               1.5       0.0       1.4       4.3       2.7       3.1
 9 H  px              0.0       0.0       1.4       0.0       0.1       0.0
 9 H  py              0.9       0.0       0.0       0.2       0.4       1.7
10 H  s               7.0       0.0       0.8       8.5       0.7       1.7
10 H  px              0.8       0.0       0.7       0.2       1.1       0.1
10 H  py              0.7       0.0       0.3       1.1       0.0       0.5

                     36        37        38        39        40        41   
                   0.25890   0.26455   0.27819   0.30599   0.32497   0.32621
                   0.00000   0.00000   0.00000   0.00000   0.00000   0.00000
                  --------  --------  --------  --------  --------  --------
 0 C  s               0.0       0.0      12.3       0.0       0.0       5.5
 0 C  pz              0.0      38.7       0.0       0.0       0.0       0.0
 0 C  px              0.0       0.0       3.6       0.0       0.0      14.9
 0 C  py              0.0       0.0       0.0       3.7      11.0       0.0
 0 C  dz2             0.0       0.0       2.9       0.0       0.0       0.1
 0 C  dxz             0.0       0.4       0.0       0.0       0.0       0.0
 0 C  dyz             0.2       0.0       0.0       0.0       0.0       0.0
 0 C  dx2y2           0.0       0.0       1.3       0.0       0.0       0.8
 0 C  dxy             0.0       0.0       0.0       0.0       0.6       0.0
 1 C  s               0.0       0.0       1.4       0.6       6.0       0.6
 1 C  pz             24.8       6.2       0.0       0.0       0.0       0.0
 1 C  px              0.0       0.0       5.3       7.4       4.6       0.3
 1 C  py              0.0       0.0       3.6       4.9       0.3       5.2
 1 C  dz2             0.0       0.0       0.1       0.0       2.4       0.4
 1 C  dxz             0.1       0.1       0.0       0.0       0.0       0.0
 1 C  dyz             0.2       0.1       0.0       0.0       0.0       0.0
 1 C  dx2y2           0.0       0.0       1.4       0.3       0.0       0.1
 1 C  dxy             0.0       0.0       0.0       1.1       0.2       1.5
 2 C  s               0.0       0.0       8.0       3.2       3.0       1.4
 2 C  pz             24.1      19.2       0.0       0.0       0.0       0.0
 2 C  px              0.0       0.0       3.7       3.3      10.1      10.4
 2 C  py              0.0       0.0       1.2       3.9       0.9       1.9
 2 C  dz2             0.0       0.0       0.5       1.6       1.3       0.0
 2 C  dxz             0.1       0.0       0.0       0.0       0.0       0.0
 2 C  dyz             0.2       0.2       0.0       0.0       0.0       0.0
 2 C  dx2y2           0.0       0.0       0.6       1.0       0.1       0.1
 2 C  dxy             0.0       0.0       0.0       1.0       0.1       1.1
 3 N  s               0.0       0.0       1.7       0.0       0.0       0.1
 3 N  pz              0.0       3.2       0.0       0.0       0.0       0.0
 3 N  px              0.0       0.0       7.3       0.0       0.0      16.0
 3 N  py              0.0       0.0       0.0       5.6       5.2       0.0
 3 N  dz2             0.0       0.0       9.6       0.0       0.0       0.1
 3 N  dxz             0.0       5.8       0.0       0.0       0.0       0.0
 3 N  dyz             0.3       0.0       0.0       0.0       0.0       0.0
 3 N  dx2y2           0.0       0.0       0.9       0.0       0.0       0.0
 3 N  dxy             0.0       0.0       0.0      28.2       0.1       0.0
 4 C  s               0.0       0.0       8.0       3.2       3.0       1.4
 4 C  pz             24.1      19.2       0.0       0.0       0.0       0.0
 4 C  px              0.0       0.0       3.7       3.3      10.0      10.5
 4 C  py              0.0       0.0       1.2       3.9       0.9       1.9
 4 C  dz2             0.0       0.0       0.5       1.6       1.3       0.0
 4 C  dxz             0.1       0.0       0.0       0.0       0.0       0.0
 4 C  dyz             0.2       0.2       0.0       0.0       0.0       0.0
 4 C  dx2y2           0.0       0.0       0.6       1.0       0.1       0.1
 4 C  dxy             0.0       0.0       0.0       1.0       0.1       1.1
 5 C  s               0.0       0.0       1.4       0.6       6.1       0.6
 5 C  pz             24.9       6.2       0.0       0.0       0.0       0.0
 5 C  px              0.0       0.0       5.3       7.4       4.6       0.3
 5 C  py              0.0       0.0       3.6       4.9       0.3       5.2
 5 C  dz2             0.0       0.0       0.1       0.0       2.4       0.4
 5 C  dxz             0.1       0.1       0.0       0.0       0.0       0.0
 5 C  dyz             0.2       0.1       0.0       0.0       0.0       0.0
 5 C  dx2y2           0.0       0.0       1.4       0.3       0.0       0.1
 5 C  dxy             0.0       0.0       0.0       1.0       0.2       1.5
 6 H  s               0.0       0.0       0.7       0.0       0.0       3.1
 6 H  pz              0.0       0.1       0.0       0.0       0.0       0.0
 6 H  px              0.0       0.0       0.2       0.0       0.0       0.1
 6 H  py              0.0       0.0       0.0       0.8       0.5       0.0
 7 H  s               0.0       0.0       0.7       0.9       4.0       1.0
 7 H  px              0.0       0.0       1.1       0.6       0.0       0.2
 7 H  py              0.0       0.0       0.6       0.4       0.8       0.0
 8 H  s               0.0       0.0       0.2       0.4       6.7       4.7
 8 H  pz              0.1       0.1       0.0       0.0       0.0       0.0
 8 H  px              0.0       0.0       0.8       0.1       0.3       0.2
 8 H  py              0.0       0.0       0.5       0.4       0.6       0.7
 9 H  s               0.0       0.0       0.2       0.4       6.6       4.7
 9 H  pz              0.1       0.1       0.0       0.0       0.0       0.0
 9 H  px              0.0       0.0       0.8       0.1       0.3       0.2
 9 H  py              0.0       0.0       0.5       0.4       0.6       0.7
10 H  s               0.0       0.0       0.7       0.9       4.0       1.0
10 H  px              0.0       0.0       1.1       0.6       0.0       0.2
10 H  py              0.0       0.0       0.6       0.4       0.8       0.0

                     42        43        44        45        46        47   
                   0.33838   0.35262   0.36843   0.42175   0.45287   0.47724
                   0.00000   0.00000   0.00000   0.00000   0.00000   0.00000
                  --------  --------  --------  --------  --------  --------
 0 C  s               0.0       4.9       0.0       0.5       8.6       0.0
 0 C  pz              0.0       0.0      40.5       0.0       0.0       0.0
 0 C  px              0.0       6.9       0.0       4.8       1.8       0.0
 0 C  py              0.0       0.0       0.0       0.0       0.0       5.1
 0 C  dz2             0.0       2.2       0.0       1.1       0.3       0.0
 0 C  dx2y2           0.0       0.0       0.0       0.0       1.7       0.0
 0 C  dxy             0.0       0.0       0.0       0.0       0.0       2.7
 1 C  s               0.0       5.7       0.0       1.0       0.6      10.0
 1 C  pz             24.2       0.0      23.2       0.0       0.0       0.0
 1 C  px              0.0       0.3       0.0       0.4      16.4       5.7
 1 C  py              0.0       8.6       0.0       6.0       1.1       2.9
 1 C  dz2             0.0       1.7       0.0       0.5       0.1       0.0
 1 C  dx2y2           0.0       0.1       0.0       0.1       1.2       0.2
 1 C  dxy             0.0       0.1       0.0       0.3       0.7       0.1
 2 C  s               0.0       0.1       0.0       2.0       3.9      11.1
 2 C  pz             24.4       0.0       0.6       0.0       0.0       0.0
 2 C  px              0.0       3.2       0.0       0.4       1.5       0.6
 2 C  py              0.0       5.9       0.0      13.8       0.8       6.5
 2 C  dz2             0.0       0.0       0.0       1.1       0.7       0.3
 2 C  dxz             0.1       0.0       0.1       0.0       0.0       0.0
 2 C  dyz             0.3       0.0       0.0       0.0       0.0       0.0
 2 C  dx2y2           0.0       1.6       0.0       1.1       0.6       0.6
 2 C  dxy             0.0       0.0       0.0       0.0       1.2       0.6
 3 N  s               0.0       0.7       0.0       0.9       7.7       0.0
 3 N  pz              0.0       0.0       7.7       0.0       0.0       0.0
 3 N  px              0.0       1.0       0.0      15.0       7.2       0.0
 3 N  py              0.0       0.0       0.0       0.0       0.0       5.8
 3 N  dz2             0.0       8.7       0.0       1.0       4.8       0.0
 3 N  dxz             0.0       0.0       3.4       0.0       0.0       0.0
 3 N  dyz             1.0       0.0       0.0       0.0       0.0       0.0
 3 N  dx2y2           0.0       4.4       0.0       5.5       9.3       0.0
 3 N  dxy             0.0       0.0       0.0       0.0       0.0       2.3
 4 C  s               0.0       0.1       0.0       2.0       3.9      11.1
 4 C  pz             24.4       0.0       0.6       0.0       0.0       0.0
 4 C  px              0.0       3.2       0.0       0.4       1.5       0.6
 4 C  py              0.0       5.9       0.0      13.8       0.8       6.5
 4 C  dz2             0.0       0.0       0.0       1.1       0.7       0.3
 4 C  dxz             0.1       0.0       0.1       0.0       0.0       0.0
 4 C  dyz             0.3       0.0       0.0       0.0       0.0       0.0
 4 C  dx2y2           0.0       1.6       0.0       1.1       0.6       0.6
 4 C  dxy             0.0       0.0       0.0       0.0       1.1       0.6
 5 C  s               0.0       5.7       0.0       1.0       0.6      10.0
[...]
 4 C  dz2             0.1       3.9       0.1       0.0       0.3       1.2
 4 C  dx2y2           0.6       6.6       0.4       0.8       0.3      11.0
 4 C  dxy             1.4       0.1       0.1       0.2       2.3       1.6
 5 C  s               0.3       8.8       2.3       5.8       2.0       4.5
 5 C  px              4.8       1.0       0.1       0.9       0.4       1.2
 5 C  py              0.3       2.3       4.1       0.6       2.2       0.0
 5 C  dz2             0.1       7.1       1.5       3.9       0.7       3.5
 5 C  dx2y2           5.7       0.4       0.0       1.8       0.6       5.4
 5 C  dxy             5.4       1.8       5.6       0.1       2.3       0.1
 6 H  s               0.0       0.0       3.1       1.9       0.0       0.2
 6 H  px              0.0       0.0      19.4       7.7       0.0       0.4
 7 H  s               0.4       0.0       1.5       1.0       3.2       0.2
 7 H  px              1.1       0.2       1.5       1.8       3.4       0.0
 7 H  py              1.1       0.0       4.8       4.5      12.2       1.5
 8 H  s               0.9       0.0       0.0       0.7       2.7       0.7
 8 H  px              1.0       0.0       0.7       0.0       3.8       0.6
 8 H  py              3.6       0.3       0.0       4.9       9.3       4.6
 9 H  s               0.9       0.0       0.0       0.7       2.7       0.7
 9 H  px              1.0       0.0       0.7       0.0       3.8       0.6
 9 H  py              3.6       0.3       0.0       4.9       9.3       4.6
10 H  s               0.4       0.0       1.5       1.0       3.2       0.2
10 H  px              1.1       0.2       1.5       1.8       3.4       0.0
10 H  py              1.1       0.0       4.8       4.5      12.2       1.5

                    132       133       134       135       136       137   
                   3.38337   3.53050   3.63748   3.75352   4.06160   4.08958
                   0.00000   0.00000   0.00000   0.00000   0.00000   0.00000
                  --------  --------  --------  --------  --------  --------
 0 C  s               0.0       1.2       0.0       0.7       0.0       0.2
 0 C  px              0.0       3.3       0.0       0.3       0.0       1.4
 0 C  py              5.7       0.0       0.1       0.0       0.7       0.0
 0 C  dz2             0.0       1.4       0.0       0.6       0.0       0.2
 0 C  dx2y2           0.0       6.7       0.0       1.5       0.0      10.6
 0 C  dxy            22.3       0.0       0.4       0.0       0.5       0.0
 1 C  s               0.3       0.5       1.0       1.0       0.0       0.2
 1 C  px              3.7       0.1       1.0       0.0       0.2       0.3
 1 C  py              1.3       0.8       1.0       0.2       0.4       0.9
 1 C  dz2             0.1       0.2       1.0       1.1       0.0       0.1
 1 C  dx2y2          12.7       0.1       2.4       0.5       0.2       3.2
 1 C  dxy             5.2       0.6       4.1       0.8       0.8       6.5
 2 C  s               2.9       1.0       1.2       3.7       2.3       0.2
 2 C  px              0.9       0.6       1.6       0.5       1.4       0.3
 2 C  py              0.2       0.7       1.0       1.7       4.3       1.2
 2 C  dz2             1.4       0.5       1.3       3.8       0.6       0.0
 2 C  dx2y2           3.1       4.8       1.3       0.4       2.3       1.6
 2 C  dxy             0.0       3.1       5.3       0.8       5.1       8.7
 3 N  s               0.0       2.3       0.0      21.0       0.0       1.9
 3 N  px              0.0       3.4       0.0       8.4       0.0       0.2
 3 N  py              4.0       0.0       1.4       0.0      24.2       0.0
 3 N  dz2             0.0       3.2       0.0      23.4       0.0       1.5
 3 N  dx2y2           0.0       6.6       0.0       6.3       0.0      11.1
 3 N  dxy             1.1       0.0       1.6       0.0      37.8       0.0
 4 C  s               2.9       1.0       1.2       3.7       2.3       0.2
 4 C  px              0.9       0.6       1.6       0.5       1.4       0.3
 4 C  py              0.2       0.7       1.0       1.7       4.3       1.2
 4 C  dz2             1.4       0.5       1.3       3.8       0.6       0.0
 4 C  dx2y2           3.1       4.8       1.3       0.4       2.3       1.6
 4 C  dxy             0.0       3.1       5.3       0.8       5.1       8.7
 5 C  s               0.3       0.5       1.0       1.0       0.0       0.2
 5 C  px              3.7       0.1       1.0       0.0       0.2       0.3
 5 C  py              1.3       0.8       1.0       0.2       0.4       0.9
 5 C  dz2             0.1       0.2       1.0       1.1       0.0       0.1
 5 C  dx2y2          12.8       0.1       2.4       0.5       0.2       3.2
 5 C  dxy             5.2       0.6       4.1       0.8       0.8       6.6
 6 H  s               0.0       4.1       0.0       0.7       0.0       2.4
 6 H  px              0.0      13.9       0.0       1.7       0.0       4.2
 6 H  py              1.2       0.0       0.2       0.0       0.0       0.0
 7 H  s               0.0       0.7       3.0       0.6       0.1       2.0
 7 H  px              0.4       1.0       1.5       0.5       0.0       0.8
 7 H  py              0.2       1.4       7.5       1.3       0.1       2.7
 8 H  s               0.0       2.5       3.5       0.1       0.2       1.7
 8 H  px              0.1       4.1       2.6       0.0       0.1       1.1
 8 H  py              0.3       4.2       7.8       0.6       0.1       1.7
 9 H  s               0.0       2.5       3.5       0.1       0.2       1.7
 9 H  px              0.1       4.1       2.6       0.0       0.1       1.1
 9 H  py              0.3       4.2       7.8       0.6       0.1       1.7
10 H  s               0.0       0.7       3.0       0.6       0.1       2.0
10 H  px              0.4       1.0       1.5       0.5       0.0       0.8
10 H  py              0.2       1.4       7.5       1.3       0.1       2.7

                    138       139       140       141       142       143   
                  21.58807  21.96808  22.03635  22.19698  22.22128  31.89163
                   0.00000   0.00000   0.00000   0.00000   0.00000   0.00000
                  --------  --------  --------  --------  --------  --------
 0 C  s              32.6       0.0      19.6      47.3       0.0       0.0
 0 C  py              0.0       0.1       0.0       0.0       0.0       0.0
 1 C  s              24.9      36.7       1.2      23.7      13.1       0.0
 2 C  s               8.4      13.0      38.7       2.6      36.7       0.0
 3 N  s               0.2       0.0       0.2       0.0       0.0      99.8
 3 N  py              0.0       0.1       0.0       0.0       0.2       0.0
 4 C  s               8.4      13.0      38.7       2.5      36.7       0.0
 5 C  s              24.9      36.7       1.2      23.6      13.1       0.0



                      *****************************
                      * MAYER POPULATION ANALYSIS *
                      *****************************

  NA   - Mulliken gross atomic population
  ZA   - Total nuclear charge
  QA   - Mulliken gross atomic charge
  VA   - Mayer's total valence
  BVA  - Mayer's bonded valence
  FA   - Mayer's free valence

  ATOM       NA         ZA         QA         VA         BVA        FA
  0 C      6.1546     6.0000    -0.1546     3.8877     3.8877    -0.0000
  1 C      6.0936     6.0000    -0.0936     3.7083     3.7083     0.0000
  2 C      6.0992     6.0000    -0.0992     3.9614     3.9614    -0.0000
  3 N      7.1785     7.0000    -0.1785     2.9937     2.9937    -0.0000
  4 C      6.0992     6.0000    -0.0992     3.9615     3.9615    -0.0000
  5 C      6.0936     6.0000    -0.0936     3.7083     3.7083    -0.0000
  6 H      0.8494     1.0000     0.1506     0.9673     0.9673    -0.0000
  7 H      0.8493     1.0000     0.1507     0.9677     0.9677     0.0000
  8 H      0.8668     1.0000     0.1332     0.9685     0.9685    -0.0000
  9 H      0.8668     1.0000     0.1332     0.9685     0.9685    -0.0000
 10 H      0.8493     1.0000     0.1507     0.9677     0.9677     0.0000

  Mayer bond orders larger than 0.100000
B(  0-C ,  1-C ) :   1.4108 B(  0-C ,  3-N ) :   0.1040 B(  0-C ,  5-C ) :   1.4108 
B(  0-C ,  6-H ) :   0.9447 B(  1-C ,  2-C ) :   1.3594 B(  1-C ,  7-H ) :   0.9354 
B(  2-C ,  3-N ) :   1.4694 B(  2-C ,  8-H ) :   0.9832 B(  3-N ,  4-C ) :   1.4695 
B(  4-C ,  5-C ) :   1.3594 B(  4-C ,  9-H ) :   0.9832 B(  5-C , 10-H ) :   0.9354 


-------
TIMINGS
-------

Total SCF time: 0 days 0 hours 0 min 4 sec 

Total time                  ....       4.745 sec
Sum of individual times     ....       4.727 sec  ( 99.6%)

SCF preparation             ....       0.025 sec  (  0.5%)
Fock matrix formation       ....       4.607 sec  ( 97.1%)
  Startup                   ....       0.001 sec  (  0.0% of F)
  Split-RI-J                ....       0.770 sec  ( 16.7% of F)
  XC integration            ....       3.827 sec  ( 83.1% of F)
    Basis function eval.    ....       0.704 sec  ( 18.4% of XC)
    Density eval.           ....       1.153 sec  ( 30.1% of XC)
    XC-Functional eval.     ....       0.529 sec  ( 13.8% of XC)
    XC-Potential eval.      ....       1.370 sec  ( 35.8% of XC)
Diagonalization             ....       0.000 sec  (  0.0%)
Density matrix formation    ....       0.015 sec  (  0.3%)
Total Energy calculation    ....       0.001 sec  (  0.0%)
Population analysis         ....       0.038 sec  (  0.8%)
Orbital Transformation      ....       0.010 sec  (  0.2%)
Orbital Orthonormalization  ....       0.000 sec  (  0.0%)
DIIS solution               ....       0.023 sec  (  0.5%)
  MO trafo                  ....       0.000 sec  (  0.0 % of DIIS)
  Orb grad                  ....       0.000 sec  (  0.0 % of DIIS)
  Energy W gradient         ....       0.000 sec  (  0.0 % of DIIS)
  DIIS error                ....       0.002 sec  ( 10.0 % of DIIS)
  DIIS work                 ....       0.018 sec  ( 79.5 % of DIIS)
  Form Q                    ....       0.000 sec  (  0.0 % of DIIS)
  Form QpQm                 ....       0.000 sec  (  0.0 % of DIIS)
  Exp/Cayley                ....       0.000 sec  (  0.0 % of DIIS)
  Orb update                ....       0.000 sec  (  0.0 % of DIIS)
  Wake-sleep                ....       0.000 sec  (  1.5 % of DIIS)
SOSCF solution              ....       0.007 sec  (  0.2%)
  MO trafo                  ....       0.006 sec  ( 89.3 % of SOSCF)
  Orb grad                  ....       0.000 sec  (  0.3 % of SOSCF)
  Rot update                ....       0.000 sec  (  0.2 % of SOSCF)
  Step                      ....       0.001 sec  (  9.6 % of SOSCF)
Finished LeanSCF after   4.7 sec

Maximum memory used throughout the entire LEANSCF-calculation: 15.2 MB


-------------------------------------------------------------------------------
                          DFT DISPERSION CORRECTION                            
                                                                               
                                DFTD4 V3.4.0                                   
-------------------------------------------------------------------------------
The R2SCAN3C composite method is recognized
Using three-body term ABC
Active option DFTDOPT                   ...         5   

-------------------------   ----------------
Dispersion correction           -0.002998117
-------------------------   ----------------

------------------   -----------------
gCP correction             0.004754327
------------------   -----------------

-------------------------   --------------------
FINAL SINGLE POINT ENERGY      -248.213355580550
-------------------------   --------------------


------------------------------------------------------------------------------
                              ORCA PROPERTY CALCULATIONS
------------------------------------------------------------------------------

GBWName                                 ... sp.gbw
Number of atoms                         ...     11
Number of basis functions               ...    144
Max core memory                         ...   1024 MB

Electric properties:
Dipole moment                           ... YES
Quadrupole moment                       ...  NO
Static polarizability (Dipole/Dipole)   ...  NO
Static polarizability (Dipole/Quad.)    ...  NO
Static polarizability (Quad./Quad.)     ...  NO
Static polarizability (Velocity)        ...  NO

Atomic electric properties:
Dipole moment                           ...  NO
Quadrupole moment                       ...  NO
Static polarizability                   ...  NO

Choice of electric origin               ... Center of mass
Position of electric origin             ...    -0.000004     0.000000    -0.000000

General magnetic properties:
Magnetizability                         ...  NO

EPR properties:
g-Tensor (aka g-matrix)                 ...  NO
Zero-Field splitting spin-orbit         ...  NO
Zero-field splitting spin-spin          ...  NO
Hyperfine couplings                     ...  NO (   0 nuclei)
Quadrupole couplings                    ...  NO (   0 nuclei)
Contact density                         ...  NO (   0 nuclei)

NMR properties:
Chemical shifts                         ...  NO (   0 nuclei)
Spin-rotation constants                 ...  NO (   0 nuclei)
Spin-spin couplings                     ...  NO (   0 nuclei,    0 pairs)

Choice of magnetic origin               ... GIAO
Position of magnetic origin             ...     0.000000     0.000000     0.000000

Properties with geometric perturbations:
SCF Hessian                             ...  NO
IR spectrum                             ...  NO
VCD spectrum                            ...  NO
X-ray spectroscopy properties:
SCF XES/XAS/RIXS spectra                ...  NO


-------------
DIPOLE MOMENT
-------------

Method             : SCF
Type of density    : Electron Density
Multiplicity       :   1
Irrep              :   0
Energy             :  -248.2151117903170245 Eh
Relativity type    : 
Basis              : AO
                                X                 Y                 Z
Electronic contribution:     -1.309137940       0.000589199       0.000483993
Nuclear contribution   :      2.161033610      -0.000989773      -0.000653382
                        -----------------------------------------
Total Dipole Moment    :      0.851895670      -0.000400575      -0.000169389
                        -----------------------------------------
Magnitude (a.u.)       :      0.851895781
Magnitude (Debye)      :      2.165346993



--------------------
Rotational spectrum 
--------------------
 
Rotational constants in cm-1:             0.204087             0.197227             0.100299 
Rotational constants in MHz :          6118.369279          5912.731330          3006.896485 

Dipole components along the rotational axes: 
x,y,z [a.u.] :     0.851896    -0.000401    -0.000169 
x,y,z [Debye]:     2.165347    -0.001018    -0.000431 

 

Dipole moment calculation done in   0.0 sec 

Maximum memory used throughout the entire PROP-calculation: 8.8 MB

--------------------------------
SUGGESTED CITATIONS FOR THIS RUN
--------------------------------

Below you find a list of papers that are relevant to this ORCA run
We neither can nor want to force you to cite these papers, but we appreciate if you do
You receive ORCA, which is the product of decades of hard work by many enthusiastic individuals, for free
The only thing we kindly ask in return is that you cite our papers,
We deeply appreciate it, if you show your appreciation for ORCA by not just citing the generic ORCA reference.

Please note that relegating all ORCA citations to the supporting information does *not* help us.
SI sections are not indexed - citations you put there will not count into any citation statistics
But we need these citations in order to attract the funding resources that allow us to do what we are doing

Therefore, if you are a happy ORCA user, please consider citing a few of the papers listed below in the main body of your paper

In addition to the list printed below, the program has created the file sp.bibtex that contains the list in bibtex format
You can import this file easily into all common literature databanks and citation aid programs


List of essential papers. We consider these as the minimum necessary citations

  1. Neese,F.
     Software update: the ORCA program system, version 5.0
     WIRES Comput. Molec. Sci., 2022 12(1)e1606
     doi.org/10.1002/wcms.1606
  2. Grimme,S.; Hansen,A.; Ehlert,S.; Mewes,J.
     r2SCAN-3c: A 'Swiss army knife' composite electronic-structure method
     J. Chem. Phys., 2021 154 064103
     doi.org/10.1063/5.0040021

List of papers to cite with high priority. The work reported in these papers was absolutely
necessary for this run to complete.
Our perspective: the developers of density functionals and basis sets usually get cited in chemistry papers
Good! But without the algorithms to do something with them, the functionals or basis sets would not do anything.
Hence, in our opinion, the algorithm design and method developments papers are equally worthy of getting cited

  1. Neese,F.
     An improvement of the resolution of the identity approximation for the formation of the Coulomb matrix
     J. Comp. Chem., 2003 24(14)1740-1747
     doi.org/10.1002/jcc.10318
  2. Neese,F.
     The SHARK Integral Generation and Digestion System
     J. Comp. Chem., 2022  1-16
     doi.org/10.1002/jcc.26942
  3. Lehtola,S.; Steigemann,C.; Oliveira,M.; Marques,M.
     Recent developments in Libxc - A comprehensive library of functionals for density functional theory
     Software X, 2018 7 
     doi.org/10.1016/j.softx.2017.11.002
  4. Caldeweyher,E.; Bannwarth,C.; Grimme,S.
     Extension of the D3 dispersion coefficient model
     J. Chem. Phys., 2017 147 034112
     doi.org/10.1063/1.4993215
  5. Caldeweyher,E.; Ehlert,S.; Hansen,A.; Neugebauer,H.; Spicher,S.; Bannwarth,C.; Grimme,S.
     A generally applicable atomic-charge dependent London dispersion correction
     J. Chem. Phys., 2019 150 154122
     doi.org/10.1063/1.5090222
  6. Caldeweyher,E.; Mewes,J.; Ehlert,S.; Grimme,S.
     Extension and evaluation of the D4 London-dispersion model for periodic systems
     Phys. Chem. Chem. Phys., 2020 22(16)8499-8512
     doi.org/10.1039/D0CP00502A
  7. Wittmann,L.; Gordiy,I.; Friede,M.; Helmich-Paris,B.; Grimme,S.; Hansen,A.; Bursch,M.
     Extension of the D3 and D4 London Dispersion Corrections to the full Actinides Series
     Phys. Chem. Chem. Phys., 2024 26(32)21379-21394
     doi.org/https://doi.org/10.1039/D4CP01514B 

List of suggested additional citations. These are papers that are important in the 'surrounding' of 
of this run, or papers that preceded the highly important papers. If you like your results we are grateful for a citation.

  1. Neese,F.
     The ORCA program system
     WIRES Comput. Molec. Sci., 2012 2(1)73-78
     doi.org/10.1002/wcms.81
  2. Neese,F.
     Software update: the ORCA program system, version 4.0
     WIRES Comput. Molec. Sci., 2018 8(1)1-6
     doi.org/10.1002/wcms.1327
  3. Neese,F.; Wennmohs,F.; Becker,U.; Riplinger,C.
     The ORCA quantum chemistry program package
     J. Chem. Phys., 2020 152 Art. No. L224108
     doi.org/10.1063/5.0004608

List of optional additional citations

  1. Neese,F.
     Approximate second-order SCF convergence for spin unrestricted wavefunctions
     Chem. Phys. Lett., 2000 325(1-3)93-98
     doi.org/10.1016/s0009-2614(00)00662-x

Timings for individual modules:

Sum of individual times          ...        5.131 sec (=   0.086 min)
Startup calculation              ...        0.299 sec (=   0.005 min)   5.8 %
SCF iterations                   ...        4.800 sec (=   0.080 min)  93.5 %
Property calculations            ...        0.032 sec (=   0.001 min)   0.6 %
                             ****ORCA TERMINATED NORMALLY****
TOTAL RUN TIME: 0 days 0 hours 0 minutes 5 seconds 193 msec
