      -----------------------------------------------------------      
     |                   =====================                   |     
     |                           x T B                           |     
     |                   =====================                   |     
     |                         S. Grimme                         |     
     |          Mulliken Center for Theoretical Chemistry        |     
     |                    University of Bonn                     |     
      -----------------------------------------------------------      

   * xtb version 6.7.1 (41059b4) compiled by 'michael@archlinux' on 2025-03-24

   xtb is free software: you can redistribute it and/or modify it under
   the terms of the GNU Lesser General Public License as published by
   the Free Software Foundation, either version 3 of the License, or
   (at your option) any later version.
   
   xtb is distributed in the hope that it will be useful,
   but WITHOUT ANY WARRANTY; without even the implied warranty of
   MERCHANTABILITY or FITNESS FOR A PARTICULAR PURPOSE.  See the
   GNU Lesser General Public License for more details.
   
   Cite this work as:
   * C. Bannwarth, E. Caldeweyher, S. Ehlert, A. Hansen, P. Pracht,
     J. Seibert, S. Spicher, S. Grimme, WIREs Comput. Mol. Sci., 2020, 11,
     e01493. DOI: 10.1002/wcms.1493
   
   for GFN2-xTB:
   * C. Bannwarth, S. Ehlert and S. Grimme., J. Chem. Theory Comput., 2019,
     15, 1652-1671. DOI: 10.1021/acs.jctc.8b01176
   for GFN1-xTB:
   * S. Grimme, C. Bannwarth, P. Shushkov, J. Chem. Theory Comput., 2017,
     13, 1989-2009. DOI: 10.1021/acs.jctc.7b00118
   for GFN0-xTB:
   * P. Pracht, E. Caldeweyher, S. Ehlert, S. Grimme, ChemRxiv, 2019, preprint.
     DOI: 10.26434/chemrxiv.8326202.v1
   for GFN-FF:
   * S. Spicher and S. Grimme, Angew. Chem. Int. Ed., 2020, 59, 15665-15673.
     DOI: 10.1002/anie.202004239
   
   for ALPB and GBSA implicit solvation:
   * S. Ehlert, M. Stahn, S. Spicher, S. Grimme, J. Chem. Theory Comput.,
     2021, 17, 4250-4261. DOI: 10.1021/acs.jctc.1c00471
   
   for ddCOSMO and CPCM-X implicit solvation:
   * M. Stahn, S. Ehlert, S. Grimme, J. Phys. Chem. A,
     2023, XX, XXXX-XXXX. DOI: 10.1021/acs.jpca.3c04382
   
   for DFT-D4:
   * E. Caldeweyher, C. Bannwarth and S. Grimme, J. Chem. Phys., 2017,
     147, 034112. DOI: 10.1063/1.4993215
   * E. Caldeweyher, S. Ehlert, A. Hansen, H. Neugebauer, S. Spicher,
     C. Bannwarth and S. Grimme, J. Chem. Phys., 2019, 150, 154122.
     DOI: 10.1063/1.5090222
   * E. Caldeweyher, J.-M. Mewes, S. Ehlert and S. Grimme, Phys. Chem. Chem. Phys.
     2020, 22, 8499-8512. DOI: 10.1039/D0CP00502A
   
   for sTDA-xTB:
   * S. Grimme and C. Bannwarth, J. Chem. Phys., 2016, 145, 054103.
     DOI: 10.1063/1.4959605
   
   in the mass-spec context:
   * V. Asgeirsson, C. Bauer and S. Grimme, Chem. Sci., 2017, 8, 4879.
     DOI: 10.1039/c7sc00601b
   * J. Koopman and S. Grimme, ACS Omega 2019, 4, 12, 15120-15133.
     DOI: 10.1021/acsomega.9b02011
   
   for metadynamics refer to:
   * S. Grimme, J. Chem. Theory Comput., 2019, 155, 2847-2862
     DOI: 10.1021/acs.jctc.9b00143
   
   for SPH calculations refer to:
   * S. Spicher and S. Grimme, J. Chem. Theory Comput., 2021, 17, 1701-1714
     DOI: 10.1021/acs.jctc.0c01306
   
   for ONIOM refer to:
   * C. Plett, A. Katbashev, S. Ehlert, S. Grimme, M. Bursch,
     Phys. Chem. Chem. Phys., 2023, 25, 17860-17868. DOI: 10.1039/D3CP02178E
   
   for DIPRO refer to:
   * J. Kohn, N. Gildemeister, S. Grimme, D. Fazzi, A. Hansen,
     J. Chem. Phys., 2023, just accepted.
   
   for PTB refer to:
   * S. Grimme, M. Mueller, A. Hansen, J. Chem. Phys., 2023, 158, 124111.
     DOI: 10.1063/5.0137838
   
   with help from (in alphabetical order)
   P. Atkinson, C. Bannwarth, F. Bohle, G. Brandenburg, E. Caldeweyher
   M. Checinski, S. Dohm, S. Ehlert, S. Ehrlich, I. Gerasimov, C. Hölzer
   A. Katbashev, J. Kohn, J. Koopman, C. Lavigne, S. Lehtola, F. März, M. Müller,
   F. Musil, H. Neugebauer, J. Pisarek, C. Plett, P. Pracht, F. Pultar,
   J. Seibert, P. Shushkov, S. Spicher, M. Stahn, M. Steiner, T. Strunk,
   J. Stückrath, T. Rose, and J. Unsleber
   
 * started run on 2025/04/09 at 01:25:54.436     
   ID    Z sym.   atoms
    1    6 C      1, 2
    2   16 S      3
    3    1 H      4-9

           -------------------------------------------------
          |                Calculation Setup                |
           -------------------------------------------------

          program call               : /usr/bin/xtb xtb_rrho.coord --gfn2 --ohess vtight --chrg 0 --enso --norestart -I rrho-xcontrol-inp --parallel 1
          coordinate file            : xtb_rrho.coord
          omp threads                :                     1


           -------------------------------------------------
          |                 G F N 2 - x T B                 |
           -------------------------------------------------

        Reference                      10.1021/acs.jctc.8b01176
      * Hamiltonian:
        H0-scaling (s, p, d)           1.850000    2.230000    2.230000
        zeta-weighting                 0.500000
      * Dispersion:
        s8                             2.700000
        a1                             0.520000
        a2                             5.000000
        s9                             5.000000
      * Repulsion:
        kExp                           1.500000    1.000000
        rExp                           1.000000
      * Coulomb:
        alpha                          2.000000
        third order                    shell-resolved
        anisotropic                    true
        a3                             3.000000
        a5                             4.000000
        cn-shift                       1.200000
        cn-exp                         4.000000
        max-rad                        5.000000


          ...................................................
          :                      SETUP                      :
          :.................................................:
          :  # basis functions                  24          :
          :  # atomic orbitals                  23          :
          :  # shells                           13          :
          :  # electrons                        20          :
          :  max. iterations                   250          :
          :  Hamiltonian                  GFN2-xTB          :
          :  restarted?                      false          :
          :  GBSA solvation                  false          :
          :  PC potential                    false          :
          :  electronic temp.          300.0000000     K    :
          :  accuracy                    1.0000000          :
          :  -> integral cutoff          0.2500000E+02      :
          :  -> integral neglect         0.1000000E-07      :
          :  -> SCF convergence          0.1000000E-05 Eh   :
          :  -> wf. convergence          0.1000000E-03 e    :
          :  Broyden damping             0.4000000          :
          :  net charge                          0          :
          :  unpaired electrons                  0          :
          ...................................................

 iter      E             dE          RMSdq      gap      omega  full diag
   1    -10.6575478 -0.106575E+02  0.439E+00    5.26       0.0  T
   2    -10.6837624 -0.262146E-01  0.261E+00    4.67       1.0  T
   3    -10.6849107 -0.114827E-02  0.919E-01    4.57       1.0  T
   4    -10.6859131 -0.100240E-02  0.343E-01    4.44       1.0  T
   5    -10.6859163 -0.325945E-05  0.132E-01    4.44       1.0  T
   6    -10.6859312 -0.148866E-04  0.374E-02    4.44       1.0  T
   7    -10.6859316 -0.351688E-06  0.587E-03    4.44       5.7  T
   8    -10.6859316 -0.825583E-08  0.176E-03    4.44      19.0  T
   9    -10.6859316 -0.227914E-08  0.537E-04    4.44      62.0  T
  10    -10.6859316 -0.898872E-10  0.131E-04    4.44     253.9  T

   *** convergence criteria satisfied after 10 iterations ***

         #    Occupation            Energy/Eh            Energy/eV
      -------------------------------------------------------------
         1        2.0000           -0.7089344             -19.2911
       ...           ...                  ...                  ...
         4        2.0000           -0.5216060             -14.1936
         5        2.0000           -0.5183136             -14.1040
         6        2.0000           -0.4893578             -13.3161
         7        2.0000           -0.4674502             -12.7200
         8        2.0000           -0.4581850             -12.4678
         9        2.0000           -0.4476338             -12.1807
        10        2.0000           -0.3680544             -10.0153 (HOMO)
        11                         -0.2048151              -5.5733 (LUMO)
        12                         -0.1255395              -3.4161
        13                         -0.0170808              -0.4648
        14                         -0.0068472              -0.1863
        15                          0.0107749               0.2932
       ...                                ...                  ...
        23                          0.5028512              13.6833
      -------------------------------------------------------------
                  HL-Gap            0.1632393 Eh            4.4420 eV
             Fermi-level           -0.2864347 Eh           -7.7943 eV

 SCC (total)                   0 d,  0 h,  0 min,  0.003 sec
 SCC setup                      ...        0 min,  0.000 sec (  2.060%)
 Dispersion                     ...        0 min,  0.000 sec (  1.021%)
 classical contributions        ...        0 min,  0.000 sec (  0.444%)
 integral evaluation            ...        0 min,  0.000 sec ( 14.188%)
 iterations                     ...        0 min,  0.001 sec ( 54.194%)
 molecular gradient             ...        0 min,  0.001 sec ( 25.636%)
 printout                       ...        0 min,  0.000 sec (  2.190%)

         :::::::::::::::::::::::::::::::::::::::::::::::::::::
         ::                     SUMMARY                     ::
         :::::::::::::::::::::::::::::::::::::::::::::::::::::
         :: total energy             -10.575532048289 Eh    ::
         :: gradient norm              0.013341775415 Eh/a0 ::
         :: HOMO-LUMO gap              4.441966877687 eV    ::
         ::.................................................::
         :: SCC energy               -10.685930810017 Eh    ::
         :: -> isotropic ES            0.005172000920 Eh    ::
         :: -> anisotropic ES          0.002071789480 Eh    ::
         :: -> anisotropic XC          0.007939356083 Eh    ::
         :: -> dispersion             -0.003766607301 Eh    ::
         :: repulsion energy           0.110398761729 Eh    ::
         :: add. restraining           0.000000000000 Eh    ::
         :: total charge              -0.000000000000 e     ::
         :::::::::::::::::::::::::::::::::::::::::::::::::::::

      ----------------------------------------------------------- 
     |                   =====================                   |
     |                        A N C O P T                        |
     |                   =====================                   |
     |               Approximate Normal Coordinate               |
     |                Rational Function Optimizer                |
      ----------------------------------------------------------- 

          ...................................................
          :                      SETUP                      :
          :.................................................:
          :   optimization level         verytight          :
          :   max. optcycles                   200          :
          :   ANC micro-cycles                  20          :
          :   degrees of freedom                21          :
          :.................................................:
          :   RF solver                   davidson          :
          :   write xtbopt.log                true          :
          :   linear?                        false          :
          :   energy convergence         0.1000000E-06 Eh   :
          :   grad. convergence          0.2000000E-03 Eh/α :
          :   maximum RF displ.          1.0000000          :
          :   Hlow (freq-cutoff)         0.1000000E-01      :
          :   Hmax (freq-cutoff)         5.0000000          :
          :   S6 in model hess.         20.0000000          :
          ...................................................

generating ANC from exact Hessian ...
Using Lindh-Hessian (1995)
 Shifting diagonal of input Hessian by    4.6472357838391381E-003
 Lowest  eigenvalues of input Hessian
    0.000000    0.000000    0.000000    0.000000    0.000000    0.000000
    0.010000    0.017029    0.017397    0.028755    0.044319    0.054205
    0.061638    0.073028    0.093324    0.121857    0.134759    0.137794
 Highest eigenvalues
    0.801765    0.956695    1.029594    1.108256    1.138340    1.207743


........................................................................
.............................. CYCLE    1 ..............................
........................................................................

 iter      E             dE          RMSdq      gap      omega  full diag
   1    -10.6859316 -0.106859E+02  0.511E-05    4.44       0.0  T
   2    -10.6859316 -0.604317E-11  0.267E-05    4.44    1249.8  T
   3    -10.6859316 -0.664357E-12  0.170E-05    4.44    1960.8  T
     SCC iter.                  ...        0 min,  0.001 sec
     gradient                   ...        0 min,  0.001 sec
 * total energy  :   -10.5755320 Eh     change       -0.2941292E-10 Eh
   gradient norm :     0.0133417 Eh/α   predicted     0.0000000E+00 (-100.00%)
   displ. norm   :     0.1045187 α      lambda       -0.7513316E-03
   maximum displ.:     0.0687353 α      in ANC's #4, #3, #8, ...

........................................................................
.............................. CYCLE    2 ..............................
........................................................................

 iter      E             dE          RMSdq      gap      omega  full diag
   1    -10.6902892 -0.106903E+02  0.138E-01    4.47       0.0  T
   2    -10.6902909 -0.173912E-05  0.769E-02    4.47       1.0  T
   3    -10.6902914 -0.450251E-06  0.970E-03    4.46       3.4  T
   4    -10.6902915 -0.731793E-07  0.492E-03    4.46       6.8  T
   5    -10.6902915 -0.607982E-08  0.190E-03    4.47      17.5  T
   6    -10.6902915 -0.190636E-08  0.609E-04    4.47      54.7  T
   7    -10.6902915 -0.936815E-10  0.162E-04    4.47     205.4  T
     SCC iter.                  ...        0 min,  0.001 sec
     gradient                   ...        0 min,  0.001 sec
 * total energy  :   -10.5759569 Eh     change       -0.4248570E-03 Eh
   gradient norm :     0.0042335 Eh/α   predicted    -0.3797698E-03 ( -10.61%)
   displ. norm   :     0.0158435 α      lambda       -0.3721678E-04
   maximum displ.:     0.0103668 α      in ANC's #4, #14, #6, ...

........................................................................
.............................. CYCLE    3 ..............................
........................................................................

 iter      E             dE          RMSdq      gap      omega  full diag
   1    -10.6916295 -0.106916E+02  0.243E-02    4.47       0.0  T
   2    -10.6916298 -0.261301E-06  0.122E-02    4.47       2.7  T
   3    -10.6916298 -0.237007E-07  0.315E-03    4.47      10.6  T
   4    -10.6916298 -0.202108E-08  0.112E-03    4.47      29.9  T
   5    -10.6916298 -0.356957E-09  0.412E-04    4.47      80.9  T
   6    -10.6916298 -0.385842E-10  0.200E-04    4.47     166.3  T
     SCC iter.                  ...        0 min,  0.001 sec
     gradient                   ...        0 min,  0.001 sec
 * total energy  :   -10.5759788 Eh     change       -0.2185653E-04 Eh
   gradient norm :     0.0014405 Eh/α   predicted    -0.1861202E-04 ( -14.84%)
   displ. norm   :     0.0047167 α      lambda       -0.3874658E-05
   maximum displ.:     0.0037775 α      in ANC's #16, #8, #6, ...

........................................................................
.............................. CYCLE    4 ..............................
........................................................................

 iter      E             dE          RMSdq      gap      omega  full diag
   1    -10.6919196 -0.106919E+02  0.122E-02    4.48       0.0  T
   2    -10.6919197 -0.759311E-07  0.636E-03    4.48       5.2  T
   3    -10.6919197 -0.994175E-08  0.135E-03    4.48      24.6  T
   4    -10.6919197 -0.830605E-09  0.492E-04    4.48      67.8  T
   5    -10.6919197 -0.301215E-09  0.151E-04    4.48     220.4  T
     SCC iter.                  ...        0 min,  0.001 sec
     gradient                   ...        0 min,  0.001 sec
 * total energy  :   -10.5759810 Eh     change       -0.2212486E-05 Eh
   gradient norm :     0.0004612 Eh/α   predicted    -0.1937533E-05 ( -12.43%)
   displ. norm   :     0.0016158 α      lambda       -0.3870680E-06
   maximum displ.:     0.0010707 α      in ANC's #14, #4, #16, ...

........................................................................
.............................. CYCLE    5 ..............................
........................................................................

 iter      E             dE          RMSdq      gap      omega  full diag
   1    -10.6917250 -0.106917E+02  0.421E-03    4.47       0.0  T
   2    -10.6917250 -0.651260E-08  0.226E-03    4.47      14.8  T
   3    -10.6917250 -0.598071E-09  0.534E-04    4.47      62.5  T
   4    -10.6917250 -0.164034E-09  0.194E-04    4.47     171.7  T
     SCC iter.                  ...        0 min,  0.001 sec
     gradient                   ...        0 min,  0.001 sec
 * total energy  :   -10.5759812 Eh     change       -0.2213104E-06 Eh
   gradient norm :     0.0001014 Eh/α   predicted    -0.1936653E-06 ( -12.49%)
   displ. norm   :     0.0014273 α      lambda       -0.4975946E-07
   maximum displ.:     0.0012136 α      in ANC's #4, #6, #8, ...

........................................................................
.............................. CYCLE    6 ..............................
........................................................................

 iter      E             dE          RMSdq      gap      omega  full diag
   1    -10.6917328 -0.106917E+02  0.239E-03    4.48       0.0  T
   2    -10.6917328 -0.984443E-09  0.125E-03    4.48      26.8  T
   3    -10.6917328 -0.604405E-10  0.356E-04    4.48      93.6  T
   4    -10.6917328 -0.118243E-09  0.166E-04    4.48     200.2  T
     SCC iter.                  ...        0 min,  0.001 sec
     gradient                   ...        0 min,  0.001 sec
 * total energy  :   -10.5759812 Eh     change       -0.1610530E-07 Eh
   gradient norm :     0.0000523 Eh/α   predicted    -0.2603185E-07 (  61.64%)
   displ. norm   :     0.0007141 α      lambda       -0.1563104E-07
   maximum displ.:     0.0006298 α      in ANC's #4, #6, #8, ...

   *** GEOMETRY OPTIMIZATION CONVERGED AFTER 6 ITERATIONS ***

------------------------------------------------------------------------
 total energy gain   :        -0.0004492 Eh       -0.2819 kcal/mol
 total RMSD          :         0.0389674 a0        0.0206 Å
 total power (kW/mol):        -0.1965464 (step) -100.9591 (real)
------------------------------------------------------------------------

 ANCopt (total)                0 d,  0 h,  0 min,  0.012 sec
 optimizer setup                ...        0 min,  0.000 sec (  0.375%)
 model hessian                  ...        0 min,  0.000 sec (  2.637%)
 ANC generation                 ...        0 min,  0.000 sec (  0.630%)
 coordinate transformation      ...        0 min,  0.000 sec (  0.120%)
 single point calculation       ...        0 min,  0.010 sec ( 89.312%)
 optimization log               ...        0 min,  0.000 sec (  1.584%)
 hessian update                 ...        0 min,  0.000 sec (  0.150%)
 rational function              ...        0 min,  0.000 sec (  1.475%)

================
 final structure:
================
$coord
       -3.20238450743355        0.77187743142034       -0.03777012036496      C
       -1.16670912307883       -1.23498103751050        0.13746884678020      C
        1.96430098305675        0.26362841822648       -0.05069223375762      S
       -3.05303509618824        1.79027217477153       -1.81702126886163      H
       -5.06009594207207       -0.10240641821632        0.07190548639749      H
       -3.01273769269270        2.12095073639142        1.50145101281451      H
       -1.30694932484345       -2.57455826281932       -1.42091083775700      H
       -1.26563151299061       -2.23982023620137        1.93279428718598      H
        3.28260683345541       -1.87016229510854        0.14574780986741      H
$end

 Bond Distances (Angstroems)
 ---------------------------
C1-C2=1.5155         C1-H4=1.0877         C1-H5=1.0880         C1-H6=1.0877         C2-C1=1.5155         C2-S3=1.8396         
C2-H7=1.0900         C2-H8=1.0900         S3-C2=1.8396         S3-H9=1.3313         H4-C1=1.0877         H5-C1=1.0880         
H6-C1=1.0877         H7-C2=1.0900         H8-C2=1.0900         H9-S3=1.3313         
 C  H  Rav=1.0887 sigma=0.0011  Rmin=1.0877  Rmax=1.0900     5
 C  C  Rav=1.5155 sigma=0.0000  Rmin=1.5155  Rmax=1.5155     1
 S  H  Rav=1.3313 sigma=0.0000  Rmin=1.3313  Rmax=1.3313     1
 S  C  Rav=1.8396 sigma=0.0000  Rmin=1.8396  Rmax=1.8396     1

 selected bond angles (degree)
 --------------------
H4-C1-C2=110.40                H5-C1-C2=109.94                H5-C1-H4=108.81                H6-C1-C2=110.40                
H6-C1-H4=108.44                H6-C1-H5=108.81                S3-C2-C1=109.56                H7-C2-C1=111.16                
H7-C2-S3=107.50                H8-C2-C1=111.16                H8-C2-S3=107.50                H8-C2-H7=109.81                
H9-S3-C2= 95.86                

 selected dihedral angles (degree)
 ---------------------------------
S3-C2-C1-H4= 59.93            S3-C2-C1-H5=179.99            S3-C2-C1-H6=300.04            H7-C2-C1-H4=301.26            
H7-C2-C1-H5= 61.31            H7-C2-C1-H6=181.37            H8-C2-C1-H4=178.60            H8-C2-C1-H5=298.66            
H8-C2-C1-H6= 58.72            H9-S3-C2-C1=180.01            H9-S3-C2-H7=300.92            H9-S3-C2-H8= 59.09            
           -------------------------------------------------
          |                Final Singlepoint                |
           -------------------------------------------------

          ...................................................
          :                      SETUP                      :
          :.................................................:
          :  # basis functions                  24          :
          :  # atomic orbitals                  23          :
          :  # shells                           13          :
          :  # electrons                        20          :
          :  max. iterations                   250          :
          :  Hamiltonian                  GFN2-xTB          :
          :  restarted?                      false          :
          :  GBSA solvation                  false          :
          :  PC potential                    false          :
          :  electronic temp.          300.0000000     K    :
          :  accuracy                    1.0000000          :
          :  -> integral cutoff          0.2500000E+02      :
          :  -> integral neglect         0.1000000E-07      :
          :  -> SCF convergence          0.1000000E-05 Eh   :
          :  -> wf. convergence          0.1000000E-03 e    :
          :  Broyden damping             0.4000000          :
          :  net charge                          0          :
          :  unpaired electrons                  0          :
          ...................................................

 iter      E             dE          RMSdq      gap      omega  full diag
   1    -10.6917328 -0.106917E+02  0.333E-05    4.48       0.0  T
   2    -10.6917328 -0.325073E-12  0.210E-05    4.48    1588.7  T
   3    -10.6917328  0.355271E-14  0.733E-06    4.48    4545.0  T

   *** convergence criteria satisfied after 3 iterations ***

         #    Occupation            Energy/Eh            Energy/eV
      -------------------------------------------------------------
         1        2.0000           -0.7100398             -19.3212
       ...           ...                  ...                  ...
         4        2.0000           -0.5235949             -14.2477
         5        2.0000           -0.5194530             -14.1350
         6        2.0000           -0.4909470             -13.3593
         7        2.0000           -0.4681705             -12.7396
         8        2.0000           -0.4591025             -12.4928
         9        2.0000           -0.4476975             -12.1825
        10        2.0000           -0.3679366             -10.0121 (HOMO)
        11                         -0.2034693              -5.5367 (LUMO)
        12                         -0.1202581              -3.2724
        13                         -0.0171321              -0.4662
        14                         -0.0076965              -0.2094
        15                          0.0117284               0.3191
       ...                                ...                  ...
        23                          0.5265091              14.3270
      -------------------------------------------------------------
                  HL-Gap            0.1644672 Eh            4.4754 eV
             Fermi-level           -0.2857030 Eh           -7.7744 eV

 SCC (total)                   0 d,  0 h,  0 min,  0.001 sec
 SCC setup                      ...        0 min,  0.000 sec (  1.746%)
 Dispersion                     ...        0 min,  0.000 sec (  0.711%)
 classical contributions        ...        0 min,  0.000 sec (  0.336%)
 integral evaluation            ...        0 min,  0.000 sec ( 22.435%)
 iterations                     ...        0 min,  0.000 sec ( 27.440%)
 molecular gradient             ...        0 min,  0.001 sec ( 44.340%)
 printout                       ...        0 min,  0.000 sec (  2.535%)

         :::::::::::::::::::::::::::::::::::::::::::::::::::::
         ::                     SUMMARY                     ::
         :::::::::::::::::::::::::::::::::::::::::::::::::::::
         :: total energy             -10.575981211802 Eh    ::
         :: gradient norm              0.000052226484 Eh/a0 ::
         :: HOMO-LUMO gap              4.475381521469 eV    ::
         ::.................................................::
         :: SCC energy               -10.691732101027 Eh    ::
         :: -> isotropic ES            0.005311160458 Eh    ::
         :: -> anisotropic ES          0.001866584362 Eh    ::
         :: -> anisotropic XC          0.007893626927 Eh    ::
         :: -> dispersion             -0.003768475233 Eh    ::
         :: repulsion energy           0.115750889225 Eh    ::
         :: add. restraining           0.000000000000 Eh    ::
         :: total charge              -0.000000000000 e     ::
         :::::::::::::::::::::::::::::::::::::::::::::::::::::

           ------------------------------------------------- 
          |                Numerical Hessian                |
           ------------------------------------------------- 
step length          :   0.00500
SCC accuracy         :   0.30000
Hessian scale factor :   1.00000
frozen atoms in %    :   0.00000    0
RMS gradient         :   0.00005
estimated CPU  time      0.00 min
estimated wall time      0.00 min

writing file <hessian>, containing the non-mass-weighted Hessian matrix in atomic units (Eₕ/Bohr²).

 projected vibrational frequencies (cm⁻¹)
eigval :       -0.00    -0.00    -0.00     0.00     0.00     0.00
eigval :      150.54   219.22   288.47   681.23   802.16   825.13
eigval :     1024.21  1026.77  1101.51  1226.15  1253.16  1407.80
eigval :     1452.83  1484.81  1495.08  2435.17  2977.28  2984.61
eigval :     3029.21  3039.02  3043.11
           -------------------------------------------------
          |                Property Printout                |
           -------------------------------------------------

    * Orbital Energies and Occupations

         #    Occupation            Energy/Eh            Energy/eV
      -------------------------------------------------------------
         1        2.0000           -0.7100398             -19.3212
         2        2.0000           -0.6275282             -17.0759
         3        2.0000           -0.5821941             -15.8423
         4        2.0000           -0.5235949             -14.2477
         5        2.0000           -0.5194531             -14.1350
         6        2.0000           -0.4909470             -13.3593
         7        2.0000           -0.4681705             -12.7396
         8        2.0000           -0.4591025             -12.4928
         9        2.0000           -0.4476976             -12.1825
        10        2.0000           -0.3679366             -10.0121 (HOMO)
        11                         -0.2034694              -5.5367 (LUMO)
        12                         -0.1202581              -3.2724
        13                         -0.0171321              -0.4662
        14                         -0.0076965              -0.2094
        15                          0.0117283               0.3191
        16                          0.1043515               2.8395
        17                          0.1511581               4.1132
        18                          0.1578579               4.2955
        19                          0.1764325               4.8010
        20                          0.2288065               6.2261
        21                          0.2311555               6.2901
       ...                                ...                  ...
        23                          0.5265091              14.3270
      -------------------------------------------------------------
                  HL-Gap            0.1644672 Eh            4.4754 eV
             Fermi-level           -0.2857030 Eh           -7.7744 eV

     #   Z          covCN         q      C6AA      α(0)
     1   6          3.790    -0.100    22.416     6.743
     2   6          3.792     0.008    20.455     6.441
     3  16          1.930    -0.292   153.698    20.866
     4   1          0.925     0.050     2.317     2.381
     5   1          0.925     0.042     2.421     2.433
     6   1          0.925     0.050     2.317     2.381
     7   1          0.925     0.043     2.413     2.429
     8   1          0.925     0.043     2.413     2.429
     9   1          0.923     0.156     1.350     1.817

 Mol. C6AA /au·bohr⁶  :        927.329122
 Mol. C8AA /au·bohr⁸  :      27880.983251
 Mol. α(0) /au        :         47.919584


Wiberg/Mayer (AO) data.
largest (>0.10) Wiberg bond orders for each atom

 ---------------------------------------------------------------------------
     #   Z sym  total        # sym  WBO       # sym  WBO       # sym  WBO
 ---------------------------------------------------------------------------
     1   6      3.994 --     2      1.029     6      0.986     4      0.986
                             5      0.980
     2   6      3.978 --     1      1.029     3      0.986     8      0.979
                             7      0.979
     3  16      1.995 --     2      0.986     9      0.966
     4   1      0.997 --     1      0.986
     5   1      0.998 --     1      0.980
     6   1      0.997 --     1      0.986
     7   1      0.998 --     2      0.979
     8   1      0.998 --     2      0.979
     9   1      0.976 --     3      0.966
 ---------------------------------------------------------------------------

Topologies differ in total number of bonds
Writing topology from bond orders to xtbtopo.mol

molecular dipole:
                 x           y           z       tot (Debye)
 q only:       -0.378      -0.470       0.051
   full:       -0.551      -0.727       0.079       2.327
molecular quadrupole (traceless):
                xx          xy          yy          xz          yz          zz
 q only:        0.742      -1.742       0.256       0.152      -0.104      -0.998
  q+dip:       -0.805      -2.494       0.682       0.260      -0.025       0.123
   full:        0.089      -2.587       0.917       0.244      -0.161      -1.006

           -------------------------------------------------
          |                Geometry Summary                 |
           -------------------------------------------------

      molecular mass/u    :       62.1339037
   center of mass at/Å    :        0.0000878      -0.0000646      -0.0000914
  moments of inertia/u·Å² :        0.1743940E+02   0.9334513E+02   0.1044383E+03
rotational constants/cm⁻¹ :        0.9666405E+00   0.1805947E+00   0.1614124E+00

 * 7 selected distances

     #   Z          #   Z                                           value/Å
     1   6          2   6                                         1.5155330 (max)
Molecule has the following symmetry elements: (sigma) 
It seems to be the Cs point group
     1   6          4   1                                         1.0877351
     1   6          5   1                                         1.0880344
     1   6          6   1                                         1.0877349 (min)
     2   6          7   1                                         1.0899872
     2   6          8   1                                         1.0899871
     3  16          9   1                                         1.3313391

 * 3 distinct bonds (by element types)

   Z      Z             #   av. dist./Å        max./Å        min./Å
   1 H    6 C           5     1.0886957     1.0899872     1.0877349
   6 C    6 C           1     1.5155330     1.5155330     1.5155330
   1 H   16 S           1     1.3313391     1.3313391     1.3313391

           -------------------------------------------------
          |               Frequency Printout                |
           -------------------------------------------------
 projected vibrational frequencies (cm⁻¹)
eigval :       -0.00    -0.00    -0.00     0.00     0.00     0.00
eigval :      150.54   219.22   288.47   681.23   802.16   825.13
eigval :     1024.21  1026.77  1101.51  1226.15  1253.16  1407.80
eigval :     1452.83  1484.81  1495.08  2435.17  2977.28  2984.61
eigval :     3029.21  3039.02  3043.11
 reduced masses (amu)
    1:      2.30    2:      7.38    3:      3.43    4:      5.10    5:      5.86    6:      3.30
    7:      1.07    8:      1.09    9:      3.20   10:      4.14   11:      1.12   12:      1.11
   13:      1.17   14:      1.52   15:      2.65   16:      1.26   17:      1.27   18:      1.21
   19:      1.11   20:      1.05   21:      1.06   22:      1.04   23:      1.10   24:      1.05
   25:      1.08   26:      1.10   27:      1.04
 IR intensities (km·mol⁻¹)
    1:      2.17    2:      0.18    3:      3.04    4:      2.13    5:      0.26    6:      3.90
    7:     37.70    8:      0.00    9:      3.55   10:      4.31   11:      3.01   12:      6.44
   13:      2.64   14:      3.59   15:      0.45   16:      0.01   17:     29.37   18:      7.13
   19:      0.76   20:      5.64   21:      2.62   22:    135.33   23:     16.14   24:     11.78
   25:     30.78   26:     24.96   27:     12.54
 Raman intensities (Ä⁴*amu⁻¹)
    1:      0.00    2:      0.00    3:      0.00    4:      0.00    5:      0.00    6:      0.00
    7:      0.00    8:      0.00    9:      0.00   10:      0.00   11:      0.00   12:      0.00
   13:      0.00   14:      0.00   15:      0.00   16:      0.00   17:      0.00   18:      0.00
   19:      0.00   20:      0.00   21:      0.00   22:      0.00   23:      0.00   24:      0.00
   25:      0.00   26:      0.00   27:      0.00
 output can be read by thermo (or use thermo option).
 writing <g98.out> molden fake output.
 recommended (thermochemical) frequency scaling factor: 1.0
           -------------------------------------------------
          |             Thermodynamic Functions             |
           -------------------------------------------------

cs  symmetry found (for desy threshold:  0.10E+00) used in thermo

          ...................................................
          :                      SETUP                      :
          :.................................................:
          :  # frequencies                          21      :
          :  # imaginary freq.                       0      :
          :  linear?                             false      :
          :  only rotor calc.                    false      :
          :  symmetry                               cs      :
          :  rotational number                       1      :
          :  scaling factor                  1.0000000      :
          :  rotor cutoff                    0.0000000 cm⁻¹ :
          :  imag. cutoff                 -100.0000000 cm⁻¹ :
          :.................................................:

    mode    ω/cm⁻¹     T·S(HO)/kcal·mol⁻¹    T·S(FR)/kcal·mol⁻¹   T·S(vib)
   ------------------------------------------------------------------------
       1    150.54    -0.79469 (100.00%)    -0.72957 (  0.00%)    -0.79469
       2    219.22    -0.58601 (100.00%)    -0.61837 (  0.00%)    -0.58601
       3    288.47    -0.44213 (100.00%)    -0.53712 (  0.00%)    -0.44213
   ------------------------------------------------------------------------

   temp. (K)  partition function   enthalpy   heat capacity  entropy
                                   cal/mol     cal/K/mol   cal/K/mol   J/K/mol
 298.15  VIB   4.39                 1268.666      9.222      7.194
         ROT  0.315E+05              888.727      2.981     23.564
         INT  0.138E+06             2157.393     12.202     30.758
         TR   0.150E+26             1481.212      4.968     38.300
         TOT                        3638.6055    17.1704    69.0571   288.9347

       T/K    H(0)-H(T)+PV         H(T)/Eh          T*S/Eh         G(T)/Eh
   ------------------------------------------------------------------------
    298.15    0.579849E-02    0.785802E-01    0.328112E-01    0.457690E-01
   ------------------------------------------------------------------------

         :::::::::::::::::::::::::::::::::::::::::::::::::::::
         ::                  THERMODYNAMIC                  ::
         :::::::::::::::::::::::::::::::::::::::::::::::::::::
         :: total free energy         -10.530212252366 Eh   ::
         ::.................................................::
         :: total energy              -10.575981211802 Eh   ::
         :: zero point energy           0.072781708280 Eh   ::
         :: G(RRHO) w/o ZPVE           -0.027012748844 Eh   ::
         :: G(RRHO) contrib.            0.045768959436 Eh   ::
         :::::::::::::::::::::::::::::::::::::::::::::::::::::

optimized geometry written to: xtbopt.coord


           -------------------------------------------------
          | TOTAL ENERGY              -10.575981211802 Eh   |
          | TOTAL ENTHALPY            -10.497401016601 Eh   |
          | TOTAL FREE ENERGY         -10.530212252366 Eh   |
          | GRADIENT NORM               0.000052226679 Eh/α |
          | HOMO-LUMO GAP               4.475381123477 eV   |
           -------------------------------------------------

------------------------------------------------------------------------
 * finished run on 2025/04/09 at 01:25:54.535     
------------------------------------------------------------------------
 total:
 * wall-time:     0 d,  0 h,  0 min,  0.098 sec
 *  cpu-time:     0 d,  0 h,  0 min,  0.098 sec
 * ratio c/w:     0.994 speedup
 SCF:
 * wall-time:     0 d,  0 h,  0 min,  0.003 sec
 *  cpu-time:     0 d,  0 h,  0 min,  0.003 sec
 * ratio c/w:     0.994 speedup
 ANC optimizer:
 * wall-time:     0 d,  0 h,  0 min,  0.014 sec
 *  cpu-time:     0 d,  0 h,  0 min,  0.013 sec
 * ratio c/w:     0.993 speedup
 analytical hessian:
 * wall-time:     0 d,  0 h,  0 min,  0.078 sec
 *  cpu-time:     0 d,  0 h,  0 min,  0.078 sec
 * ratio c/w:     0.994 speedup

