
                                 *****************
                                 * O   R   C   A *
                                 *****************

                                            #,                                       
                                            ###                                      
                                            ####                                     
                                            #####                                    
                                            ######                                   
                                           ########,                                 
                                     ,,################,,,,,                         
                               ,,#################################,,                 
                          ,,##########################################,,             
                       ,#########################################, ''#####,          
                    ,#############################################,,   '####,        
                  ,##################################################,,,,####,       
                ,###########''''           ''''###############################       
              ,#####''   ,,,,##########,,,,          '''####'''          '####       
            ,##' ,,,,###########################,,,                        '##       
           ' ,,###''''                  '''############,,,                           
         ,,##''                                '''############,,,,        ,,,,,,###''
      ,#''                                            '''#######################'''  
     '                                                          ''''####''''         
             ,#######,   #######,   ,#######,      ##                                
            ,#'     '#,  ##    ##  ,#'     '#,    #''#        ,####,   ,####,        
            ##       ##  ##   ,#'  ##            #'  '#       #'       #'  '#        
            ##       ##  #######   ##           ,######,      #####,   #    #        
            '#,     ,#'  ##    ##  '#,     ,#' ,#      #,     #,   #   #,  ,#        
             '#######'   ##     ##  '#######'  #'      '#     '####' # '####'        



                #########################################################
                #                        -***-                          #
                #          Department of theory and spectroscopy        #
                #                                                       #
                #                      Frank Neese                      #
                #                                                       #
                #     Directorship, Architecture, Infrastructure        #
                #                    SHARK, DRIVERS                     #
                #        Core code/Algorithms in most modules           #
                #                                                       #
                #        Max Planck Institute fuer Kohlenforschung      #
                #                Kaiser Wilhelm Platz 1                 #
                #                 D-45470 Muelheim/Ruhr                 #
                #                      Germany                          #
                #                                                       #
                #                  All rights reserved                  #
                #                        -***-                          #
                #########################################################


                         Program Version 6.0.1  -  RELEASE   -


 With contributions from (in alphabetic order):
[Max-Planck-Institut fuer Kohlenforschung]                               
  Daniel Aravena         : Magnetic Suceptibility                        
  Michael Atanasov       : Ab Initio Ligand Field Theory (pilot matlab implementation)
  Alexander A. Auer      : GIAO ZORA, VPT2 properties, NMR spectrum      
  Ute Becker             : All parallelization in ORCA, NUMFREQ, NUMCALC 
  Giovanni Bistoni       : ED, misc. LED, open-shell LED, HFLD           
  Martin Brehm           : Molecular dynamics                            
  Dmytro Bykov           : pre 5.0 version of the SCF Hessian            
  Marcos Casanova-Páez   : Triplet and SCS-CIS(D). UHF-(DLPNO)-IP/EA/STEOM-CCSD. UHF-CVS-IP/STEOM-CCSD   
  Vijay G. Chilkuri      : MRCI spin determinant printing, contributions to CSF-ICE 
  Pauline Colinet        : FMM embedding                                 
  Dipayan Datta          : RHF DLPNO-CCSD density                        
  Achintya Kumar Dutta   : EOM-CC, STEOM-CC                              
  Nicolas Foglia         : Exact transition moments, OPA infrastructure, MCD improvements    
  Dmitry Ganyushin       : Spin-Orbit,Spin-Spin,Magnetic field MRCI      
  Miquel Garcia-Rates    : C-PCM and meta-GGA Hessian, CCSD/C-PCM, Gaussian charge scheme 
  Tiago L. C. Gouveia    : GS-ROHF, GS-ROCIS                             
  Yang Guo               : DLPNO-NEVPT2, F12-NEVPT2, CIM, IAO-localization        
  Andreas Hansen         : Spin unrestricted coupled pair/coupled cluster methods 
  Ingolf Harden          : AUTO-CI MPn and infrastructure                
  Benjamin Helmich-Paris : MC-RPA, TRAH-(SCF,CASSCF), AVAS, COSX integrals, SCF dyn. polar. 
  Lee Huntington         : MR-EOM, pCC                                   
  Robert Izsak           : Overlap fitted RIJCOSX, COSX-SCS-MP3, EOM     
  Riya Kayal             : Wick's Theorem for AUTO-CI, AUTO-CI UHF-CCSDT 
  Emily Kempfer          : AUTO-CI, RHF CISDT and CCSDT                  
  Christian Kollmar      : KDIIS, OOCD, Brueckner-CCSD(T), CCSD density, CASPT2, CASPT2-K, improved NEVPT2 
  Axel Koslowski         : Symmetry handling                             
  Simone Kossmann        : meta-GGA functionals, TD-DFT gradient, OOMP2, (MP2 Hessian; deprecated post 5.0) 
  Lucas Lang             : DCDCAS                                        
  Marvin Lechner         : AUTO-CI (C++ implementation), FIC-MRCC        
  Spencer Leger          : CASSCF response                               
  Dagmar Lenk            : GEPOL surface, SMD, ORCA-2-JSON               
  Dimitrios Liakos       : Extrapolation schemes; Compound Job, initial MDCI parallelization 
  Dimitrios Manganas     : Further ROCIS development; embedding schemes. LFT, Crystal Embedding 
  Dimitrios Pantazis     : SARC Basis sets                               
  Anastasios Papadopoulos: AUTO-CI, single reference methods and gradients 
  Taras Petrenko         : pre 6.0 DFT Hessian and TD-DFT gradient, (ASA, deprecated), ECA, 1-Electron XAS/XES, NRVS 
  Peter Pinski           : DLPNO-MP2, DLPNO-MP2 Gradient                 
  Christoph Reimann      : Effective Core Potentials                     
  Marius Retegan         : Local ZFS, SOC                                
  Christoph Riplinger    : Optimizer, TS searches, QM/MM, DLPNO-CCSD(T), (RO)-DLPNO pert. Triples 
  Michael Roemelt        : Original ROCIS implementation                 
  Masaaki Saitow         : Open-shell DLPNO-CCSD energy and density      
  Barbara Sandhoefer     : DKH picture change effects                    
  Kantharuban Sivalingam : CASSCF convergence/infrastructure, NEVPT2 and variants, FIC-MRCI 
  Bernardo de Souza      : ESD, SOC TD-DFT                               
  Georgi L. Stoychev     : AutoAux, RI-MP2 NMR, DLPNO-MP2 response, X2C  
  Van Anh Tran           : RI-MP2 g-tensors                              
  Willem Van den Heuvel  : Paramagnetic NMR                              
  Zikuan Wang            : NOTCH, Electric field optimization            
  Frank Wennmohs         : Technical directorship and infrastructure     
  Hang Xu                : AUTO-CI-Response properties                   
                                                                         
[FACCTs GmbH]                                                            
  Markus Bursch, Miquel Garcia-Rates, Christoph Riplinger, Bernardo de Souza, Georgi L. Stoychev 
                                                                 
  APM, Basis sets (HGBS, AHGBS, def-TZVP (Ac-Lr), def2-XVPD (La-Lu)), CI-OPT, improved COSX, DLPNO-Multilevel,           
  DOCKER, DRACO, updates on ESD, GOAT, IRC, LR-CPCM, MBIS, meta-GGA TD-DFT gradient, ML-optimized integration grids, 
  MM, NACMEs, nearIR, NEB, NEB-TS, NL-DFT gradient (VV10), 2- and 3-layer-ONIOM, interface openCOSMO-RS, QMMM,   
  Crystal-QMMM, SF, symmetry and pop. for TD-DFT, r2SCAN hybrids, SOLVATOR                                   
                                                                         
[Other institutions]                                                     
  V. Asgeirsson          : NEB                                           
  Christoph Bannwarth    : sTDA-DFT, sTD-DFT, PBEh-3c, B97-3c, D3        
  Sebastian Ehlert       : rSCAN, r2SCAN, r2SCAN-3c, D4, dhf basis sets  
  Marvin Friede          : D4 for Fr, Ra, Ac-Lr                          
  Lars Goerigk           : TD-DFT with DH, B97 family of functionals     
  Stefan Grimme          : VdW corrections, initial TS optimization, DFT functionals, gCP, sTDA/sTD-DF 
  Waldemar Hujo          : DFT-NL                                        
  H. Jonsson             : NEB                                           
  Holger Kruse           : gCP                                           
  Marcel Mueller         : wB97X-3c, vDZP basis set                      
  Hagen Neugebauer       : wr2SCAN                                       
  Tobias Risthaus        : range-separated hybrid DFT                    
  Lukas Wittmann         : regularized MP2, r2SCAN double-hybrids, wr2SCAN        
                                                                         
We gratefully acknowledge several colleagues who have allowed us to      
interface, adapt or use parts of their codes:                            
  Ed Valeev, F. Pavosevic, A. Kumar             : LibInt (2-el integral package), F12 methods 
  Garnet Chan, S. Sharma, J. Yang, R. Olivares  : DMRG                   
  Ulf Ekstrom                                   : XCFun DFT Library      
  Mihaly Kallay                                 : mrcc  (arbitrary order and MRCC methods)
  Frank Weinhold                                : gennbo (NPA and NBO analysis)           
  Simon Mueller                                 : openCOSMO-RS                            
  Christopher J. Cramer and Donald G. Truhlar   : smd solvation model                     
  S Lehtola, MJT Oliveira, MAL Marques          : LibXC Library                           
  Liviu Ungur et al                             : ANISO software                          


 Your calculation uses the libint2 library for the computation of 2-el integrals
 For citations please refer to: http://libint.valeyev.net

 Your ORCA version has been built with support for libXC version: 6.2.2
 For citations please refer to: https://libxc.gitlab.io

 This ORCA versions uses:
   CBLAS   interface :  Fast vector & matrix operations
   LAPACKE interface :  Fast linear algebra routines
   SCALAPACK package :  Parallel linear algebra routines
   Shared memory     :  Shared parallel matrices
   BLAS/LAPACK       :  OpenBLAS 0.3.27  USE64BITINT DYNAMIC_ARCH NO_AFFINITY Zen SINGLE_THREADED
        Core in use  :  Zen
   Copyright (c) 2011-2014, The OpenBLAS Project


Your calculation utilizes the geometrical counterpoise correction gCP
Please cite in your paper:
H.Kruse, S. Grimme J.Chem.Phys., 136, (2012), 154101 
   

Your calculation utilizes the atom-pairwise dispersion correction
based on EEQ partial charges (D4)


================================================================================

----- Orbital basis set information -----
Your calculation utilizes the basis: def2-SV(P)
   F. Weigend and R. Ahlrichs, Phys. Chem. Chem. Phys. 7, 3297 (2005).

----- AuxJ basis set information -----
Your calculation utilizes the auxiliary basis: def2/J
   F. Weigend, Phys. Chem. Chem. Phys. 8, 1057 (2006).

================================================================================
                                        WARNINGS
                       Please study these warnings very carefully!
================================================================================

WARNING: Old DensityContainer found on disk!
         Will remove this file - 
         If you want to keep old densities, please start your calculation with a different basename. 


================================================================================
                                       INPUT FILE
================================================================================
NAME = sp.inp
|  1> ! pbe def2-sv(p) def2/J RI DEFGRID1 loosescf d4 GCP(DFT/SV(P)) printgap
|  2> %output
|  3>     printlevel normal
|  4> end
|  5> * xyz 0 1
|  6> C -1.9009201331 -0.5538799653 0.0637031348
|  7> C -0.9555490841 0.4792830641 -0.519007837
|  8> S 0.6474204086 0.5350681021 0.3550478783
|  9> C 1.4421541297 -0.9792664522 -0.2786076079
| 10> H -1.4848227371 -1.5562317012 -0.0177931937
| 11> H -2.0834521398 -0.3431198698 1.1146709546
| 12> H -2.8501956232 -0.5313867964 -0.4684228857
| 13> H -1.3628830386 1.4834073621 -0.4071999147
| 14> H -0.7506800205 0.2957254491 -1.5740268035
| 15> H 1.7570226225 -1.5845034165 0.5656747557
| 16> H 2.3050928842 -0.6982723291 -0.8752760272
| 17> H 0.730499674 -1.5267067183 -0.8853143768
| 18> *
| 19> 
| 20>                          ****END OF INPUT****
================================================================================

                       ****************************
                       * Single Point Calculation *
                       ****************************

---------------------------------
CARTESIAN COORDINATES (ANGSTROEM)
---------------------------------
  C     -1.900920   -0.553880    0.063703
  C     -0.955549    0.479283   -0.519008
  S      0.647420    0.535068    0.355048
  C      1.442154   -0.979266   -0.278608
  H     -1.484823   -1.556232   -0.017793
  H     -2.083452   -0.343120    1.114671
  H     -2.850196   -0.531387   -0.468423
  H     -1.362883    1.483407   -0.407200
  H     -0.750680    0.295725   -1.574027
  H      1.757023   -1.584503    0.565675
  H      2.305093   -0.698272   -0.875276
  H      0.730500   -1.526707   -0.885314

----------------------------
CARTESIAN COORDINATES (A.U.)
----------------------------
  NO LB      ZA    FRAG     MASS         X           Y           Z
   0 C     6.0000    0    12.011   -3.592218   -1.046681    0.120381
   1 C     6.0000    0    12.011   -1.805726    0.905714   -0.980783
   2 S    16.0000    0    32.060    1.223447    1.011132    0.670943
   3 C     6.0000    0    12.011    2.725276   -1.850545   -0.526492
   4 H     1.0000    0     1.008   -2.805908   -2.940852   -0.033624
   5 H     1.0000    0     1.008   -3.937154   -0.648403    2.106423
   6 H     1.0000    0     1.008   -5.386089   -1.004176   -0.885191
   7 H     1.0000    0     1.008   -2.575476    2.803234   -0.769496
   8 H     1.0000    0     1.008   -1.418580    0.558840   -2.974480
   9 H     1.0000    0     1.008    3.320292   -2.994278    1.068970
  10 H     1.0000    0     1.008    4.355994   -1.319543   -1.654032
  11 H     1.0000    0     1.008    1.380444   -2.885058   -1.673002

--------------------------------
INTERNAL COORDINATES (ANGSTROEM)
--------------------------------
 C      0   0   0     0.000000000000     0.00000000     0.00000000
 C      1   0   0     1.516807285802     0.00000000     0.00000000
 S      2   1   0     1.826635310739   112.57681522     0.00000000
 C      3   2   1     1.823822936853   100.99884512    75.05556217
 H      1   2   3     1.088341718845   111.11685777   298.41382843
 H      1   2   3     1.087322909526   110.11618414    58.49043400
 H      1   2   3     1.088479673878   109.97868416   178.36912443
 H      2   1   3     1.089351902652   110.81611160   243.33682233
 H      2   1   3     1.090288838299   111.97365131   121.46227693
 H      4   3   2     1.085479921601   108.61015570   233.84746185
 H      4   3   2     1.086109660129   108.80008054   114.19009677
 H      4   3   2     1.083621711066   109.13630101   353.93913987

---------------------------
INTERNAL COORDINATES (A.U.)
---------------------------
 C      0   0   0     0.000000000000     0.00000000     0.00000000
 C      1   0   0     2.866350368102     0.00000000     0.00000000
 S      2   1   0     3.451840483848   112.57681522     0.00000000
 C      3   2   1     3.446525867416   100.99884512    75.05556217
 H      1   2   3     2.056667788738   111.11685777   298.41382843
 H      1   2   3     2.054742518143   110.11618414    58.49043400
 H      1   2   3     2.056928485969   109.97868416   178.36912443
 H      2   1   3     2.058576759478   110.81611160   243.33682233
 H      2   1   3     2.060347311256   111.97365131   121.46227693
 H      4   3   2     2.051259775696   108.61015570   233.84746185
 H      4   3   2     2.052449809049   108.80008054   114.19009677
 H      4   3   2     2.047748266687   109.13630101   353.93913987

---------------------
BASIS SET INFORMATION
---------------------
There are 3 groups of distinct atoms

 Group   1 Type C   : 7s4p1d contracted to 3s2p1d pattern {511/31/1}
 Group   2 Type S   : 10s7p1d contracted to 4s3p1d pattern {5311/511/1}
 Group   3 Type H   : 4s contracted to 2s pattern {31}

Atom   0C    basis set group =>   1
Atom   1C    basis set group =>   1
Atom   2S    basis set group =>   2
Atom   3C    basis set group =>   1
Atom   4H    basis set group =>   3
Atom   5H    basis set group =>   3
Atom   6H    basis set group =>   3
Atom   7H    basis set group =>   3
Atom   8H    basis set group =>   3
Atom   9H    basis set group =>   3
Atom  10H    basis set group =>   3
Atom  11H    basis set group =>   3
---------------------------------
AUXILIARY/J BASIS SET INFORMATION
---------------------------------
There are 3 groups of distinct atoms

 Group   1 Type C   : 12s5p4d2f1g contracted to 6s4p3d1f1g pattern {711111/2111/211/2/1}
 Group   2 Type S   : 14s5p5d2f1g contracted to 8s4p3d1f1g pattern {71111111/2111/311/2/1}
 Group   3 Type H   : 5s2p1d contracted to 3s1p1d pattern {311/2/1}

Atom   0C    basis set group =>   1
Atom   1C    basis set group =>   1
Atom   2S    basis set group =>   2
Atom   3C    basis set group =>   1
Atom   4H    basis set group =>   3
Atom   5H    basis set group =>   3
Atom   6H    basis set group =>   3
Atom   7H    basis set group =>   3
Atom   8H    basis set group =>   3
Atom   9H    basis set group =>   3
Atom  10H    basis set group =>   3
Atom  11H    basis set group =>   3

Checking for AutoStart:
The File: sp.gbw exists
Trying to determine its content:
     ... Fine, the file contains calculation information
     ... Fine, the calculation information was read
     ... Fine, the file contains a basis set
     ... Fine, the basis set was read
     ... Fine, the file contains a geometry
     ... Fine, the geometry was read
     ... Fine, the file contains a set of orbitals
     ... Fine, the orbitals can be read
     => possible old guess file was deleted
     => GBW file was renamed to GES file
     => GES file is set as startup file
     => Guess is set to MORead
     ... now leaving AutoStart

------------------------------------------------------------------------------
                             ORCA STARTUP CALCULATIONS
                           -- RI-GTO INTEGRALS CHOSEN --
------------------------------------------------------------------------------
------------------------------------------------------------------------------
                   ___                                                        
                  /   \      - P O W E R E D   B Y -                         
                 /     \                                                     
                 |  |  |   _    _      __       _____    __    __             
                 |  |  |  | |  | |    /  \     |  _  \  |  |  /  |          
                  \  \/   | |  | |   /    \    | | | |  |  | /  /          
                 / \  \   | |__| |  /  /\  \   | |_| |  |  |/  /          
                |  |  |   |  __  | /  /__\  \  |    /   |      \           
                |  |  |   | |  | | |   __   |  |    \   |  |\   \          
                \     /   | |  | | |  |  |  |  | |\  \  |  | \   \       
                 \___/    |_|  |_| |__|  |__|  |_| \__\ |__|  \__/        
                                                                              
                      - O R C A' S   B I G   F R I E N D -                    
                                      &                                       
                       - I N T E G R A L  F E E D E R -                       
                                                                              
 v1 FN, 2020, v2 2021, v3 2022-2024                                           
------------------------------------------------------------------------------


----------------------
SHARK INTEGRAL PACKAGE
----------------------

Number of atoms                             ...     12
Number of basis functions                   ...     76
Number of shells                            ...     42
Maximum angular momentum                    ...      2
Integral batch strategy                     ... SHARK/LIBINT Hybrid
RI-J (if used) integral strategy            ... SPLIT-RIJ (Revised 2003 algorithm where possible)
Printlevel                                  ...      1
Contraction scheme used                     ... SEGMENTED contraction
Prescreening option                         ... SCHWARTZ
   Thresh                                   ... 1.000e-09
   Tcut                                     ... 1.000e-10
   Tpresel                                  ... 1.000e-10 
Coulomb Range Separation                    ... NOT USED
Exchange Range Separation                   ... NOT USED
Multipole approximations                    ... NOT USED
Finite Nucleus Model                        ... NOT USED
CABS basis                                  ... NOT available
Auxiliary Coulomb fitting basis             ... AVAILABLE
   # of basis functions in Aux-J            ...    286
   # of shells in Aux-J                     ...    102
   Maximum angular momentum in Aux-J        ...      4
Auxiliary J/K fitting basis                 ... NOT available
Auxiliary Correlation fitting basis         ... NOT available
Auxiliary 'external' fitting basis          ... NOT available

Checking pre-screening integrals            ... done (  0.0 sec) Dimension = 42
Check shell pair data                       ... done (  0.0 sec)
Shell pair information
Shell pair cut-off parameter TPreSel        ...   1.0e-10
Total number of shell pairs                 ...       903
Shell pairs after pre-screening             ...       891
Total number of primitive shell pairs       ...      3827
Primitive shell pairs kept                  ...      2864
          la=0 lb=0:    426 shell pairs
          la=1 lb=0:    260 shell pairs
          la=1 lb=1:     45 shell pairs
          la=2 lb=0:    114 shell pairs
          la=2 lb=1:     36 shell pairs
          la=2 lb=2:     10 shell pairs

Calculating one electron integrals          ... done (  0.0 sec)
Calculating RI/J V-Matrix + Cholesky decomp.... done (  0.0 sec)
Calculating Nuclear repulsion               ... done (  0.0 sec) ENN=    170.840211044711 Eh

Diagonalization of the overlap matrix:
Smallest eigenvalue                        ... 3.953e-03
Time for diagonalization                   ...    0.000 sec
Threshold for overlap eigenvalues          ... 1.000e-07
Number of eigenvalues below threshold      ... 0
Time for construction of square roots      ...    0.000 sec
Total time needed                          ...    0.002 sec

-------------------
DFT GRID GENERATION
-------------------

General Integration Accuracy     IntAcc      ... 4.159
Radial Grid Type                 RadialGrid  ... OptM3 with GC (2021)
Angular Grid (max. ang.)         AngularGrid ... 3 (Lebedev-194)
Angular grid pruning method      GridPruning ... 4 (adaptive)
Weight generation scheme         WeightScheme... mBecke (2022)
Basis function cutoff            BFCut       ... 1.0000e-10
Integration weight cutoff        WCut        ... 1.0000e-14
Partially contracted basis set               ... off
Rotationally invariant grid construction     ... off
Angular grids for H and He will be reduced by one unit

Total number of grid points                  ...    25472
Total number of batches                      ...      405
Average number of points per batch           ...       62
Average number of grid points per atom       ...     2123
Initializing property integral containers    ... done (  0.0 sec)

SHARK setup successfully completed in   0.1 seconds

Maximum memory used throughout the entire STARTUP-calculation: 13.4 MB
-------------------------------------------------------------------------------
                                 ORCA GUESS
                   Start orbitals & Density for SCF / CASSCF
-------------------------------------------------------------------------------

------------
SCF SETTINGS
------------
Hamiltonian:
 Density Functional     Method          .... DFT(GTOs)
 Exchange Functional    Exchange        .... PBE
   PBE kappa parameter   XKappa         ....  0.804000
   PBE mue parameter    XMuePBE         ....  0.219520
 Correlation Functional Correlation     .... PBE
   PBE beta parameter  CBetaPBE         ....  0.066725
 LDA part of GGA corr.  LDAOpt          .... PW91-LDA
 Gradients option       PostSCFGGA      .... off
   NL short-range parameter             ....  6.400000
 RI-approximation to the Coulomb term is turned on
   Number of AuxJ basis functions       .... 286


General Settings:
 Integral files         IntName         .... sp
 Hartree-Fock type      HFTyp           .... RHF
 Total Charge           Charge          ....    0
 Multiplicity           Mult            ....    1
 Number of Electrons    NEL             ....   42
 Basis Dimension        Dim             ....   76
 Nuclear Repulsion      ENuc            ....    170.8402110447 Eh

Convergence Acceleration:
 AO-DIIS                CNVDIIS         .... on
   Start iteration      DIISMaxIt       ....    12
   Startup error        DIISStart       ....  0.200000
   # of expansion vecs  DIISMaxEq       ....     5
   Bias factor          DIISBfac        ....   1.050
   Max. coefficient     DIISMaxC        ....  10.000
 MO-DIIS                CNVKDIIS        .... off
 Trust-Rad. Augm. Hess. CNVTRAH         .... auto
   Auto Start mean grad. ratio tolernc. ....  1.125000
   Auto Start start iteration           ....     1
   Auto Start num. interpolation iter.  ....    10
   Max. Number of Micro iterations      ....    24
   Max. Number of Macro iterations      .... Maxiter - #DIIS iter
   Number of Davidson start vectors     ....     2
   Converg. threshold    (grad. norm)   ....   1.000e-04
   Grad. Scal. Fac. for Micro threshold ....   0.100
   Minimum threshold for Micro iter.    ....   1.000e-02
   NR start threshold (gradient norm)   ....   1.000e-04
   Initial trust radius                 ....   0.400
   Minimum AH scaling param. (alpha)    ....   1.000
   Maximum AH scaling param. (alpha)    .... 1000.000
   Quad. conv. algorithm                .... NR
   White noise on init. David. guess    .... on
   Maximum white noise                  ....   0.010
   Pseudo random numbers                .... off
   Inactive MOs                         .... canonical
   Orbital update algorithm             .... Taylor
   Preconditioner                       .... Diag
   Full preconditioner red. dimension   ....   250
 SOSCF                  CNVSOSCF        .... on
   Start iteration      SOSCFMaxIt      ....   150
   Startup grad/error   SOSCFStart      ....  0.003300
   Hessian update       SOSCFHessUp     .... L-BFGS
 Level Shifting         CNVShift        .... on
   Level shift para.    LevelShift      ....    0.2500
   Turn off err/grad.   ShiftErr        ....    0.0010
 Zerner damping         CNVZerner       .... off
 Static damping         CNVDamp         .... on
   Fraction old density DampFac         ....    0.7000
   Max. Damping (<1)    DampMax         ....    0.9800
   Min. Damping (>=0)   DampMin         ....    0.0000
   Turn off err/grad.   DampErr         ....    0.1000

SCF Procedure:
 Maximum # iterations   MaxIter         ....   125
 SCF integral mode      SCFMode         .... Direct
   Integral package                     .... SHARK and LIBINT hybrid scheme
 Reset frequency        DirectResetFreq ....    20
 Integral Threshold     Thresh          ....  1.000e-09 Eh
 Primitive CutOff       TCut            ....  1.000e-10 Eh

Convergence Tolerance:
 Convergence Check Mode ConvCheckMode   .... Total+1el-Energy
 Convergence forced     ConvForced      .... 0
 Energy Change          TolE            ....  1.000e-05 Eh
 1-El. energy change                    ....  1.000e-02 Eh
 Orbital Gradient       TolG            ....  1.000e-04
 Orbital Rotation angle TolX            ....  1.000e-04
 DIIS Error             TolErr          ....  5.000e-04

---------------------
INITIAL GUESS: MOREAD
---------------------
Guess MOs are being read from file: sp.ges
Input Geometry matches current geometry (good)
Input basis set matches current basis set (good)
Occupation numbers will be reassigned to an Aufbau configuration
MOs were renormalized
MOs were reorthogonalized (Cholesky)
                      ------------------
                      INITIAL GUESS DONE (   0.0 sec)
                      ------------------
             **** ENERGY FILE WAS UPDATED (sp.en.tmp) ****
Finished Guess after   0.0 sec
Maximum memory used throughout the entire GUESS-calculation: 7.1 MB

-------------------------------------------------------------------------------------------
                                      ORCA LEAN-SCF
                              memory conserving SCF solver
-------------------------------------------------------------------------------------------

----------------------------------------D-I-I-S--------------------------------------------
Iteration    Energy (Eh)           Delta-E    RMSDP     MaxDP     DIISErr   Damp  Time(sec)
-------------------------------------------------------------------------------------------
               ***  Starting incremental Fock matrix formation  ***
                              *** Initializing SOSCF ***
---------------------------------------S-O-S-C-F--------------------------------------
Iteration    Energy (Eh)           Delta-E    RMSDP     MaxDP     MaxGrad    Time(sec)
--------------------------------------------------------------------------------------
    1    -516.7390744292999898     0.00e+00  2.18e-05  3.69e-04  2.13e-05     0.1
               *** Restarting incremental Fock matrix formation ***
    2    -516.7390744792678561    -5.00e-08  2.36e-05  4.29e-04  4.58e-05     0.1
    3    -516.7390742870095437     1.92e-07  1.50e-05  2.36e-04  7.64e-05     0.1
                 **** Energy Check signals convergence ****

               *****************************************************
               *                     SUCCESS                       *
               *           SCF CONVERGED AFTER   3 CYCLES          *
               *****************************************************

             **** ENERGY FILE WAS UPDATED (sp.en.tmp) ****

----------------
TOTAL SCF ENERGY
----------------

Total Energy       :       -516.73907428700954 Eh          -14061.18507 eV

Components:
Nuclear Repulsion  :        170.84021104471134 Eh            4648.79848 eV
Electronic Energy  :       -687.57928533172083 Eh          -18709.98355 eV
One Electron Energy:      -1047.76142295741397 Eh          -28511.03779 eV
Two Electron Energy:        360.18213762569314 Eh            9801.05424 eV

Virial components:
Potential Energy   :      -1031.53464094211404 Eh          -28069.48461 eV
Kinetic Energy     :        514.79556665510461 Eh           14008.29954 eV
Virial Ratio       :          2.00377529986230

DFT components:
N(Alpha)           :       21.000106517142 electrons
N(Beta)            :       21.000106517142 electrons
N(Total)           :       42.000213034283 electrons
E(X)               :      -43.132254644948 Eh       
E(C)               :       -1.457896806707 Eh       
E(XC)              :      -44.590151451655 Eh       

---------------
SCF CONVERGENCE
---------------

  Last Energy change         ...   -1.9226e-07  Tolerance :   1.0000e-05
  Last MAX-Density change    ...    2.3597e-04  Tolerance :   1.0000e-03
  Last RMS-Density change    ...    1.4966e-05  Tolerance :   1.0000e-04
  Last DIIS Error            ...    1.0891e-04  Tolerance :   5.0000e-04
  Last Orbital Gradient      ...    7.6391e-05  Tolerance :   1.0000e-04
  Last Orbital Rotation      ...    8.7718e-05  Tolerance :   1.0000e-04


----------------
ORBITAL ENERGIES
----------------

  NO   OCC          E(Eh)            E(eV) 
   0   2.0000     -88.007946     -2394.8180 
   1   2.0000      -9.914263      -269.7808 
   2   2.0000      -9.904858      -269.5249 
   3   2.0000      -9.882147      -268.9069 
   4   2.0000      -7.652106      -208.2244 
   5   2.0000      -5.681079      -154.5900 
   6   2.0000      -5.676857      -154.4751 
   7   2.0000      -5.667932      -154.2323 
   8   2.0000      -0.730236       -19.8707 
   9   2.0000      -0.663849       -18.0642 
  10   2.0000      -0.585178       -15.9235 
  11   2.0000      -0.514557       -14.0018 
  12   2.0000      -0.420057       -11.4303 
  13   2.0000      -0.398387       -10.8407 
  14   2.0000      -0.378787       -10.3073 
  15   2.0000      -0.361824        -9.8457 
  16   2.0000      -0.347816        -9.4646 
  17   2.0000      -0.325373        -8.8539 
  18   2.0000      -0.304951        -8.2981 
  19   2.0000      -0.262310        -7.1378 
  20   2.0000      -0.174828        -4.7573 
  21   0.0000       0.024203         0.6586 
  22   0.0000       0.034816         0.9474 
  23   0.0000       0.049136         1.3371 
  24   0.0000       0.079001         2.1497 
  25   0.0000       0.088387         2.4051 
  26   0.0000       0.097472         2.6524 
  27   0.0000       0.106271         2.8918 
  28   0.0000       0.110202         2.9988 
  29   0.0000       0.132045         3.5931 
  30   0.0000       0.165909         4.5146 
  31   0.0000       0.181929         4.9505 
*Only the first 10 virtual orbitals were printed.

                    ********************************
                    * MULLIKEN POPULATION ANALYSIS *
                    ********************************

-----------------------
MULLIKEN ATOMIC CHARGES
-----------------------
   0 C :   -0.240692
   1 C :   -0.312036
   2 S :   -0.084735
   3 C :   -0.380272
   4 H :    0.105537
   5 H :    0.110637
   6 H :    0.103602
   7 H :    0.133346
   8 H :    0.129444
   9 H :    0.148006
  10 H :    0.147168
  11 H :    0.139994
Sum of atomic charges:   -0.0000000

--------------------------------
MULLIKEN REDUCED ORBITAL CHARGES
--------------------------------
  0 C s       :     3.075506  s :     3.075506
      pz      :     1.072154  p :     3.135984
      px      :     1.023085
      py      :     1.040745
      dz2     :     0.008250  d :     0.029202
      dxz     :     0.005830
      dyz     :     0.002280
      dx2y2   :     0.008018
      dxy     :     0.004824

  1 C s       :     3.173279  s :     3.173279
      pz      :     1.053098  p :     3.099739
      px      :     0.957547
      py      :     1.089093
      dz2     :     0.011533  d :     0.039018
      dxz     :     0.007411
      dyz     :     0.002655
      dx2y2   :     0.009782
      dxy     :     0.007637

  2 S s       :     5.891318  s :     5.891318
      pz      :     3.624186  p :    10.111818
      px      :     3.140469
      py      :     3.347163
      dz2     :     0.009606  d :     0.081599
      dxz     :     0.019233
      dyz     :     0.012389
      dx2y2   :     0.021957
      dxy     :     0.018414

  3 C s       :     3.186423  s :     3.186423
      pz      :     1.087917  p :     3.163979
      px      :     1.080706
      py      :     0.995356
      dz2     :     0.002381  d :     0.029870
      dxz     :     0.008499
      dyz     :     0.007705
      dx2y2   :     0.005412
      dxy     :     0.005872

  4 H s       :     0.894463  s :     0.894463

  5 H s       :     0.889363  s :     0.889363

  6 H s       :     0.896398  s :     0.896398

  7 H s       :     0.866654  s :     0.866654

  8 H s       :     0.870556  s :     0.870556

  9 H s       :     0.851994  s :     0.851994

 10 H s       :     0.852832  s :     0.852832

 11 H s       :     0.860006  s :     0.860006


------------------------
MULLIKEN OVERLAP CHARGES
------------------------
B(  0-C ,  1-C ) :   0.7858 B(  0-C ,  2-S ) :  -0.1843 B(  0-C ,  4-H ) :   0.7638 
B(  0-C ,  5-H ) :   0.7292 B(  0-C ,  6-H ) :   0.6605 B(  0-C ,  8-H ) :  -0.0696 
B(  1-C ,  2-S ) :   0.6106 B(  1-C ,  4-H ) :  -0.0546 B(  1-C ,  5-H ) :  -0.0517 
B(  1-C ,  7-H ) :   0.7324 B(  1-C ,  8-H ) :   0.7185 B(  2-S ,  3-C ) :   0.5234 
B(  2-S ,  7-H ) :  -0.0620 B(  2-S ,  8-H ) :  -0.0541 B(  2-S ,  9-H ) :  -0.0654 
B(  2-S , 10-H ) :  -0.0708 B(  3-C ,  9-H ) :   0.7566 B(  3-C , 10-H ) :   0.7561 
B(  3-C , 11-H ) :   0.7339 B(  9-H , 10-H ) :  -0.0512 


                     *******************************
                     * LOEWDIN POPULATION ANALYSIS *
                     *******************************

----------------------
LOEWDIN ATOMIC CHARGES
----------------------
   0 C :   -0.360616
   1 C :   -0.339502
   2 S :    0.175242
   3 C :   -0.457779
   4 H :    0.117098
   5 H :    0.122518
   6 H :    0.120296
   7 H :    0.126599
   8 H :    0.118782
   9 H :    0.126362
  10 H :    0.124465
  11 H :    0.126536

-------------------------------
LOEWDIN REDUCED ORBITAL CHARGES
-------------------------------
  0 C s       :     2.954240  s :     2.954240
      pz      :     1.126810  p :     3.334409
      px      :     1.102269
      py      :     1.105330
      dz2     :     0.019917  d :     0.071967
      dxz     :     0.013909
      dyz     :     0.005796
      dx2y2   :     0.018366
      dxy     :     0.013979

  1 C s       :     2.975328  s :     2.975328
      pz      :     1.106802  p :     3.275008
      px      :     1.043225
      py      :     1.124982
      dz2     :     0.026495  d :     0.089167
      dxz     :     0.016861
      dyz     :     0.005978
      dx2y2   :     0.020434
      dxy     :     0.019399

  2 S s       :     5.579913  s :     5.579913
      pz      :     3.640147  p :    10.145570
      px      :     3.141279
      py      :     3.364144
      dz2     :     0.011212  d :     0.099275
      dxz     :     0.023851
      dyz     :     0.014042
      dx2y2   :     0.027376
      dxy     :     0.022795

  3 C s       :     3.019704  s :     3.019704
      pz      :     1.150380  p :     3.370053
      px      :     1.137184
      py      :     1.082489
      dz2     :     0.004744  d :     0.068022
      dxz     :     0.020120
      dyz     :     0.018112
      dx2y2   :     0.011984
      dxy     :     0.013062

  4 H s       :     0.882902  s :     0.882902

  5 H s       :     0.877482  s :     0.877482

  6 H s       :     0.879704  s :     0.879704

  7 H s       :     0.873401  s :     0.873401

  8 H s       :     0.881218  s :     0.881218

  9 H s       :     0.873638  s :     0.873638

 10 H s       :     0.875535  s :     0.875535

 11 H s       :     0.873464  s :     0.873464


---------------------------------
LOEWDIN BOND ORDERS (THRESH 0.050000)
---------------------------------
B(  0-C ,  1-C ) :   1.1550 B(  0-C ,  2-S ) :   0.0766 B(  0-C ,  4-H ) :   0.9385 
B(  0-C ,  5-H ) :   0.9383 B(  0-C ,  6-H ) :   0.9297 B(  1-C ,  2-S ) :   1.1586 
B(  1-C ,  7-H ) :   0.9206 B(  1-C ,  8-H ) :   0.9213 B(  2-S ,  3-C ) :   1.1768 
B(  3-C ,  9-H ) :   0.9563 B(  3-C , 10-H ) :   0.9558 B(  3-C , 11-H ) :   0.9502 


------------------------------------------
LOEWDIN REDUCED ORBITAL POPULATIONS PER MO
-------------------------------------------
THRESHOLD FOR PRINTING IS 0.1%%
                      0         1         2         3         4         5   
                 -88.00795  -9.91426  -9.90486  -9.88215  -7.65211  -5.68108
                   2.00000   2.00000   2.00000   2.00000   2.00000   2.00000
                  --------  --------  --------  --------  --------  --------
 0 C  s               0.0       0.0       0.0      99.7       0.0       0.0
 1 C  s               0.0      99.7       0.0       0.0       0.0       0.0
 1 C  px              0.0       0.0       0.0       0.0       0.1       0.0
 2 S  s             100.0       0.0       0.0       0.0      99.6       0.0
 2 S  pz              0.0       0.0       0.0       0.0       0.0       0.5
 2 S  px              0.0       0.0       0.0       0.0       0.0      69.5
 2 S  py              0.0       0.0       0.0       0.0       0.0      30.0
 3 C  s               0.0       0.0      99.8       0.0       0.0       0.0
 3 C  py              0.0       0.0       0.0       0.0       0.1       0.0

                      6         7         8         9        10        11   
                  -5.67686  -5.66793  -0.73024  -0.66385  -0.58518  -0.51456
                   2.00000   2.00000   2.00000   2.00000   2.00000   2.00000
                  --------  --------  --------  --------  --------  --------
 0 C  s               0.0       0.0       9.9      17.7      15.4       3.8
 0 C  pz              0.0       0.0       0.3       0.2       0.2       2.8
 0 C  px              0.0       0.0       1.4       0.1       1.3       0.9
 0 C  py              0.0       0.0       1.1       0.4       1.5       3.6
 1 C  s               0.0       0.0      23.2       8.7       5.0      10.7
 1 C  pz              0.0       0.0       1.0       0.0       0.0       7.2
 1 C  px              0.0       0.0       0.9       4.4       7.1       1.9
 1 C  py              0.0       0.0       0.4       0.7       4.4       2.1
 1 C  dxz             0.0       0.0       0.0       0.1       0.1       0.1
 1 C  dx2y2           0.0       0.0       0.0       0.0       0.0       0.1
 2 S  s               0.0       0.0      25.5       7.8      11.5      21.1
 2 S  pz             43.1      56.4       1.2       0.1       0.1       1.2
 2 S  px             14.1      16.3       0.8       2.8       2.7       0.7
 2 S  py             42.7      27.3       1.0       2.0       1.8       0.1
 2 S  dxz             0.0       0.0       0.1       0.1       0.2       0.1
 2 S  dx2y2           0.0       0.0       0.0       0.2       0.2       0.0
 2 S  dxy             0.0       0.0       0.0       0.2       0.0       0.0
 3 C  s               0.0       0.0      10.2      23.5      12.6       4.0
 3 C  pz              0.0       0.0       0.2       0.1       0.2       2.0
 3 C  px              0.0       0.0       0.8       0.0       0.7       1.2
 3 C  py              0.0       0.0       1.6       0.5       2.3       6.2
 3 C  dxy             0.0       0.0       0.0       0.0       0.1       0.1
 4 H  s               0.0       0.0       2.0       3.4       5.5       2.6
 5 H  s               0.0       0.0       1.9       3.6       4.5       3.1
 6 H  s               0.0       0.0       1.6       4.1       5.4       1.3
 7 H  s               0.0       0.0       4.3       2.1       2.3       6.8
 8 H  s               0.0       0.0       4.4       1.6       1.5       8.1
 9 H  s               0.0       0.0       1.8       5.3       4.5       2.0
10 H  s               0.0       0.0       1.8       5.4       4.2       2.4
11 H  s               0.0       0.0       2.4       4.8       4.3       3.4

                     12        13        14        15        16        17   
                  -0.42006  -0.39839  -0.37879  -0.36182  -0.34782  -0.32537
                   2.00000   2.00000   2.00000   2.00000   2.00000   2.00000
                  --------  --------  --------  --------  --------  --------
 0 C  pz              5.3      11.1       1.9       0.9       2.3      30.5
 0 C  px              3.9       9.5       2.1      23.6       1.4       0.6
 0 C  py              9.4       0.1       0.1       0.1      29.0       1.2
 0 C  dz2             0.0       0.0       0.0       0.0       0.0       0.7
 0 C  dxz             0.0       0.1       0.0       0.2       0.0       0.2
 0 C  dxy             0.0       0.0       0.0       0.0       0.3       0.0
 1 C  s               0.0       0.0       0.2       0.7       0.1       0.0
 1 C  pz             10.6      14.7       0.1       1.1       3.2      11.0
 1 C  px              5.7       1.8       1.1       0.1      11.0       0.9
 1 C  py             16.7       0.0       1.7       6.9      12.1       0.0
 1 C  dz2             0.1       0.0       0.0       0.0       0.0       0.4
 1 C  dxz             0.0       0.0       0.0       0.0       0.1       0.2
 1 C  dxy             0.0       0.0       0.0       0.0       0.0       0.1
 2 S  s               0.4       1.3       0.0       0.5       0.1       1.5
 2 S  pz              1.9       0.0       4.0       0.0       0.1       2.1
 2 S  px              0.1      12.6       0.1       0.0       2.0       2.6
 2 S  py              1.6       0.1       2.4       0.0       7.0       5.4
 2 S  dz2             0.1       0.0       0.1       0.0       0.0       0.0
 2 S  dxz             0.0       0.1       0.0       0.0       0.2       0.0
 2 S  dyz             0.1       0.0       0.1       0.0       0.2       0.0
 2 S  dx2y2           0.1       0.0       0.1       0.3       0.1       0.1
 2 S  dxy             0.2       0.2       0.0       0.0       0.0       0.0
 3 C  s               0.3       0.0       0.0       0.0       0.0       0.0
 3 C  pz              2.1       1.6      44.6       0.1       1.0       2.0
 3 C  px              8.6       7.2       0.7      25.5       5.0       1.4
 3 C  py              0.0      12.7       5.6       3.6       5.1       2.9
 3 C  dxz             0.0       0.2       0.1       0.3       0.0       0.0
 3 C  dyz             0.1       0.0       0.1       0.1       0.1       0.0
 3 C  dx2y2           0.0       0.0       0.1       0.0       0.0       0.0
 3 C  dxy             0.0       0.0       0.2       0.0       0.0       0.0
 4 H  s               5.2       0.3       0.0       1.6      11.0       2.0
 5 H  s               3.8       2.5       1.3       0.0       0.3      20.5
 6 H  s               0.2       8.5       0.2      11.6       0.0       2.8
 7 H  s               9.5       0.0       0.1       1.7       1.7       0.2
 8 H  s               7.1       4.3       0.1       0.0       1.4       8.9
 9 H  s               2.4       0.0      18.7       0.2       4.1       0.0
10 H  s               1.5       2.0      11.9      10.1       0.2       1.0
11 H  s               2.9       8.7       1.9      10.2       0.4       0.5

                     18        19        20        21        22        23   
                  -0.30495  -0.26231  -0.17483   0.02420   0.03482   0.04914
                   2.00000   2.00000   2.00000   0.00000   0.00000   0.00000
                  --------  --------  --------  --------  --------  --------
 0 C  s               0.0       0.0       0.9       0.0       8.5       0.6
 0 C  pz              0.0       0.7       0.1       0.6       0.1       0.2
 0 C  px              7.0       2.1       1.2       0.5       0.5       0.1
 0 C  py              7.2       0.6       1.0       0.0       2.2       0.1
 0 C  dz2             0.1       0.1       0.0       0.2       0.0       0.1
 0 C  dxz             0.0       0.1       0.0       0.0       0.1       0.0
 0 C  dyz             0.0       0.0       0.0       0.0       0.1       0.2
 0 C  dx2y2           0.6       0.1       0.0       0.1       0.0       0.1
 0 C  dxy             0.1       0.0       0.0       0.1       0.2       0.1
 1 C  s               0.0       0.3       0.0       7.9       8.5       0.5
 1 C  pz              0.0       5.6       0.7       1.8       1.2       8.5
 1 C  px             10.8       6.1       0.3       6.8       0.4       8.8
 1 C  py              9.9       0.8       0.4       0.5       0.4       0.2
 1 C  dz2             0.2       0.2       0.3       0.0       0.0       0.3
 1 C  dxz             0.0       0.1       0.2       0.4       0.0       0.5
 1 C  dyz             0.0       0.0       0.0       0.0       0.0       0.4
 1 C  dx2y2           0.6       0.0       0.0       0.1       0.0       0.6
 1 C  dxy             0.2       0.1       0.3       0.2       0.2       0.0
 2 S  s               0.3       9.3       0.0       0.0       0.0       9.7
 2 S  pz              0.1      23.3      47.9       0.4       1.4       7.9
 2 S  px              9.7       9.0      14.0      23.6       0.3       1.8
 2 S  py              3.7      19.8      23.4       8.5       0.1      10.0
 2 S  dz2             0.1       0.1       0.0       0.1       0.0       1.8
 2 S  dxz             0.3       0.1       0.0       4.7       0.7       0.5
 2 S  dyz             0.0       0.1       0.0       1.0       0.2       1.2
 2 S  dx2y2           0.2       0.0       0.0       5.7       0.0       0.9
 2 S  dxy             0.3       0.2       0.0       1.4       0.4       2.9
 3 C  s               0.1       0.4       0.0       9.9      11.7       3.3
 3 C  pz              0.1       2.6       0.8       0.3       0.3       4.1
 3 C  px              5.5       0.0       0.2       3.0       0.1       0.0
 3 C  py              7.2       5.8       0.4       3.4       0.7      14.3
 3 C  dz2             0.0       0.0       0.0       0.0       0.0       0.2
 3 C  dxz             0.0       0.0       0.3       0.0       0.0       0.8
 3 C  dyz             0.2       0.1       0.1       0.8       0.1       0.0
 3 C  dx2y2           0.0       0.0       0.3       0.2       0.0       0.1
 3 C  dxy             0.0       0.2       0.0       0.0       0.0       1.3
 4 H  s              10.4       0.0       0.1       0.3       9.9       0.4
 5 H  s               0.9       1.3       0.3       1.7       4.0       0.1
 6 H  s               4.8       2.6       0.7       0.4       6.5       0.9
 7 H  s              14.5       0.3       0.1       3.2       5.6       0.1
 8 H  s               1.4       3.6       1.5       2.1      10.7       4.0
 9 H  s               2.5       0.2       1.9       1.9       7.5       2.2
10 H  s               0.7       0.0       2.6       1.6       6.7       3.6
11 H  s               0.2       3.7       0.1       6.5      10.7       6.2

                     24        25        26        27        28        29   
                   0.07900   0.08839   0.09747   0.10627   0.11020   0.13205
                   0.00000   0.00000   0.00000   0.00000   0.00000   0.00000
                  --------  --------  --------  --------  --------  --------
 0 C  s               5.4      11.6       0.1       0.1       1.6       0.1
 0 C  pz              0.1       0.8       3.9       1.8       4.3      11.5
 0 C  px              5.0       1.0       0.6       0.7       6.0       0.7
 0 C  py              1.4       2.3       0.2       0.4       0.7       6.3
 0 C  dz2             0.1       0.0       0.1       0.0       0.1       0.6
 0 C  dxz             0.0       0.2       0.4       0.1       0.5       0.0
 0 C  dyz             0.0       0.1       0.0       0.0       0.2       0.2
 0 C  dx2y2           0.6       0.4       0.1       0.0       0.0       0.0
 0 C  dxy             0.0       0.0       0.0       0.0       0.2       0.4
 1 C  s               0.2       6.3       2.6       0.2       2.4       0.0
 1 C  pz              0.4       1.5       4.4       0.2       0.6       3.3
 1 C  px              2.7       3.2       2.7       0.0       0.4       0.3
 1 C  py              6.1       1.3       2.5       0.1       1.6       2.8
 1 C  dz2             0.2       0.0       0.5       0.0       0.5       0.0
 1 C  dxz             0.0       0.3       0.0       0.0       0.0       0.1
 1 C  dyz             0.0       0.1       0.1       0.1       0.1       0.1
 1 C  dx2y2           0.4       0.6       0.2       0.0       0.0       0.1
 1 C  dxy             0.4       0.0       0.0       0.0       0.0       0.2
 2 S  s               0.2       0.8       2.8       0.2       0.9       0.0
 2 S  pz              0.1       0.8       1.3       0.1       0.3       0.2
 2 S  px              3.5       0.6       0.0       0.0       0.2       0.6
 2 S  py              1.0       0.2       3.2       1.0       1.3       0.5
 2 S  dz2             0.0       0.0       0.0       1.2       0.0       0.1
 2 S  dxz             0.3       0.0       0.4       0.1       0.0       0.1
 2 S  dyz             0.0       0.0       0.7       0.2       0.2       0.5
 2 S  dx2y2           0.1       0.0       0.4       0.7       0.0       0.7
 2 S  dxy             1.0       0.2       0.0       0.1       0.0       0.1
 3 C  s               2.7       0.9       1.8       0.0       0.0       0.1
 3 C  pz              0.4       0.4       0.4      15.0       5.1       0.9
 3 C  px              1.7       1.9       7.8       5.3       5.5       1.6
 3 C  py              4.3       0.2       3.8       3.4       1.1       1.4
 3 C  dz2             0.1       0.1       0.1       0.1       0.2       0.0
 3 C  dxz             0.0       0.0       0.0       0.9       0.0       0.0
 3 C  dyz             0.2       0.1       0.4       0.0       0.6       0.1
 3 C  dx2y2           0.0       0.0       0.2       0.4       0.0       0.1
 3 C  dxy             0.1       0.0       0.2       0.6       0.0       0.0
 4 H  s               1.6      21.1       0.3       0.6       0.6      12.2
 5 H  s               7.7      10.0       8.6       2.5       1.4      30.8
 6 H  s              17.1       1.5       3.5       4.1      27.5       1.0
 7 H  s              18.9      16.6       3.2       0.5      10.6       8.2
 8 H  s               3.8       7.9      22.2       0.8       0.3       8.4
 9 H  s               5.5       2.1      10.8      23.1      14.0       1.1
10 H  s               4.3       4.0       8.6      35.0       0.1       4.1
11 H  s               2.4       1.0       0.5       0.3      10.9       0.4

                     30        31        32        33        34        35   
                   0.16591   0.18193   0.34130   0.36588   0.38483   0.38676
                   0.00000   0.00000   0.00000   0.00000   0.00000   0.00000
                  --------  --------  --------  --------  --------  --------
 0 C  s               1.8       1.7       1.2       0.1       0.4       1.4
 0 C  pz              0.7       4.8       0.5      10.1       7.1       0.2
 0 C  px             10.8       9.1      11.4       4.5       2.8       2.2
 0 C  py              1.5      16.8       1.0       1.6       0.5      24.2
 0 C  dz2             0.9       0.2       0.1       0.8       2.3       1.2
 0 C  dxz             0.4       1.3       0.5       1.1       0.1       1.0
 0 C  dyz             0.0       1.4       0.1       1.1       0.2       0.4
 0 C  dx2y2           0.3       0.0       1.4       0.3       0.1       0.3
 0 C  dxy             0.3       3.4       0.1       0.8       0.1       3.4
 1 C  s               0.1       4.1       0.2       0.2       0.3       1.2
 1 C  pz              8.1       1.6       0.2       0.5       1.4       9.1
 1 C  px              0.1      11.6       1.5       1.0       9.8       4.4
 1 C  py              2.2      12.5       4.8       5.8       1.4       4.3
 1 C  dz2             0.3       0.2       0.5       2.1       0.1       2.5
 1 C  dxz             0.2       1.4       0.0       0.1       2.4       0.0
 1 C  dyz             0.6       1.3       0.0       0.2       0.2       0.6
 1 C  dx2y2           0.1       0.0       0.7       0.1       0.2       0.4
 1 C  dxy             0.5       3.0       2.3       0.1       0.0       1.1
 2 S  s               0.1       1.9       7.4      13.1       4.4       0.1
 2 S  pz              0.2       0.6       0.1       2.1       0.6       0.3
 2 S  px              3.2       1.1       0.2       0.1       0.9       0.0
 2 S  py              0.1       0.5       0.5       0.0       1.0       0.0
 2 S  dz2             0.0       1.1       0.4       3.5       4.3       0.4
 2 S  dxz             0.3       0.8       0.3       2.8       2.7       3.7
 2 S  dyz             0.6       1.7       0.0       6.9       1.7       0.6
 2 S  dx2y2           0.3       0.1       1.0       0.0       1.4       5.0
 2 S  dxy             1.1       0.2      13.1       0.0       0.0       1.1
 3 C  s               1.8       0.8       1.2       0.1       0.2       0.2
 3 C  pz              2.2       1.7       0.1       7.6      21.5       0.3
 3 C  px              3.3       0.8      19.9       1.0       0.0       0.1
 3 C  py              4.8       0.4       3.1       3.3       3.8       4.3
 3 C  dz2             0.0       0.0       0.1       0.4       0.0       0.0
 3 C  dxz             0.3       0.3       0.2       0.2       0.0       1.0
 3 C  dyz             0.2       0.0       2.4       1.8       0.3       0.1
 3 C  dx2y2           0.0       0.0       0.6       0.0       1.3       0.1
 3 C  dxy             0.2       0.0       0.1       0.7       3.3       0.0
 4 H  s              13.0       4.5       2.9       0.7       0.3      10.0
 5 H  s               1.1       1.3       0.0       5.4       6.2       1.8
 6 H  s               6.5       1.2       4.3       3.4       1.1       1.0
 7 H  s               1.2       1.3       7.1       4.0       0.1       0.5
 8 H  s               7.3       0.3       1.2       2.1       1.4       7.7
 9 H  s               0.2       0.3       2.2       8.6       2.3       1.7
10 H  s               0.5       1.0       4.0       0.3       3.5       1.4
11 H  s              22.4       3.6       1.3       1.1       8.2       0.5

                     36        37        38        39        40        41   
                   0.39950   0.44648   0.46074   0.50441   0.56205   0.59482
                   0.00000   0.00000   0.00000   0.00000   0.00000   0.00000
                  --------  --------  --------  --------  --------  --------
 0 C  s               0.3       0.7       0.3       0.4       1.7      11.7
 0 C  pz              3.2       0.5       8.7      11.2       8.2       0.7
 0 C  px              2.6       3.3       6.0       5.6       3.8       1.4
 0 C  py              0.8       3.3       9.2       3.4       1.9       9.8
 0 C  dz2             0.4       0.2       3.5       0.0       0.1       0.2
 0 C  dxz             0.3       0.2       0.3       2.0       0.1       0.0
 0 C  dyz             0.7       0.3       0.5       1.1       0.1       0.0
 0 C  dx2y2           0.2       0.7       0.7       1.2       0.3       0.4
 0 C  dxy             0.1       0.3       0.4       0.0       0.7       0.3
 1 C  s               0.3       3.4       0.4       0.4       8.2       0.1
 1 C  pz              3.2       9.7       4.4       6.3       3.2       6.6
 1 C  px              2.6      16.9       0.4      10.3       1.5      11.4
 1 C  py              2.1       0.1       0.2       1.5      13.2       8.3
 1 C  dz2             0.5       0.5       0.0       0.0       0.9       0.5
 1 C  dxz             0.0       2.5       0.2       0.6       0.0       0.0
 1 C  dyz             0.7       0.3       0.1       1.5       0.2       0.0
 1 C  dx2y2           0.6       2.2       0.9       0.0       0.0       0.2
 1 C  dxy             0.4       0.1       0.0       0.0       0.6       1.3
 2 S  s               3.5      16.6       4.6      16.0       0.8       1.4
 2 S  pz              0.1       1.2       0.1       1.9       2.5       0.9
 2 S  px              3.5       1.1       0.2       2.9       5.1       0.1
 2 S  py              0.7       0.4       1.0       7.9       0.3       4.4
 2 S  dz2             8.0       1.1       0.0       0.4       0.1       1.8
 2 S  dxz             0.0       1.4       7.8       0.1       2.2       1.3
 2 S  dyz             3.1       0.8       0.2       2.0      11.3       0.0
 2 S  dx2y2           2.1       0.2       2.6       5.3       0.9       1.3
 2 S  dxy             0.0       1.0       0.1       0.0       3.6       0.5
 3 C  s               1.0       1.7       0.9       0.3       1.0       0.9
 3 C  pz              0.2       3.5       1.4       2.3       1.5       0.2
 3 C  px              1.1       0.4      10.5       0.1       6.1       3.8
 3 C  py             32.2       3.3       0.7       0.9       0.5       0.1
 3 C  dz2             0.7       0.0       0.1       0.3       1.5       0.1
 3 C  dxz             4.5       0.0       2.0       0.6       0.8       0.7
 3 C  dyz             0.1       0.1       0.3       0.6       1.4       1.1
 3 C  dx2y2           0.1       0.4       1.0       0.4       0.7       0.1
 3 C  dxy             1.0       0.5       0.7       0.0       0.1       0.0
 4 H  s               0.2       1.4       7.6       1.3       0.5       4.3
 5 H  s               1.3       0.6       5.6       0.7       1.4       2.7
 6 H  s               1.1       2.5       0.9       5.0       0.1      10.4
 7 H  s               1.3       4.0       2.3       0.1       4.7       2.9
 8 H  s               2.4       8.7       0.2       0.2       0.9       0.7
 9 H  s               3.2       0.1       0.1       4.6       4.5       3.5
10 H  s               1.6       1.4      11.7       0.5       1.5       3.1
11 H  s               8.3       2.6       1.2       0.3       1.6       0.7

                     42        43        44        45        46        47   
                   0.61626   0.62805   0.63311   0.65296   0.65911   0.66287
                   0.00000   0.00000   0.00000   0.00000   0.00000   0.00000
                  --------  --------  --------  --------  --------  --------
 0 C  s               7.2       0.3       4.1       3.8      21.6       4.6
 0 C  pz              6.4       5.9       1.3       0.5       0.4       2.6
 0 C  px              0.6       3.0       1.7       9.8      17.7       0.2
 0 C  py              2.5       1.2       0.3       0.0       3.6       6.3
 0 C  dz2             0.2       0.0       0.1       0.1       0.1       0.0
 0 C  dxz             0.3       0.5       0.3       0.2       0.5       0.0
 0 C  dyz             0.0       0.0       0.2       0.0       0.0       0.0
 0 C  dx2y2           0.3       0.0       0.4       0.4       0.2       0.2
 0 C  dxy             0.1       0.1       0.0       0.0       0.0       0.2
 1 C  s               0.4       2.3      21.1       1.3       2.1       3.2
 1 C  pz              1.0       5.6       0.6       1.5       1.5      16.5
 1 C  px              4.3       1.9       6.8       1.0       2.9       0.0
 1 C  py              1.1       0.5       8.8       0.4       3.1       0.4
 1 C  dz2             0.1       0.7       0.0       0.2       0.7       0.5
 1 C  dxz             0.0       0.1       0.1       0.0       0.1       0.1
 1 C  dyz             0.1       0.1       0.3       0.1       0.0       0.0
 1 C  dx2y2           0.0       0.3       0.2       0.0       0.3       0.0
 1 C  dxy             0.2       0.1       0.2       0.0       0.2       0.0
 2 S  s               0.1       0.3       1.9       0.5       0.2       0.2
 2 S  pz              6.6       9.2       1.0       0.5       0.5       0.2
 2 S  px              1.0       3.2       0.0       0.6       0.0       0.0
 2 S  py              3.3       0.7       4.0       0.3       0.8       0.9
 2 S  dz2            13.0       2.8       1.0       0.0       0.0       2.5
 2 S  dxz             0.1       1.6       1.7       0.0       0.7       0.0
 2 S  dyz             0.0       5.2       7.2       1.7       0.9       0.4
 2 S  dx2y2           0.4       0.1       1.0       0.3       0.0       0.4
 2 S  dxy             2.1       5.7       0.3       1.5       0.5       0.1
 3 C  s              10.5      22.2       4.0       1.3       8.5       2.9
 3 C  pz              2.7       2.5       4.1       6.4       2.0      17.9
 3 C  px              0.7       2.9       0.7      32.8       7.4       0.4
 3 C  py              7.7       0.2       2.3       0.1       1.4       1.8
 3 C  dz2             0.1       0.0       0.2       0.1       0.2       0.0
 3 C  dxz             0.8       0.0       0.2       0.2       0.1       0.3
 3 C  dyz             0.0       0.0       0.1       1.1       0.0       0.7
 3 C  dx2y2           0.0       0.0       0.0       0.3       0.1       0.2
 3 C  dxy             0.2       0.0       0.5       0.1       0.0       0.4
 4 H  s               3.2       0.1       0.3       0.1       0.1       5.8
 5 H  s               6.0       0.4       0.8       0.2       1.2       0.3
 6 H  s               1.2       1.6       3.8       7.2      11.9       0.1
 7 H  s               3.3       4.7      13.0       0.0       3.7       0.1
 8 H  s               0.3       3.1       2.2       2.1       2.8      13.0
 9 H  s               7.8       1.1       0.0       8.8       1.3      10.5
10 H  s               2.5       8.2       2.6       7.0       0.7       4.7
11 H  s               1.6       1.5       0.4       7.3       0.0       1.3

                     48        49        50        51        52        53   
                   0.66818   0.67976   0.68558   0.70761   0.71124   0.72413
                   0.00000   0.00000   0.00000   0.00000   0.00000   0.00000
                  --------  --------  --------  --------  --------  --------
 0 C  s               0.1       0.9       0.1       4.0       1.0       0.8
 0 C  pz             19.4       1.1       2.8       7.5       0.6       1.2
 0 C  px              1.1       4.0       3.0       1.9       0.8       0.2
 0 C  py             13.5       5.0       4.4       1.6       2.8       2.2
 0 C  dz2             2.3       0.0       0.1       0.0       0.0       0.0
 0 C  dxz             0.3       0.0       0.2       0.5       0.1       0.0
 0 C  dyz             0.0       0.0       0.1       0.0       0.1       0.3
 0 C  dx2y2           0.3       0.3       0.1       0.0       0.0       0.3
 0 C  dxy             0.1       0.0       0.0       0.2       0.0       0.0
 1 C  s               1.2       2.1       2.9       0.1       0.4       7.7
 1 C  pz              1.2       2.2      10.2       0.1       2.3       1.2
 1 C  px              1.2       1.3       0.9       3.5       4.4       0.3
 1 C  py              1.3       7.4      12.4       1.7       3.6       2.6
 1 C  dz2             0.3       0.5       0.2       0.2       0.0       0.1
 1 C  dxz             0.0       0.1       0.6       0.2       0.0       0.2
 1 C  dyz             0.0       0.1       0.0       0.3       0.2       0.0
 1 C  dx2y2           0.0       0.0       0.1       0.4       0.4       0.0
 2 S  s               0.0       0.0       0.3       0.1       0.2       0.6
 2 S  pz              0.1       1.5       6.6       2.7       8.5       7.7
 2 S  px              0.0       5.2       1.4      26.0       5.4       0.0
 2 S  py              0.0       1.8       4.3       0.1      26.6       1.9
 2 S  dz2             0.8       6.2       1.3       1.5       5.1      10.1
 2 S  dxz             3.6       2.4       5.5       1.5       2.1       1.8
 2 S  dyz             0.6       0.7       6.3       0.4       1.0       1.9
 2 S  dx2y2           2.7       0.5       1.9       6.0      10.0       0.0
 2 S  dxy             0.0       0.9       6.5       8.0       0.7       4.6
 3 C  s               0.1       7.6       2.7       0.0       1.0       9.5
 3 C  pz              2.5       0.4       3.9      10.4       3.0       2.3
 3 C  px              1.7       4.2       5.3       0.3       1.1       0.1
 3 C  py              2.3      11.2       0.3       5.2       4.0       7.5
 3 C  dz2             0.3       0.3       0.0       0.1       0.1       0.3
 3 C  dxz             0.2       0.8       0.1       0.0       0.1       0.0
 3 C  dyz             0.1       0.3       0.0       0.1       0.5       0.0
 3 C  dx2y2           0.0       0.0       0.7       0.0       0.1       0.0
 3 C  dxy             0.0       0.2       0.0       0.7       0.1       0.8
 4 H  s              10.5       6.9       1.5       3.0       0.8       5.8
 5 H  s              21.4       1.2       1.2       1.6       0.3       5.4
 6 H  s               0.4       0.7       2.2       3.4       0.9       0.8
 7 H  s               2.8       1.3       2.7       0.3       2.0       1.6
 8 H  s               1.8       5.4       5.3       0.3       0.9       1.5
 9 H  s               1.6       0.3       1.2       0.2       0.9       3.2
10 H  s               3.2       2.1       0.9       1.3       2.6       3.6
11 H  s               0.8      12.6       0.2       4.0       5.4      12.0

                     54        55        56        57        58        59   
                   0.75613   0.77588   0.85165   0.87668   0.97325   1.07538
                   0.00000   0.00000   0.00000   0.00000   0.00000   0.00000
                  --------  --------  --------  --------  --------  --------
 0 C  s              11.4       6.1       1.3       0.4      27.4       0.8
 0 C  pz              2.5       0.4       1.6       3.3       0.0       0.1
 0 C  px              0.5       1.8       5.4       2.7       1.9       1.0
 0 C  py              0.0       3.3       1.9       0.8       0.2       0.1
 0 C  dz2             0.2       0.1       0.1       0.2       0.0       0.2
 0 C  dxz             0.3       0.1       2.1       0.4       0.3       0.1
 0 C  dyz             0.0       0.3       0.0       0.7       0.1       0.5
 0 C  dx2y2           0.1       0.0       0.2       1.9       0.1       0.0
 0 C  dxy             0.0       0.6       0.5       1.4       0.0       0.3
 1 C  s               7.1       3.9       5.8       1.7      23.3       8.1
 1 C  pz              1.0       3.6       9.0       1.4       0.5       0.1
 1 C  px              3.4       0.8       2.7       3.8       0.6       1.0
 1 C  py              2.0       1.7       0.1      12.3       0.5       0.3
 1 C  dz2             0.0       0.4       0.3       2.0       0.1       0.2
 1 C  dxz             0.0       0.1       0.5       0.6       0.2       1.5
 1 C  dyz             1.3       0.2       0.7       0.7       0.1       0.3
 1 C  dx2y2           0.0       0.1       1.7       0.7       0.0       0.3
 1 C  dxy             0.1       0.0       0.0       0.0       0.0       0.2
 2 S  s               0.6       0.4       0.1       0.5       0.4       0.1
 2 S  pz              2.2       8.4      25.8       0.0       1.4       0.0
 2 S  px              1.2       5.2       0.3       0.1       8.5      23.1
 2 S  py              0.0       3.0       2.5       8.2       0.8      10.4
 2 S  dz2             0.3       1.3      19.5       0.3       0.3       0.3
 2 S  dxz             7.6       8.6      10.2       0.1       0.8       9.6
 2 S  dyz            17.6       0.2       0.1       4.8       4.5       2.2
 2 S  dx2y2          11.8       5.3       0.6       6.6       0.8      13.7
 2 S  dxy             3.1       6.9       0.1      11.8       3.8       6.8
 3 C  s               2.6       6.9       1.0      13.3       0.6       6.6
 3 C  pz              5.8       2.8       0.5       0.7       0.1       0.2
 3 C  px              0.1       4.0       0.5       1.6       0.0       0.2
 3 C  py              0.9       1.3       0.1       2.9       0.9       1.0
 3 C  dz2             2.8       0.9       0.8       0.0       0.0       0.1
 3 C  dxz             0.2       1.2       0.0       0.0       0.1       0.4
 3 C  dyz             0.1       0.1       0.2       0.1       0.0       0.4
 3 C  dx2y2           0.0       0.7       0.3       0.2       1.4       0.6
 3 C  dxy             0.3       0.8       0.0       0.0       0.2       0.9
 4 H  s               0.5       7.3       0.3       0.2       4.1       0.0
 5 H  s               2.9       0.8       0.2       1.3       4.3       0.1
 6 H  s               1.6       4.3       0.3       0.4       3.7       0.1
 7 H  s               2.1       1.3       1.9       0.8       3.3       2.4
 8 H  s               3.2       0.1       0.1       1.5       4.5       2.0
 9 H  s               0.8       2.7       0.2       3.1       0.0       1.4
10 H  s               1.0       0.0       0.1       4.2       0.2       1.4
11 H  s               0.6       2.3       0.2       2.0       0.2       1.0

                     60        61        62        63        64        65   
                   1.13610   1.45729   1.52387   1.65008   1.65987   1.81415
                   0.00000   0.00000   0.00000   0.00000   0.00000   0.00000
                  --------  --------  --------  --------  --------  --------
 0 C  s               1.7       0.0       0.0       0.0       0.4       2.1
 0 C  pz              0.4       0.2       0.1       0.0       0.1       0.5
 0 C  px              2.0       0.3       0.0       0.0       0.0       1.2
 0 C  py              0.1       0.1       0.1       0.0       0.1       1.2
 0 C  dz2             0.0       8.0       0.7       0.0       0.0       4.2
 0 C  dxz             0.0       2.2      12.1       0.2       1.1       8.8
 0 C  dyz             0.0      27.8       4.5       0.0       0.7       8.3
 0 C  dx2y2           0.3      10.3      12.8       0.6       1.3       0.0
 0 C  dxy             0.0       1.8       6.1       0.4       2.2      21.1
 1 C  s               3.6       0.3       0.0       0.0       0.6       2.0
 1 C  pz              0.1       0.1       1.7       0.1       0.3       0.5
 1 C  px              1.2       1.0       0.4       0.0       0.4       1.6
 1 C  py              0.1       0.1       1.9       0.0       0.2       1.5
 1 C  dz2             0.1       6.3       0.4       0.0       2.3       5.2
 1 C  dxz             0.0       3.7      13.1       0.1       0.0       9.5
 1 C  dyz             0.0      21.7       6.2       0.0       0.1       9.1
 1 C  dx2y2           1.6       7.1      14.7       0.0       0.1       0.1
 1 C  dxy             0.5       3.0      13.7       0.2       1.7      17.7
 2 S  s              25.2       0.3       0.2       0.0       0.2       0.3
 2 S  pz              8.7       0.4       0.4       1.1       0.1       0.1
 2 S  px              7.2       0.2       0.5       0.0       1.2       0.2
 2 S  py             14.7       0.4       1.6       0.2       0.4       0.0
 2 S  dz2             5.2       0.4       0.6       1.2       0.0       0.1
 2 S  dxz             4.1       1.9       0.3       0.6       0.3       0.1
 2 S  dyz             6.0       0.0       0.7       1.5       0.5       0.1
 2 S  dx2y2           1.0       0.0       0.8       0.8       1.1       0.3
 2 S  dxy             2.8       0.6       0.6       0.0       1.3       0.0
 3 C  s               6.0       0.1       0.2       0.0       0.1       0.0
 3 C  pz              0.1       0.0       0.1       0.7       0.0       0.0
 3 C  px              0.3       0.0       0.1       0.0       0.9       0.0
 3 C  py              0.3       0.0       0.1       0.2       0.1       0.0
 3 C  dz2             0.5       0.0       1.0      62.8       4.6       0.4
 3 C  dxz             0.0       0.0       0.1       2.6       4.0       0.0
 3 C  dyz             0.0       0.1       0.7      17.0       0.4       0.0
 3 C  dx2y2           0.4       0.3       0.5       6.2      49.4       0.1
 3 C  dxy             0.8       0.3       0.9       3.2      22.8       0.1
 4 H  s               0.3       0.1       0.4       0.0       0.0       0.6
 5 H  s               0.5       0.1       0.3       0.0       0.0       0.9
 6 H  s               0.0       0.5       0.0       0.0       0.0       0.6
 7 H  s               0.7       0.0       0.6       0.1       0.7       0.4
 8 H  s               0.7       0.0       0.6       0.0       0.2       0.8
 9 H  s               0.7       0.0       0.0       0.0       0.0       0.0
10 H  s               0.6       0.0       0.0       0.0       0.0       0.0
11 H  s               1.0       0.0       0.2       0.0       0.0       0.0

                     66        67        68        69        70        71   
                   1.86839   1.89136   2.02398   2.06514   2.07374   2.09948
                   0.00000   0.00000   0.00000   0.00000   0.00000   0.00000
                  --------  --------  --------  --------  --------  --------
 0 C  pz              1.8       1.2       0.1       0.0       0.1       1.1
 0 C  px              1.1       0.8       0.6       0.0       0.0       0.1
 0 C  py              0.1       2.5       0.2       0.0       0.0       0.2
 0 C  dz2             0.6       8.7       2.1       0.2       3.1      24.7
 0 C  dxz             8.6      11.4       5.4       0.2       1.5       4.4
 0 C  dyz            26.0       1.8       3.0       0.2       0.2       4.7
 0 C  dx2y2           0.9       4.8       1.6       0.4       0.2       0.0
 0 C  dxy             1.0      19.9       0.6       0.0       0.2       2.7
 1 C  s               0.1       0.1       0.0       0.0       0.0       0.0
 1 C  pz              2.9       1.0       0.0       0.0       0.2       1.2
 1 C  px              1.4       0.7       0.0       0.0       0.0       0.0
 1 C  py              0.3       2.5       0.0       0.0       0.2       0.5
 1 C  dz2             0.4       3.8       0.0       0.0       0.5      27.8
 1 C  dxz            12.3       9.5       2.9       0.0       1.3       2.4
 1 C  dyz            30.3       1.1       0.0       0.0       0.3       3.2
 1 C  dx2y2           1.3       5.1       8.9       0.1       0.1       0.3
 1 C  dxy             0.8      11.3       1.9       0.1       0.1       4.2
 2 S  s               1.1       0.1       2.3       0.0       0.0       0.3
 2 S  pz              0.1       0.1       0.5       0.0       0.0       0.0
 2 S  px              0.6       0.1       0.1       0.0       0.1       0.2
 2 S  py              0.2       0.1       1.4       0.0       0.0       0.0
 2 S  dz2             0.4       0.2       0.5       0.1       0.0       0.0
 2 S  dxz             0.3       0.1       0.0       0.0       0.1       0.3
 2 S  dyz             0.3       0.1       0.9       0.0       0.0       0.1
 2 S  dx2y2           0.4       0.1       0.1       0.0       0.3       0.0
 2 S  dxy             0.3       0.3       1.4       0.0       0.0       0.2
 3 C  s               0.0       0.0       0.3       0.0       0.0       0.0
 3 C  pz              0.0       0.2       0.4       2.7       0.3       0.0
 3 C  px              0.1       0.0       0.4       0.0       2.6       0.1
 3 C  py              0.0       0.0       1.7       1.0       0.4       0.0
 3 C  dz2             0.4       0.7       4.4      10.7       0.7       0.0
 3 C  dxz             0.3       1.5       2.4      27.2      41.4       1.6
 3 C  dyz             0.4       0.5      11.3      18.0      25.4       3.9
 3 C  dx2y2           0.0       3.9      12.6      11.3       0.0       0.7
 3 C  dxy             0.6       0.1      26.8      12.8       5.7       1.4
 4 H  s               0.3       2.4       1.0       0.0       0.1       1.0
 5 H  s               0.7       1.2       0.0       0.1       0.5       4.6
 6 H  s               2.1       0.0       1.0       0.0       0.2       0.9
 7 H  s               0.5       1.3       0.9       0.0       0.0       1.5
 8 H  s               1.1       0.8       0.0       0.0       0.3       4.5
 9 H  s               0.0       0.0       0.3       9.2       0.7       0.2
10 H  s               0.0       0.0       1.0       5.0       3.9       0.2
11 H  s               0.0       0.1       0.8       0.3       9.1       0.7

                     72        73        74        75   
                   2.13502   2.18602   2.19765   2.46951
                   0.00000   0.00000   0.00000   0.00000
                  --------  --------  --------  --------
 0 C  s               0.1       0.0       0.1       2.2
 0 C  pz              0.2       0.0       0.1       0.7
 0 C  px              0.7       0.0       0.0       2.2
 0 C  py              0.2       0.1       0.0       2.3
 0 C  dz2             3.4      13.7      11.1       3.5
 0 C  dxz             5.3       3.1      13.6       7.1
 0 C  dyz             1.8       0.0       3.2       8.2
 0 C  dx2y2          10.7      23.5      19.2       0.1
 0 C  dxy             2.0       0.8       3.3      22.6
 1 C  s               0.3       0.0       0.0       1.9
 1 C  pz              0.1       0.2       0.0       0.6
 1 C  px              1.1       0.1       0.0       2.2
 1 C  py              0.9       0.2       0.4       2.4
 1 C  dz2             0.6      15.6      17.4       2.5
 1 C  dxz            14.6       4.2       4.5       7.7
 1 C  dyz             1.0       0.0       6.4       8.7
 1 C  dx2y2          11.5      26.9       8.7       0.4
 1 C  dxy             6.7       0.8       2.9      21.8
 2 S  s               0.0       0.0       0.1       0.2
 2 S  pz              0.0       0.0       0.2       0.0
 2 S  px              1.7       0.0       0.3       0.2
 2 S  py              0.5       0.0       0.1       0.0
 2 S  dz2             0.0       0.1       0.1       0.0
 2 S  dxz             1.2       0.1       1.1       0.1
 2 S  dyz             0.5       0.0       0.0       0.0
 2 S  dx2y2           2.2       0.1       0.2       0.1
 2 S  dxy             0.8       0.0       0.1       0.0
 3 C  s               0.3       0.0       0.0       0.0
 3 C  pz              0.2       0.0       0.0       0.0
 3 C  px              0.7       0.0       0.0       0.0
 3 C  py              0.8       0.0       0.0       0.0
 3 C  dz2             2.9       0.2       0.0       0.0
 3 C  dxz             0.0       0.1       0.5       0.0
 3 C  dyz             6.0       0.7       0.0       0.1
 3 C  dx2y2           3.3       0.0       0.2       0.1
 3 C  dxy             9.7       0.0       0.1       0.0
 4 H  s               2.4       2.5       0.4       0.3
 5 H  s               0.0       1.3       1.1       0.3
 6 H  s               2.0       0.1       3.3       0.4
 7 H  s               2.6       3.0       0.0       0.4
 8 H  s               0.0       2.1       1.2       0.3
 9 H  s               0.1       0.1       0.0       0.0
10 H  s               0.6       0.0       0.0       0.0


                      *****************************
                      * MAYER POPULATION ANALYSIS *
                      *****************************

  NA   - Mulliken gross atomic population
  ZA   - Total nuclear charge
  QA   - Mulliken gross atomic charge
  VA   - Mayer's total valence
  BVA  - Mayer's bonded valence
  FA   - Mayer's free valence

  ATOM       NA         ZA         QA         VA         BVA        FA
  0 C      6.2407     6.0000    -0.2407     3.9211     3.9211    -0.0000
  1 C      6.3120     6.0000    -0.3120     4.0590     4.0590    -0.0000
  2 S     16.0847    16.0000    -0.0847     2.1288     2.1288    -0.0000
  3 C      6.3803     6.0000    -0.3803     3.8950     3.8950    -0.0000
  4 H      0.8945     1.0000     0.1055     0.9675     0.9675    -0.0000
  5 H      0.8894     1.0000     0.1106     0.9692     0.9692    -0.0000
  6 H      0.8964     1.0000     0.1036     0.9531     0.9531    -0.0000
  7 H      0.8667     1.0000     0.1333     0.9404     0.9404    -0.0000
  8 H      0.8706     1.0000     0.1294     0.9361     0.9361     0.0000
  9 H      0.8520     1.0000     0.1480     0.9411     0.9411    -0.0000
 10 H      0.8528     1.0000     0.1472     0.9390     0.9390    -0.0000
 11 H      0.8600     1.0000     0.1400     0.9619     0.9619     0.0000

  Mayer bond orders larger than 0.100000
B(  0-C ,  1-C ) :   1.1086 B(  0-C ,  4-H ) :   0.9540 B(  0-C ,  5-H ) :   0.9520 
B(  0-C ,  6-H ) :   0.9376 B(  1-C ,  2-S ) :   1.0576 B(  1-C ,  7-H ) :   0.9296 
B(  1-C ,  8-H ) :   0.9258 B(  2-S ,  3-C ) :   1.0263 B(  3-C ,  9-H ) :   0.9512 
B(  3-C , 10-H ) :   0.9493 B(  3-C , 11-H ) :   0.9414 

-------
TIMINGS
-------

Total SCF time: 0 days 0 hours 0 min 0 sec 

Total time                  ....       0.312 sec
Sum of individual times     ....       0.304 sec  ( 97.7%)

SCF preparation             ....       0.024 sec  (  7.6%)
Fock matrix formation       ....       0.260 sec  ( 83.4%)
  Startup                   ....       0.001 sec  (  0.2% of F)
  Split-RI-J                ....       0.091 sec  ( 35.1% of F)
  XC integration            ....       0.166 sec  ( 64.0% of F)
    Basis function eval.    ....       0.076 sec  ( 45.7% of XC)
    Density eval.           ....       0.030 sec  ( 18.1% of XC)
    XC-Functional eval.     ....       0.020 sec  ( 11.8% of XC)
    XC-Potential eval.      ....       0.030 sec  ( 18.2% of XC)
Diagonalization             ....       0.000 sec  (  0.0%)
Density matrix formation    ....       0.001 sec  (  0.2%)
Total Energy calculation    ....       0.000 sec  (  0.0%)
Population analysis         ....       0.017 sec  (  5.5%)
Orbital Transformation      ....       0.001 sec  (  0.2%)
Orbital Orthonormalization  ....       0.000 sec  (  0.0%)
DIIS solution               ....       0.001 sec  (  0.3%)
  MO trafo                  ....       0.000 sec  (  0.0 % of DIIS)
  Orb grad                  ....       0.000 sec  (  0.0 % of DIIS)
  Energy W gradient         ....       0.000 sec  (  0.0 % of DIIS)
  DIIS error                ....       0.000 sec  (  7.4 % of DIIS)
  DIIS work                 ....       0.001 sec  ( 89.5 % of DIIS)
  Form Q                    ....       0.000 sec  (  0.0 % of DIIS)
  Form QpQm                 ....       0.000 sec  (  0.0 % of DIIS)
  Exp/Cayley                ....       0.000 sec  (  0.0 % of DIIS)
  Orb update                ....       0.000 sec  (  0.0 % of DIIS)
  Wake-sleep                ....       0.000 sec  (  3.0 % of DIIS)
SOSCF solution              ....       0.002 sec  (  0.5%)
  MO trafo                  ....       0.001 sec  ( 62.4 % of SOSCF)
  Orb grad                  ....       0.000 sec  (  2.4 % of SOSCF)
  Rot update                ....       0.000 sec  (  5.2 % of SOSCF)
  Step                      ....       0.000 sec  ( 27.7 % of SOSCF)
Finished LeanSCF after   0.3 sec

Maximum memory used throughout the entire LEANSCF-calculation: 7.9 MB


-------------------------------------------------------------------------------
                          DFT DISPERSION CORRECTION                            
                                                                               
                                DFTD4 V3.4.0                                   
-------------------------------------------------------------------------------
The PBE functional is recognized
Active option DFTDOPT                   ...         5   

-------------------------   ----------------
Dispersion correction           -0.008181093
-------------------------   ----------------

------------------   -----------------
gCP correction             0.047151875
------------------   -----------------

-------------------------   --------------------
FINAL SINGLE POINT ENERGY      -516.700103505178
-------------------------   --------------------


------------------------------------------------------------------------------
                              ORCA PROPERTY CALCULATIONS
------------------------------------------------------------------------------

GBWName                                 ... sp.gbw
Number of atoms                         ...     12
Number of basis functions               ...     76
Max core memory                         ...   1024 MB

Electric properties:
Dipole moment                           ... YES
Quadrupole moment                       ...  NO
Static polarizability (Dipole/Dipole)   ...  NO
Static polarizability (Dipole/Quad.)    ...  NO
Static polarizability (Quad./Quad.)     ...  NO
Static polarizability (Velocity)        ...  NO

Atomic electric properties:
Dipole moment                           ...  NO
Quadrupole moment                       ...  NO
Static polarizability                   ...  NO

Choice of electric origin               ... Center of mass
Position of electric origin             ...    -0.000009    -0.000011    -0.000006

General magnetic properties:
Magnetizability                         ...  NO

EPR properties:
g-Tensor (aka g-matrix)                 ...  NO
Zero-Field splitting spin-orbit         ...  NO
Zero-field splitting spin-spin          ...  NO
Hyperfine couplings                     ...  NO (   0 nuclei)
Quadrupole couplings                    ...  NO (   0 nuclei)
Contact density                         ...  NO (   0 nuclei)

NMR properties:
Chemical shifts                         ...  NO (   0 nuclei)
Spin-rotation constants                 ...  NO (   0 nuclei)
Spin-spin couplings                     ...  NO (   0 nuclei,    0 pairs)

Choice of magnetic origin               ... GIAO
Position of magnetic origin             ...     0.000000     0.000000     0.000000

Properties with geometric perturbations:
SCF Hessian                             ...  NO
IR spectrum                             ...  NO
VCD spectrum                            ...  NO
X-ray spectroscopy properties:
SCF XES/XAS/RIXS spectra                ...  NO


-------------
DIPOLE MOMENT
-------------

Method             : SCF
Type of density    : Electron Density
Multiplicity       :   1
Irrep              :   0
Energy             :  -516.7390742870095437 Eh
Relativity type    : 
Basis              : AO
                                X                 Y                 Z
Electronic contribution:      3.298737622       3.780099387       2.001501897
Nuclear contribution   :     -3.526939767      -4.200733604      -2.400433684
                        -----------------------------------------
Total Dipole Moment    :     -0.228202145      -0.420634217      -0.398931787
                        -----------------------------------------
Magnitude (a.u.)       :      0.623021616
Magnitude (Debye)      :      1.583595098



--------------------
Rotational spectrum 
--------------------
 
Rotational constants in cm-1:             0.326993             0.127783             0.106390 
Rotational constants in MHz :          9803.002785          3830.851120          3189.498688 

Dipole components along the rotational axes: 
x,y,z [a.u.] :     0.242328     0.502820     0.276776 
x,y,z [Debye]:     0.615949     1.278068     0.703508 

 

Dipole moment calculation done in   0.0 sec 

Maximum memory used throughout the entire PROP-calculation: 5.2 MB

--------------------------------
SUGGESTED CITATIONS FOR THIS RUN
--------------------------------

Below you find a list of papers that are relevant to this ORCA run
We neither can nor want to force you to cite these papers, but we appreciate if you do
You receive ORCA, which is the product of decades of hard work by many enthusiastic individuals, for free
The only thing we kindly ask in return is that you cite our papers,
We deeply appreciate it, if you show your appreciation for ORCA by not just citing the generic ORCA reference.

Please note that relegating all ORCA citations to the supporting information does *not* help us.
SI sections are not indexed - citations you put there will not count into any citation statistics
But we need these citations in order to attract the funding resources that allow us to do what we are doing

Therefore, if you are a happy ORCA user, please consider citing a few of the papers listed below in the main body of your paper

In addition to the list printed below, the program has created the file sp.bibtex that contains the list in bibtex format
You can import this file easily into all common literature databanks and citation aid programs


List of essential papers. We consider these as the minimum necessary citations

  1. Neese,F.
     Software update: the ORCA program system, version 5.0
     WIRES Comput. Molec. Sci., 2022 12(1)e1606
     doi.org/10.1002/wcms.1606

List of papers to cite with high priority. The work reported in these papers was absolutely
necessary for this run to complete.
Our perspective: the developers of density functionals and basis sets usually get cited in chemistry papers
Good! But without the algorithms to do something with them, the functionals or basis sets would not do anything.
Hence, in our opinion, the algorithm design and method developments papers are equally worthy of getting cited

  1. Neese,F.
     An improvement of the resolution of the identity approximation for the formation of the Coulomb matrix
     J. Comp. Chem., 2003 24(14)1740-1747
     doi.org/10.1002/jcc.10318
  2. Neese,F.
     The SHARK Integral Generation and Digestion System
     J. Comp. Chem., 2022  1-16
     doi.org/10.1002/jcc.26942
  3. Caldeweyher,E.; Bannwarth,C.; Grimme,S.
     Extension of the D3 dispersion coefficient model
     J. Chem. Phys., 2017 147 034112
     doi.org/10.1063/1.4993215
  4. Caldeweyher,E.; Ehlert,S.; Hansen,A.; Neugebauer,H.; Spicher,S.; Bannwarth,C.; Grimme,S.
     A generally applicable atomic-charge dependent London dispersion correction
     J. Chem. Phys., 2019 150 154122
     doi.org/10.1063/1.5090222
  5. Caldeweyher,E.; Mewes,J.; Ehlert,S.; Grimme,S.
     Extension and evaluation of the D4 London-dispersion model for periodic systems
     Phys. Chem. Chem. Phys., 2020 22(16)8499-8512
     doi.org/10.1039/D0CP00502A
  6. Wittmann,L.; Gordiy,I.; Friede,M.; Helmich-Paris,B.; Grimme,S.; Hansen,A.; Bursch,M.
     Extension of the D3 and D4 London Dispersion Corrections to the full Actinides Series
     Phys. Chem. Chem. Phys., 2024 26(32)21379-21394
     doi.org/https://doi.org/10.1039/D4CP01514B 

List of suggested additional citations. These are papers that are important in the 'surrounding' of 
of this run, or papers that preceded the highly important papers. If you like your results we are grateful for a citation.

  1. Neese,F.
     The ORCA program system
     WIRES Comput. Molec. Sci., 2012 2(1)73-78
     doi.org/10.1002/wcms.81
  2. Neese,F.
     Software update: the ORCA program system, version 4.0
     WIRES Comput. Molec. Sci., 2018 8(1)1-6
     doi.org/10.1002/wcms.1327
  3. Neese,F.; Wennmohs,F.; Becker,U.; Riplinger,C.
     The ORCA quantum chemistry program package
     J. Chem. Phys., 2020 152 Art. No. L224108
     doi.org/10.1063/5.0004608

List of optional additional citations

  1. Neese,F.
     Approximate second-order SCF convergence for spin unrestricted wavefunctions
     Chem. Phys. Lett., 2000 325(1-3)93-98
     doi.org/10.1016/s0009-2614(00)00662-x

Timings for individual modules:

Sum of individual times          ...        0.537 sec (=   0.009 min)
Startup calculation              ...        0.139 sec (=   0.002 min)  25.9 %
SCF iterations                   ...        0.367 sec (=   0.006 min)  68.3 %
Property calculations            ...        0.031 sec (=   0.001 min)   5.8 %
                             ****ORCA TERMINATED NORMALLY****
TOTAL RUN TIME: 0 days 0 hours 0 minutes 0 seconds 605 msec
