
                                 *****************
                                 * O   R   C   A *
                                 *****************

                                            #,                                       
                                            ###                                      
                                            ####                                     
                                            #####                                    
                                            ######                                   
                                           ########,                                 
                                     ,,################,,,,,                         
                               ,,#################################,,                 
                          ,,##########################################,,             
                       ,#########################################, ''#####,          
                    ,#############################################,,   '####,        
                  ,##################################################,,,,####,       
                ,###########''''           ''''###############################       
              ,#####''   ,,,,##########,,,,          '''####'''          '####       
            ,##' ,,,,###########################,,,                        '##       
           ' ,,###''''                  '''############,,,                           
         ,,##''                                '''############,,,,        ,,,,,,###''
      ,#''                                            '''#######################'''  
     '                                                          ''''####''''         
             ,#######,   #######,   ,#######,      ##                                
            ,#'     '#,  ##    ##  ,#'     '#,    #''#        ,####,   ,####,        
            ##       ##  ##   ,#'  ##            #'  '#       #'       #'  '#        
            ##       ##  #######   ##           ,######,      #####,   #    #        
            '#,     ,#'  ##    ##  '#,     ,#' ,#      #,     #,   #   #,  ,#        
             '#######'   ##     ##  '#######'  #'      '#     '####' # '####'        



                #########################################################
                #                        -***-                          #
                #          Department of theory and spectroscopy        #
                #                                                       #
                #                      Frank Neese                      #
                #                                                       #
                #     Directorship, Architecture, Infrastructure        #
                #                    SHARK, DRIVERS                     #
                #        Core code/Algorithms in most modules           #
                #                                                       #
                #        Max Planck Institute fuer Kohlenforschung      #
                #                Kaiser Wilhelm Platz 1                 #
                #                 D-45470 Muelheim/Ruhr                 #
                #                      Germany                          #
                #                                                       #
                #                  All rights reserved                  #
                #                        -***-                          #
                #########################################################


                         Program Version 6.0.1  -  RELEASE   -


 With contributions from (in alphabetic order):
[Max-Planck-Institut fuer Kohlenforschung]                               
  Daniel Aravena         : Magnetic Suceptibility                        
  Michael Atanasov       : Ab Initio Ligand Field Theory (pilot matlab implementation)
  Alexander A. Auer      : GIAO ZORA, VPT2 properties, NMR spectrum      
  Ute Becker             : All parallelization in ORCA, NUMFREQ, NUMCALC 
  Giovanni Bistoni       : ED, misc. LED, open-shell LED, HFLD           
  Martin Brehm           : Molecular dynamics                            
  Dmytro Bykov           : pre 5.0 version of the SCF Hessian            
  Marcos Casanova-Páez   : Triplet and SCS-CIS(D). UHF-(DLPNO)-IP/EA/STEOM-CCSD. UHF-CVS-IP/STEOM-CCSD   
  Vijay G. Chilkuri      : MRCI spin determinant printing, contributions to CSF-ICE 
  Pauline Colinet        : FMM embedding                                 
  Dipayan Datta          : RHF DLPNO-CCSD density                        
  Achintya Kumar Dutta   : EOM-CC, STEOM-CC                              
  Nicolas Foglia         : Exact transition moments, OPA infrastructure, MCD improvements    
  Dmitry Ganyushin       : Spin-Orbit,Spin-Spin,Magnetic field MRCI      
  Miquel Garcia-Rates    : C-PCM and meta-GGA Hessian, CCSD/C-PCM, Gaussian charge scheme 
  Tiago L. C. Gouveia    : GS-ROHF, GS-ROCIS                             
  Yang Guo               : DLPNO-NEVPT2, F12-NEVPT2, CIM, IAO-localization        
  Andreas Hansen         : Spin unrestricted coupled pair/coupled cluster methods 
  Ingolf Harden          : AUTO-CI MPn and infrastructure                
  Benjamin Helmich-Paris : MC-RPA, TRAH-(SCF,CASSCF), AVAS, COSX integrals, SCF dyn. polar. 
  Lee Huntington         : MR-EOM, pCC                                   
  Robert Izsak           : Overlap fitted RIJCOSX, COSX-SCS-MP3, EOM     
  Riya Kayal             : Wick's Theorem for AUTO-CI, AUTO-CI UHF-CCSDT 
  Emily Kempfer          : AUTO-CI, RHF CISDT and CCSDT                  
  Christian Kollmar      : KDIIS, OOCD, Brueckner-CCSD(T), CCSD density, CASPT2, CASPT2-K, improved NEVPT2 
  Axel Koslowski         : Symmetry handling                             
  Simone Kossmann        : meta-GGA functionals, TD-DFT gradient, OOMP2, (MP2 Hessian; deprecated post 5.0) 
  Lucas Lang             : DCDCAS                                        
  Marvin Lechner         : AUTO-CI (C++ implementation), FIC-MRCC        
  Spencer Leger          : CASSCF response                               
  Dagmar Lenk            : GEPOL surface, SMD, ORCA-2-JSON               
  Dimitrios Liakos       : Extrapolation schemes; Compound Job, initial MDCI parallelization 
  Dimitrios Manganas     : Further ROCIS development; embedding schemes. LFT, Crystal Embedding 
  Dimitrios Pantazis     : SARC Basis sets                               
  Anastasios Papadopoulos: AUTO-CI, single reference methods and gradients 
  Taras Petrenko         : pre 6.0 DFT Hessian and TD-DFT gradient, (ASA, deprecated), ECA, 1-Electron XAS/XES, NRVS 
  Peter Pinski           : DLPNO-MP2, DLPNO-MP2 Gradient                 
  Christoph Reimann      : Effective Core Potentials                     
  Marius Retegan         : Local ZFS, SOC                                
  Christoph Riplinger    : Optimizer, TS searches, QM/MM, DLPNO-CCSD(T), (RO)-DLPNO pert. Triples 
  Michael Roemelt        : Original ROCIS implementation                 
  Masaaki Saitow         : Open-shell DLPNO-CCSD energy and density      
  Barbara Sandhoefer     : DKH picture change effects                    
  Kantharuban Sivalingam : CASSCF convergence/infrastructure, NEVPT2 and variants, FIC-MRCI 
  Bernardo de Souza      : ESD, SOC TD-DFT                               
  Georgi L. Stoychev     : AutoAux, RI-MP2 NMR, DLPNO-MP2 response, X2C  
  Van Anh Tran           : RI-MP2 g-tensors                              
  Willem Van den Heuvel  : Paramagnetic NMR                              
  Zikuan Wang            : NOTCH, Electric field optimization            
  Frank Wennmohs         : Technical directorship and infrastructure     
  Hang Xu                : AUTO-CI-Response properties                   
                                                                         
[FACCTs GmbH]                                                            
  Markus Bursch, Miquel Garcia-Rates, Christoph Riplinger, Bernardo de Souza, Georgi L. Stoychev 
                                                                 
  APM, Basis sets (HGBS, AHGBS, def-TZVP (Ac-Lr), def2-XVPD (La-Lu)), CI-OPT, improved COSX, DLPNO-Multilevel,           
  DOCKER, DRACO, updates on ESD, GOAT, IRC, LR-CPCM, MBIS, meta-GGA TD-DFT gradient, ML-optimized integration grids, 
  MM, NACMEs, nearIR, NEB, NEB-TS, NL-DFT gradient (VV10), 2- and 3-layer-ONIOM, interface openCOSMO-RS, QMMM,   
  Crystal-QMMM, SF, symmetry and pop. for TD-DFT, r2SCAN hybrids, SOLVATOR                                   
                                                                         
[Other institutions]                                                     
  V. Asgeirsson          : NEB                                           
  Christoph Bannwarth    : sTDA-DFT, sTD-DFT, PBEh-3c, B97-3c, D3        
  Sebastian Ehlert       : rSCAN, r2SCAN, r2SCAN-3c, D4, dhf basis sets  
  Marvin Friede          : D4 for Fr, Ra, Ac-Lr                          
  Lars Goerigk           : TD-DFT with DH, B97 family of functionals     
  Stefan Grimme          : VdW corrections, initial TS optimization, DFT functionals, gCP, sTDA/sTD-DF 
  Waldemar Hujo          : DFT-NL                                        
  H. Jonsson             : NEB                                           
  Holger Kruse           : gCP                                           
  Marcel Mueller         : wB97X-3c, vDZP basis set                      
  Hagen Neugebauer       : wr2SCAN                                       
  Tobias Risthaus        : range-separated hybrid DFT                    
  Lukas Wittmann         : regularized MP2, r2SCAN double-hybrids, wr2SCAN        
                                                                         
We gratefully acknowledge several colleagues who have allowed us to      
interface, adapt or use parts of their codes:                            
  Ed Valeev, F. Pavosevic, A. Kumar             : LibInt (2-el integral package), F12 methods 
  Garnet Chan, S. Sharma, J. Yang, R. Olivares  : DMRG                   
  Ulf Ekstrom                                   : XCFun DFT Library      
  Mihaly Kallay                                 : mrcc  (arbitrary order and MRCC methods)
  Frank Weinhold                                : gennbo (NPA and NBO analysis)           
  Simon Mueller                                 : openCOSMO-RS                            
  Christopher J. Cramer and Donald G. Truhlar   : smd solvation model                     
  S Lehtola, MJT Oliveira, MAL Marques          : LibXC Library                           
  Liviu Ungur et al                             : ANISO software                          


 Your calculation uses the libint2 library for the computation of 2-el integrals
 For citations please refer to: http://libint.valeyev.net

 Your ORCA version has been built with support for libXC version: 6.2.2
 For citations please refer to: https://libxc.gitlab.io

 This ORCA versions uses:
   CBLAS   interface :  Fast vector & matrix operations
   LAPACKE interface :  Fast linear algebra routines
   SCALAPACK package :  Parallel linear algebra routines
   Shared memory     :  Shared parallel matrices
   BLAS/LAPACK       :  OpenBLAS 0.3.27  USE64BITINT DYNAMIC_ARCH NO_AFFINITY Zen SINGLE_THREADED
        Core in use  :  Zen
   Copyright (c) 2011-2014, The OpenBLAS Project


Your calculation utilizes the geometrical counterpoise correction gCP
Please cite in your paper:
H.Kruse, S. Grimme J.Chem.Phys., 136, (2012), 154101 
   

Your calculation utilizes the atom-pairwise dispersion correction
based on EEQ partial charges (D4)


================================================================================

----- Orbital basis set information -----
Your calculation utilizes the basis: def2-SV(P)
   F. Weigend and R. Ahlrichs, Phys. Chem. Chem. Phys. 7, 3297 (2005).

----- AuxJ basis set information -----
Your calculation utilizes the auxiliary basis: def2/J
   F. Weigend, Phys. Chem. Chem. Phys. 8, 1057 (2006).

================================================================================
                                        WARNINGS
                       Please study these warnings very carefully!
================================================================================

WARNING: Old DensityContainer found on disk!
         Will remove this file - 
         If you want to keep old densities, please start your calculation with a different basename. 


================================================================================
                                       INPUT FILE
================================================================================
NAME = sp.inp
|  1> ! pbe def2-sv(p) def2/J RI DEFGRID1 loosescf d4 GCP(DFT/SV(P)) printgap
|  2> %output
|  3>     printlevel normal
|  4> end
|  5> * xyz 0 1
|  6> C -1.2633364285 0.2804373764 0.0182988305
|  7> C -0.0005265995 -0.5728464057 0.0182904508
|  8> N 1.221664531 0.2340925862 0.0182912458
|  9> H -2.1462185298 -0.3518407977 0.0699827666
| 10> H -1.2638621186 0.9469721407 0.878046797
| 11> H -1.3213877567 0.8807869541 -0.88893475
| 12> H -0.0241588359 -1.2515019939 -0.8425129054
| 13> H 0.0137714995 -1.192291378 0.9239540503
| 14> H 0.9962164186 1.2170791466 -0.0797552453
| 15> H 1.8295466968 -0.0177721606 -0.7510018164
| 16> *
| 17> 
| 18>                          ****END OF INPUT****
================================================================================

                       ****************************
                       * Single Point Calculation *
                       ****************************

---------------------------------
CARTESIAN COORDINATES (ANGSTROEM)
---------------------------------
  C     -1.263336    0.280437    0.018299
  C     -0.000527   -0.572846    0.018290
  N      1.221665    0.234093    0.018291
  H     -2.146219   -0.351841    0.069983
  H     -1.263862    0.946972    0.878047
  H     -1.321388    0.880787   -0.888935
  H     -0.024159   -1.251502   -0.842513
  H      0.013771   -1.192291    0.923954
  H      0.996216    1.217079   -0.079755
  H      1.829547   -0.017772   -0.751002

----------------------------
CARTESIAN COORDINATES (A.U.)
----------------------------
  NO LB      ZA    FRAG     MASS         X           Y           Z
   0 C     6.0000    0    12.011   -2.387360    0.529950    0.034580
   1 C     6.0000    0    12.011   -0.000995   -1.082523    0.034564
   2 N     7.0000    0    14.007    2.308611    0.442371    0.034565
   3 H     1.0000    0     1.008   -4.055765   -0.664883    0.132248
   4 H     1.0000    0     1.008   -2.388353    1.789518    1.659268
   5 H     1.0000    0     1.008   -2.497061    1.664446   -1.679843
   6 H     1.0000    0     1.008   -0.045654   -2.364996   -1.592119
   7 H     1.0000    0     1.008    0.026024   -2.253104    1.746020
   8 H     1.0000    0     1.008    1.882576    2.299946   -0.150716
   9 H     1.0000    0     1.008    3.457342   -0.033585   -1.419188

--------------------------------
INTERNAL COORDINATES (ANGSTROEM)
--------------------------------
 C      0   0   0     0.000000000000     0.00000000     0.00000000
 C      1   0   0     1.524067543478     0.00000000     0.00000000
 N      2   1   0     1.464548290813   112.51863372     0.00000000
 H      1   2   3     1.087164993683   110.32056615   182.90591114
 H      1   2   3     1.087858186655   110.08664669   302.70182023
 H      1   2   3     1.089432118921   110.65095907    62.86616517
 H      2   1   3     1.096409735472   109.18958047   236.23228475
 H      2   1   3     1.097334527299   109.07706720   119.15616059
 H      3   2   1     1.013263314114   110.41639155   354.07334335
 H      3   2   1     1.012308447919   111.34816751   234.67845100

---------------------------
INTERNAL COORDINATES (A.U.)
---------------------------
 C      0   0   0     0.000000000000     0.00000000     0.00000000
 C      1   0   0     2.880070266772     0.00000000     0.00000000
 N      2   1   0     2.767595179538   112.51863372     0.00000000
 H      1   2   3     2.054444100447   110.32056615   182.90591114
 H      1   2   3     2.055754045321   110.08664669   302.70182023
 H      1   2   3     2.058728346259   110.65095907    62.86616517
 H      2   1   3     2.071914130607   109.18958047   236.23228475
 H      2   1   3     2.073661733891   109.07706720   119.15616059
 H      3   2   1     1.914790165224   110.41639155   354.07334335
 H      3   2   1     1.912985729621   111.34816751   234.67845100

---------------------
BASIS SET INFORMATION
---------------------
There are 3 groups of distinct atoms

 Group   1 Type C   : 7s4p1d contracted to 3s2p1d pattern {511/31/1}
 Group   2 Type N   : 7s4p1d contracted to 3s2p1d pattern {511/31/1}
 Group   3 Type H   : 4s contracted to 2s pattern {31}

Atom   0C    basis set group =>   1
Atom   1C    basis set group =>   1
Atom   2N    basis set group =>   2
Atom   3H    basis set group =>   3
Atom   4H    basis set group =>   3
Atom   5H    basis set group =>   3
Atom   6H    basis set group =>   3
Atom   7H    basis set group =>   3
Atom   8H    basis set group =>   3
Atom   9H    basis set group =>   3
---------------------------------
AUXILIARY/J BASIS SET INFORMATION
---------------------------------
There are 3 groups of distinct atoms

 Group   1 Type C   : 12s5p4d2f1g contracted to 6s4p3d1f1g pattern {711111/2111/211/2/1}
 Group   2 Type N   : 12s5p4d2f1g contracted to 6s4p3d1f1g pattern {711111/2111/211/2/1}
 Group   3 Type H   : 5s2p1d contracted to 3s1p1d pattern {311/2/1}

Atom   0C    basis set group =>   1
Atom   1C    basis set group =>   1
Atom   2N    basis set group =>   2
Atom   3H    basis set group =>   3
Atom   4H    basis set group =>   3
Atom   5H    basis set group =>   3
Atom   6H    basis set group =>   3
Atom   7H    basis set group =>   3
Atom   8H    basis set group =>   3
Atom   9H    basis set group =>   3

Checking for AutoStart:
The File: sp.gbw exists
Trying to determine its content:
     ... Fine, the file contains calculation information
     ... Fine, the calculation information was read
     ... Fine, the file contains a basis set
     ... Fine, the basis set was read
     ... Fine, the file contains a geometry
     ... Fine, the geometry was read
     ... Fine, the file contains a set of orbitals
     ... Fine, the orbitals can be read
     => possible old guess file was deleted
     => GBW file was renamed to GES file
     => GES file is set as startup file
     => Guess is set to MORead
     ... now leaving AutoStart

------------------------------------------------------------------------------
                             ORCA STARTUP CALCULATIONS
                           -- RI-GTO INTEGRALS CHOSEN --
------------------------------------------------------------------------------
------------------------------------------------------------------------------
                   ___                                                        
                  /   \      - P O W E R E D   B Y -                         
                 /     \                                                     
                 |  |  |   _    _      __       _____    __    __             
                 |  |  |  | |  | |    /  \     |  _  \  |  |  /  |          
                  \  \/   | |  | |   /    \    | | | |  |  | /  /          
                 / \  \   | |__| |  /  /\  \   | |_| |  |  |/  /          
                |  |  |   |  __  | /  /__\  \  |    /   |      \           
                |  |  |   | |  | | |   __   |  |    \   |  |\   \          
                \     /   | |  | | |  |  |  |  | |\  \  |  | \   \       
                 \___/    |_|  |_| |__|  |__|  |_| \__\ |__|  \__/        
                                                                              
                      - O R C A' S   B I G   F R I E N D -                    
                                      &                                       
                       - I N T E G R A L  F E E D E R -                       
                                                                              
 v1 FN, 2020, v2 2021, v3 2022-2024                                           
------------------------------------------------------------------------------


----------------------
SHARK INTEGRAL PACKAGE
----------------------

Number of atoms                             ...     10
Number of basis functions                   ...     56
Number of shells                            ...     32
Maximum angular momentum                    ...      2
Integral batch strategy                     ... SHARK/LIBINT Hybrid
RI-J (if used) integral strategy            ... SPLIT-RIJ (Revised 2003 algorithm where possible)
Printlevel                                  ...      1
Contraction scheme used                     ... SEGMENTED contraction
Prescreening option                         ... SCHWARTZ
   Thresh                                   ... 1.000e-09
   Tcut                                     ... 1.000e-10
   Tpresel                                  ... 1.000e-10 
Coulomb Range Separation                    ... NOT USED
Exchange Range Separation                   ... NOT USED
Multipole approximations                    ... NOT USED
Finite Nucleus Model                        ... NOT USED
CABS basis                                  ... NOT available
Auxiliary Coulomb fitting basis             ... AVAILABLE
   # of basis functions in Aux-J            ...    224
   # of shells in Aux-J                     ...     80
   Maximum angular momentum in Aux-J        ...      4
Auxiliary J/K fitting basis                 ... NOT available
Auxiliary Correlation fitting basis         ... NOT available
Auxiliary 'external' fitting basis          ... NOT available

Checking pre-screening integrals            ... done (  0.0 sec) Dimension = 32
Check shell pair data                       ... done (  0.0 sec)
Shell pair information
Shell pair cut-off parameter TPreSel        ...   1.0e-10
Total number of shell pairs                 ...       528
Shell pairs after pre-screening             ...       527
Total number of primitive shell pairs       ...      2140
Primitive shell pairs kept                  ...      1755
          la=0 lb=0:    275 shell pairs
          la=1 lb=0:    138 shell pairs
          la=1 lb=1:     21 shell pairs
          la=2 lb=0:     69 shell pairs
          la=2 lb=1:     18 shell pairs
          la=2 lb=2:      6 shell pairs

Calculating one electron integrals          ... done (  0.0 sec)
Calculating RI/J V-Matrix + Cholesky decomp.... done (  0.0 sec)
Calculating Nuclear repulsion               ... done (  0.0 sec) ENN=     83.071863252716 Eh

Diagonalization of the overlap matrix:
Smallest eigenvalue                        ... 3.367e-03
Time for diagonalization                   ...    0.000 sec
Threshold for overlap eigenvalues          ... 1.000e-07
Number of eigenvalues below threshold      ... 0
Time for construction of square roots      ...    0.000 sec
Total time needed                          ...    0.001 sec

-------------------
DFT GRID GENERATION
-------------------

General Integration Accuracy     IntAcc      ... 4.159
Radial Grid Type                 RadialGrid  ... OptM3 with GC (2021)
Angular Grid (max. ang.)         AngularGrid ... 3 (Lebedev-194)
Angular grid pruning method      GridPruning ... 4 (adaptive)
Weight generation scheme         WeightScheme... mBecke (2022)
Basis function cutoff            BFCut       ... 1.0000e-10
Integration weight cutoff        WCut        ... 1.0000e-14
Partially contracted basis set               ... off
Rotationally invariant grid construction     ... off
Angular grids for H and He will be reduced by one unit

Total number of grid points                  ...    19932
Total number of batches                      ...      316
Average number of points per batch           ...       63
Average number of grid points per atom       ...     1993
Initializing property integral containers    ... done (  0.0 sec)

SHARK setup successfully completed in   0.1 seconds

Maximum memory used throughout the entire STARTUP-calculation: 10.2 MB
-------------------------------------------------------------------------------
                                 ORCA GUESS
                   Start orbitals & Density for SCF / CASSCF
-------------------------------------------------------------------------------

------------
SCF SETTINGS
------------
Hamiltonian:
 Density Functional     Method          .... DFT(GTOs)
 Exchange Functional    Exchange        .... PBE
   PBE kappa parameter   XKappa         ....  0.804000
   PBE mue parameter    XMuePBE         ....  0.219520
 Correlation Functional Correlation     .... PBE
   PBE beta parameter  CBetaPBE         ....  0.066725
 LDA part of GGA corr.  LDAOpt          .... PW91-LDA
 Gradients option       PostSCFGGA      .... off
   NL short-range parameter             ....  6.400000
 RI-approximation to the Coulomb term is turned on
   Number of AuxJ basis functions       .... 224


General Settings:
 Integral files         IntName         .... sp
 Hartree-Fock type      HFTyp           .... RHF
 Total Charge           Charge          ....    0
 Multiplicity           Mult            ....    1
 Number of Electrons    NEL             ....   26
 Basis Dimension        Dim             ....   56
 Nuclear Repulsion      ENuc            ....     83.0718632527 Eh

Convergence Acceleration:
 AO-DIIS                CNVDIIS         .... on
   Start iteration      DIISMaxIt       ....    12
   Startup error        DIISStart       ....  0.200000
   # of expansion vecs  DIISMaxEq       ....     5
   Bias factor          DIISBfac        ....   1.050
   Max. coefficient     DIISMaxC        ....  10.000
 MO-DIIS                CNVKDIIS        .... off
 Trust-Rad. Augm. Hess. CNVTRAH         .... auto
   Auto Start mean grad. ratio tolernc. ....  1.125000
   Auto Start start iteration           ....     1
   Auto Start num. interpolation iter.  ....    10
   Max. Number of Micro iterations      ....    24
   Max. Number of Macro iterations      .... Maxiter - #DIIS iter
   Number of Davidson start vectors     ....     2
   Converg. threshold    (grad. norm)   ....   1.000e-04
   Grad. Scal. Fac. for Micro threshold ....   0.100
   Minimum threshold for Micro iter.    ....   1.000e-02
   NR start threshold (gradient norm)   ....   1.000e-04
   Initial trust radius                 ....   0.400
   Minimum AH scaling param. (alpha)    ....   1.000
   Maximum AH scaling param. (alpha)    .... 1000.000
   Quad. conv. algorithm                .... NR
   White noise on init. David. guess    .... on
   Maximum white noise                  ....   0.010
   Pseudo random numbers                .... off
   Inactive MOs                         .... canonical
   Orbital update algorithm             .... Taylor
   Preconditioner                       .... Diag
   Full preconditioner red. dimension   ....   250
 SOSCF                  CNVSOSCF        .... on
   Start iteration      SOSCFMaxIt      ....   150
   Startup grad/error   SOSCFStart      ....  0.003300
   Hessian update       SOSCFHessUp     .... L-BFGS
 Level Shifting         CNVShift        .... on
   Level shift para.    LevelShift      ....    0.2500
   Turn off err/grad.   ShiftErr        ....    0.0010
 Zerner damping         CNVZerner       .... off
 Static damping         CNVDamp         .... on
   Fraction old density DampFac         ....    0.7000
   Max. Damping (<1)    DampMax         ....    0.9800
   Min. Damping (>=0)   DampMin         ....    0.0000
   Turn off err/grad.   DampErr         ....    0.1000

SCF Procedure:
 Maximum # iterations   MaxIter         ....   125
 SCF integral mode      SCFMode         .... Direct
   Integral package                     .... SHARK and LIBINT hybrid scheme
 Reset frequency        DirectResetFreq ....    20
 Integral Threshold     Thresh          ....  1.000e-09 Eh
 Primitive CutOff       TCut            ....  1.000e-10 Eh

Convergence Tolerance:
 Convergence Check Mode ConvCheckMode   .... Total+1el-Energy
 Convergence forced     ConvForced      .... 0
 Energy Change          TolE            ....  1.000e-05 Eh
 1-El. energy change                    ....  1.000e-02 Eh
 Orbital Gradient       TolG            ....  1.000e-04
 Orbital Rotation angle TolX            ....  1.000e-04
 DIIS Error             TolErr          ....  5.000e-04

---------------------
INITIAL GUESS: MOREAD
---------------------
Guess MOs are being read from file: sp.ges
Input Geometry matches current geometry (good)
Input basis set matches current basis set (good)
Occupation numbers will be reassigned to an Aufbau configuration
MOs were renormalized
MOs were reorthogonalized (Cholesky)
                      ------------------
                      INITIAL GUESS DONE (   0.0 sec)
                      ------------------
             **** ENERGY FILE WAS UPDATED (sp.en.tmp) ****
Finished Guess after   0.0 sec
Maximum memory used throughout the entire GUESS-calculation: 6.3 MB

-------------------------------------------------------------------------------------------
                                      ORCA LEAN-SCF
                              memory conserving SCF solver
-------------------------------------------------------------------------------------------

----------------------------------------D-I-I-S--------------------------------------------
Iteration    Energy (Eh)           Delta-E    RMSDP     MaxDP     DIISErr   Damp  Time(sec)
-------------------------------------------------------------------------------------------
               ***  Starting incremental Fock matrix formation  ***
                              *** Initializing SOSCF ***
---------------------------------------S-O-S-C-F--------------------------------------
Iteration    Energy (Eh)           Delta-E    RMSDP     MaxDP     MaxGrad    Time(sec)
--------------------------------------------------------------------------------------
    1    -134.8545762196899886     0.00e+00  2.34e-05  2.57e-04  1.87e-05     0.1
               *** Restarting incremental Fock matrix formation ***
    2    -134.8545762806517132    -6.10e-08  2.82e-05  2.80e-04  5.27e-05     0.1
    3    -134.8545762190727260     6.16e-08  1.44e-05  1.80e-04  1.01e-04     0.1
                 **** Energy Check signals convergence ****

               *****************************************************
               *                     SUCCESS                       *
               *           SCF CONVERGED AFTER   3 CYCLES          *
               *****************************************************

             **** ENERGY FILE WAS UPDATED (sp.en.tmp) ****

----------------
TOTAL SCF ENERGY
----------------

Total Energy       :       -134.85457621907273 Eh           -3669.57958 eV

Components:
Nuclear Repulsion  :         83.07186325271606 Eh            2260.50032 eV
Electronic Energy  :       -217.92643947178880 Eh           -5930.07990 eV
One Electron Energy:       -345.31982014254783 Eh           -9396.63002 eV
Two Electron Energy:        127.39338067075904 Eh            3466.55012 eV

Virial components:
Potential Energy   :       -268.56125964532288 Eh           -7307.92340 eV
Kinetic Energy     :        133.70668342625015 Eh            3638.34383 eV
Virial Ratio       :          2.00858515642904

DFT components:
N(Alpha)           :       12.999976738846 electrons
N(Beta)            :       12.999976738846 electrons
N(Total)           :       25.999953477693 electrons
E(X)               :      -19.344959607170 Eh       
E(C)               :       -0.843240431658 Eh       
E(XC)              :      -20.188200038828 Eh       

---------------
SCF CONVERGENCE
---------------

  Last Energy change         ...   -6.1579e-08  Tolerance :   1.0000e-05
  Last MAX-Density change    ...    1.7963e-04  Tolerance :   1.0000e-03
  Last RMS-Density change    ...    1.4377e-05  Tolerance :   1.0000e-04
  Last DIIS Error            ...    1.5524e-04  Tolerance :   5.0000e-04
  Last Orbital Gradient      ...    1.0068e-04  Tolerance :   1.0000e-04
  Last Orbital Rotation      ...    4.6653e-05  Tolerance :   1.0000e-04


----------------
ORBITAL ENERGIES
----------------

  NO   OCC          E(Eh)            E(eV) 
   0   2.0000     -13.953769      -379.7014 
   1   2.0000      -9.904172      -269.5062 
   2   2.0000      -9.877217      -268.7727 
   3   2.0000      -0.786777       -21.4093 
   4   2.0000      -0.651909       -17.7393 
   5   2.0000      -0.538355       -14.6494 
   6   2.0000      -0.437133       -11.8950 
   7   2.0000      -0.395719       -10.7681 
   8   2.0000      -0.386348       -10.5131 
   9   2.0000      -0.333654        -9.0792 
  10   2.0000      -0.312823        -8.5124 
  11   2.0000      -0.301903        -8.2152 
  12   2.0000      -0.173796        -4.7292 
  13   0.0000       0.035502         0.9660 
  14   0.0000       0.072953         1.9852 
  15   0.0000       0.079386         2.1602 
  16   0.0000       0.100387         2.7317 
  17   0.0000       0.117638         3.2011 
  18   0.0000       0.124800         3.3960 
  19   0.0000       0.144484         3.9316 
  20   0.0000       0.204641         5.5686 
  21   0.0000       0.219023         5.9599 
  22   0.0000       0.399769        10.8783 
  23   0.0000       0.412571        11.2266 
*Only the first 10 virtual orbitals were printed.

                    ********************************
                    * MULLIKEN POPULATION ANALYSIS *
                    ********************************

-----------------------
MULLIKEN ATOMIC CHARGES
-----------------------
   0 C :   -0.324656
   1 C :   -0.083914
   2 N :   -0.469007
   3 H :    0.106149
   4 H :    0.112504
   5 H :    0.096503
   6 H :    0.077162
   7 H :    0.087066
   8 H :    0.196861
   9 H :    0.201333
Sum of atomic charges:   -0.0000000

--------------------------------
MULLIKEN REDUCED ORBITAL CHARGES
--------------------------------
  0 C s       :     3.115276  s :     3.115276
      pz      :     1.069087  p :     3.180510
      px      :     1.050429
      py      :     1.060993
      dz2     :     0.005123  d :     0.028870
      dxz     :     0.002073
      dyz     :     0.010278
      dx2y2   :     0.004102
      dxy     :     0.007295

  1 C s       :     3.047295  s :     3.047295
      pz      :     1.066288  p :     2.985562
      px      :     0.905749
      py      :     1.013524
      dz2     :     0.006745  d :     0.051057
      dxz     :     0.007636
      dyz     :     0.014687
      dx2y2   :     0.010825
      dxy     :     0.011165

  2 N s       :     3.499672  s :     3.499672
      pz      :     1.588440  p :     3.946928
      px      :     1.263051
      py      :     1.095438
      dz2     :     0.004775  d :     0.022407
      dxz     :     0.005848
      dyz     :     0.002491
      dx2y2   :     0.005872
      dxy     :     0.003421

  3 H s       :     0.893851  s :     0.893851

  4 H s       :     0.887496  s :     0.887496

  5 H s       :     0.903497  s :     0.903497

  6 H s       :     0.922838  s :     0.922838

  7 H s       :     0.912934  s :     0.912934

  8 H s       :     0.803139  s :     0.803139

  9 H s       :     0.798667  s :     0.798667


------------------------
MULLIKEN OVERLAP CHARGES
------------------------
B(  0-C ,  1-C ) :   0.9338 B(  0-C ,  2-N ) :  -0.1181 B(  0-C ,  3-H ) :   0.7045 
B(  0-C ,  4-H ) :   0.7677 B(  0-C ,  5-H ) :   0.7128 B(  0-C ,  7-H ) :  -0.0729 
B(  1-C ,  2-N ) :   0.8507 B(  1-C ,  4-H ) :  -0.0511 B(  1-C ,  6-H ) :   0.7284 
B(  1-C ,  7-H ) :   0.7331 B(  1-C ,  8-H ) :  -0.1028 B(  2-N ,  6-H ) :  -0.0609 
B(  2-N ,  7-H ) :  -0.1049 B(  2-N ,  8-H ) :   0.6773 B(  2-N ,  9-H ) :   0.6393 
B(  4-H ,  5-H ) :  -0.0769 B(  6-H ,  7-H ) :  -0.1040 B(  8-H ,  9-H ) :  -0.0646 



                     *******************************
                     * LOEWDIN POPULATION ANALYSIS *
                     *******************************

----------------------
LOEWDIN ATOMIC CHARGES
----------------------
   0 C :   -0.356132
   1 C :   -0.181346
   2 N :   -0.429327
   3 H :    0.123710
   4 H :    0.119717
   5 H :    0.112908
   6 H :    0.101048
   7 H :    0.104076
   8 H :    0.200276
   9 H :    0.205070

-------------------------------
LOEWDIN REDUCED ORBITAL CHARGES
-------------------------------
  0 C s       :     2.953305  s :     2.953305
      pz      :     1.125360  p :     3.332579
      px      :     1.092813
      py      :     1.114406
      dz2     :     0.013584  d :     0.070248
      dxz     :     0.003568
      dyz     :     0.024141
      dx2y2   :     0.009642
      dxy     :     0.019313

  1 C s       :     2.906105  s :     2.906105
      pz      :     1.114321  p :     3.158882
      px      :     0.984790
      py      :     1.059772
      dz2     :     0.016392  d :     0.116359
      dxz     :     0.014007
      dyz     :     0.034778
      dx2y2   :     0.021869
      dxy     :     0.029313

  2 N s       :     3.250937  s :     3.250937
      pz      :     1.628767  p :     4.133327
      px      :     1.316506
      py      :     1.188054
      dz2     :     0.008225  d :     0.045062
      dxz     :     0.010441
      dyz     :     0.003857
      dx2y2   :     0.013353
      dxy     :     0.009185

  3 H s       :     0.876290  s :     0.876290

  4 H s       :     0.880283  s :     0.880283

  5 H s       :     0.887092  s :     0.887092

  6 H s       :     0.898952  s :     0.898952

  7 H s       :     0.895924  s :     0.895924

  8 H s       :     0.799724  s :     0.799724

  9 H s       :     0.794930  s :     0.794930


---------------------------------
LOEWDIN BOND ORDERS (THRESH 0.050000)
---------------------------------
B(  0-C ,  1-C ) :   1.1444 B(  0-C ,  2-N ) :   0.0603 B(  0-C ,  3-H ) :   0.9356 
B(  0-C ,  4-H ) :   0.9389 B(  0-C ,  5-H ) :   0.9394 B(  1-C ,  2-N ) :   1.1919 
B(  1-C ,  6-H ) :   0.9192 B(  1-C ,  7-H ) :   0.9132 B(  2-N ,  8-H ) :   0.9229 
B(  2-N ,  9-H ) :   0.9253 

------------------------------------------
LOEWDIN REDUCED ORBITAL POPULATIONS PER MO
-------------------------------------------
THRESHOLD FOR PRINTING IS 0.1%%
                      0         1         2         3         4         5   
                 -13.95377  -9.90417  -9.87722  -0.78678  -0.65191  -0.53835
                   2.00000   2.00000   2.00000   2.00000   2.00000   2.00000
                  --------  --------  --------  --------  --------  --------
 0 C  s               0.0       0.0      99.7       3.3      32.9      10.0
 0 C  px              0.0       0.1       0.0       1.8       0.2       4.6
 0 C  py              0.0       0.0       0.0       0.2       0.4       4.8
 0 C  dxy             0.0       0.0       0.0       0.0       0.0       0.2
 1 C  s               0.0      99.6       0.0      16.6      10.1      18.0
 1 C  px              0.0       0.0       0.1       3.0      10.8       1.3
 1 C  py              0.0       0.0       0.0       2.8       0.0       7.5
 1 C  dz2             0.0       0.0       0.0       0.1       0.0       0.1
 1 C  dxy             0.0       0.0       0.0       0.2       0.4       0.0
 2 N  s              99.8       0.0       0.0      43.6       8.7       1.6
 2 N  pz              0.0       0.0       0.0       1.2       0.9       0.7
 2 N  px              0.0       0.1       0.0       1.5       1.9       3.6
 2 N  py              0.0       0.0       0.0       0.1       0.8       9.4
 2 N  dxy             0.0       0.0       0.0       0.0       0.0       0.2
 3 H  s               0.0       0.0       0.1       0.4       7.8       3.9
 4 H  s               0.0       0.0       0.1       0.6       7.1       5.3
 5 H  s               0.0       0.0       0.1       0.6       7.0       5.4
 6 H  s               0.0       0.1       0.0       2.4       2.3       8.6
 7 H  s               0.0       0.1       0.0       2.2       2.4       8.5
 8 H  s               0.0       0.0       0.0       9.7       2.4       4.6
 9 H  s               0.0       0.0       0.0       9.3       3.7       1.3

                      6         7         8         9        10        11   
                  -0.43713  -0.39572  -0.38635  -0.33365  -0.31282  -0.30190
                   2.00000   2.00000   2.00000   2.00000   2.00000   2.00000
                  --------  --------  --------  --------  --------  --------
 0 C  s               0.5       0.2       0.1       0.0       0.3       0.2
 0 C  pz              2.5      24.1       2.0       9.2       3.3      15.1
 0 C  px              6.9       4.3       0.6      25.8       1.7       7.6
 0 C  py              0.9       0.2      20.0       5.0      22.3       1.5
 0 C  dz2             0.0       0.0       0.2       0.1       0.3       0.0
 0 C  dyz             0.0       0.1       0.0       0.3       0.1       0.7
 0 C  dx2y2           0.0       0.0       0.0       0.1       0.3       0.0
 0 C  dxy             0.0       0.1       0.0       0.5       0.0       0.1
 1 C  s               0.2       0.2       0.1       0.2       0.2       0.0
 1 C  pz              8.2      23.7       1.5       0.8       2.3      17.0
 1 C  px              0.0       2.8      14.5       8.7       2.0       5.0
 1 C  py              7.9       0.6       7.3       0.1      23.8       2.8
 1 C  dz2             0.0       0.0       0.1       0.0       0.4       0.0
 1 C  dxz             0.0       0.0       0.0       0.1       0.0       0.1
 1 C  dyz             0.0       0.1       0.0       0.0       0.0       0.7
 1 C  dx2y2           0.1       0.1       0.0       0.1       0.5       0.1
 1 C  dxy             0.0       0.0       0.0       0.5       0.0       0.2
 2 N  s               0.0       0.7       0.0       1.5       0.1       0.1
 2 N  pz             12.0       0.8       0.0       7.1       1.8       0.1
 2 N  px             18.4       2.3       5.7       6.1       2.2       5.9
 2 N  py             10.5       8.3      22.8       0.5       4.3       1.2
 2 N  dz2             0.2       0.0       0.0       0.0       0.0       0.0
 2 N  dxz             0.1       0.1       0.0       0.0       0.0       0.2
 2 N  dx2y2           0.0       0.0       0.2       0.0       0.3       0.1
 2 N  dxy             0.0       0.0       0.1       0.0       0.0       0.0
 3 H  s               3.3       1.6       4.1      17.2       3.2       1.7
 4 H  s               0.5       8.3       1.5       9.1       1.1      10.2
 5 H  s               0.9       4.6       6.5       1.2      11.4       6.2
 6 H  s               4.7       6.0       0.7       0.9       2.8      13.7
 7 H  s               0.3       6.1       3.3       0.1      11.5       4.8
 8 H  s               6.2       3.0       8.3       0.2       3.4       1.4
 9 H  s              15.5       1.6       0.1       4.3       0.3       2.8

                     12        13        14        15        16        17   
                  -0.17380   0.03550   0.07295   0.07939   0.10039   0.11764
                   2.00000   0.00000   0.00000   0.00000   0.00000   0.00000
                  --------  --------  --------  --------  --------  --------
 0 C  s               0.3       7.4      14.3       0.6       2.9       0.0
 0 C  pz              0.0       0.1       0.4       0.1      10.1       3.1
 0 C  px              1.1       1.6       1.8       0.3       1.3      10.5
 0 C  py              0.2       0.8       0.5       3.8       1.2      10.7
 0 C  dz2             0.0       0.0       0.1       0.0       0.0       0.6
 0 C  dxz             0.0       0.0       0.0       0.0       0.2       0.0
 0 C  dyz             0.1       0.0       0.1       0.0       0.7       0.3
 0 C  dxy             0.0       0.4       0.0       0.0       0.6       0.8
 1 C  s               0.1       5.2       1.2       5.1       2.1       0.1
 1 C  pz              2.2       0.7       2.1       1.4       8.3       0.2
 1 C  px              1.1       0.5       2.0       0.4       1.5       0.5
 1 C  py              0.0       3.3       0.1       4.9       0.7       1.0
 1 C  dz2             0.0       0.2       0.0       0.1       0.0       0.3
 1 C  dxz             0.4       0.0       0.0       0.0       0.3       0.1
 1 C  dyz             0.9       0.1       0.2       0.1       0.7       0.0
 1 C  dx2y2           0.1       0.0       0.0       0.5       0.0       0.3
 1 C  dxy             0.1       0.0       0.7       0.2       0.5       0.4
 2 N  s               6.4       9.3       7.9       2.4       1.3       0.1
 2 N  pz             56.8       2.6       1.9       0.1       0.0       0.2
 2 N  px             17.9       0.5       0.7       1.2       0.3       2.0
 2 N  py              1.4       0.9       0.1       7.3       0.2       1.0
 2 N  dz2             0.0       0.0       0.1       0.1       0.0       0.1
 2 N  dxz             0.0       0.1       0.1       0.1       0.1       0.0
 2 N  dx2y2           0.0       0.0       0.0       0.3       0.0       0.0
 3 H  s               0.4       6.9      11.9       0.7       1.3      35.9
 4 H  s               0.3       4.3      14.8       5.7       1.6      23.4
 5 H  s               0.4       7.6       6.1       2.4      33.5       0.2
 6 H  s               2.8      12.6       0.3      24.0       2.5       0.1
 7 H  s               5.5       2.8       7.3       4.8      25.4       1.6
 8 H  s               0.7      11.6       3.4      32.0       2.3       3.2
 9 H  s               0.7      20.2      21.7       1.4       0.2       3.4

                     18        19        20        21        22        23   
                   0.12480   0.14448   0.20464   0.21902   0.39977   0.41257
                   0.00000   0.00000   0.00000   0.00000   0.00000   0.00000
                  --------  --------  --------  --------  --------  --------
 0 C  s               4.3       0.9       0.4       0.8       0.1       2.6
 0 C  pz              7.7       6.3       0.1       0.0      22.8       1.8
 0 C  px              1.7       1.8       4.3      15.4       2.2      15.0
 0 C  py              3.7       0.7       0.5      10.4       0.0      20.1
 0 C  dz2             0.7       0.1       0.1       2.0       0.0       1.6
 0 C  dxz             0.1       0.6       0.0       0.0       0.1       0.0
 0 C  dyz             0.3       0.2       0.0       0.0       8.4       0.6
 0 C  dx2y2           0.1       0.3       2.7       0.1       0.0       0.2
 0 C  dxy             0.4       0.5       0.3       3.4       0.3       2.4
 1 C  s               9.0       3.2       6.3       0.4       0.2       1.0
 1 C  pz              1.0      12.9       0.6       0.0       5.6       0.2
 1 C  px              1.0       0.4       9.8      28.1       0.2      13.5
 1 C  py              0.4       2.1      23.0       3.5       0.7      15.7
 1 C  dz2             0.1       0.7       5.0       0.2       0.1       3.3
 1 C  dxz             0.3       0.1       0.0       0.0       0.5       0.1
 1 C  dyz             0.0       0.1       0.0       0.0       5.0       0.1
 1 C  dx2y2           0.6       0.3       0.4       0.0       0.3       0.3
 1 C  dxy             0.3       0.0       2.3       5.3       0.0       2.3
 2 N  s               0.3       0.6       3.4       0.5       0.1       0.0
 2 N  pz              0.8       2.9       1.8       0.1       0.6       0.2
 2 N  px              0.8       0.3      16.9       0.7       0.4       0.0
 2 N  py              3.0       3.6       2.7       8.3       0.2       1.0
 2 N  dz2             0.0       0.0       0.2       0.2       0.1       0.2
 2 N  dxz             0.3       0.2       0.0       0.0       0.6       0.0
 2 N  dx2y2           0.3       0.2       0.4       0.2       0.2       1.0
 2 N  dxy             0.0       0.1       1.5       0.3       0.0       0.0
 3 H  s              12.6       0.3       0.8       1.4       0.8       1.1
 4 H  s              10.2       5.9       1.1       2.6      13.3       5.3
 5 H  s               7.8       9.0       0.9       2.0      13.9       0.1
 6 H  s               3.0      21.7       4.3       1.1      13.1       1.0
 7 H  s              14.6      11.0       1.7       1.3       5.9       4.1
 8 H  s               4.6       3.8       0.9      11.0       0.4       4.2
 9 H  s              10.0       9.6       7.6       0.6       3.4       0.8

                     24        25        26        27        28        29   
                   0.44965   0.46940   0.54998   0.57079   0.61755   0.63890
                   0.00000   0.00000   0.00000   0.00000   0.00000   0.00000
                  --------  --------  --------  --------  --------  --------
 0 C  s               0.2       0.2       0.9      15.3       5.3      15.9
 0 C  pz              1.9       0.5      24.6       1.1       1.3       2.3
 0 C  px              6.9       8.0       3.6      18.6       1.9       6.6
 0 C  py             15.9       6.9       0.7       3.7       6.7       2.8
 0 C  dz2             4.3       2.1       0.2       0.0       0.3       0.3
 0 C  dxz             0.1       0.0       2.2       0.1       0.1       0.2
 0 C  dyz             0.3       0.0       2.0       0.0       0.0       0.0
 0 C  dx2y2           0.6       0.1       0.0       0.0       0.1       0.1
 0 C  dxy             3.1       1.2       0.2       0.2       0.0       0.1
 1 C  s               6.0       8.3       0.1       3.3       3.1      15.3
 1 C  pz              0.1       0.4      18.7       0.8       0.7       0.4
 1 C  px             10.9      20.9       1.0      14.7      18.0       0.2
 1 C  py              2.5      26.8       0.1       6.2       1.2      10.0
 1 C  dz2             0.1       1.6       0.1       0.1       0.7       0.1
 1 C  dxz             0.2       0.0       1.0       0.0       0.1       0.0
 1 C  dyz             0.0       0.0       4.6       0.2       0.0       0.1
 1 C  dx2y2           1.5       1.0       0.0       0.0       0.0       0.1
 1 C  dxy             0.1       0.1       0.1       0.1       0.1       0.2
 2 N  s               0.1       0.6       1.7       2.9       3.5       0.8
 2 N  pz              0.8       0.1       4.4       0.2       8.7       3.5
 2 N  px              5.9       2.2       2.8       1.6       4.5       2.5
 2 N  py              0.5       5.1       0.5       2.9       2.4       0.3
 2 N  dz2             0.9       0.3       0.3       0.7       0.5       0.0
 2 N  dxz             0.3       0.1       2.8       0.0       0.5       0.5
 2 N  dyz             0.1       0.0       0.0       0.0       0.0       0.2
 2 N  dx2y2           0.0       1.7       0.1       0.5       0.6       0.1
 2 N  dxy             2.4       1.7       0.0       0.7       0.9       0.2
 3 H  s              16.2       4.1       1.8       0.6       2.8       2.6
 4 H  s               1.1       0.1       0.9       4.1       0.7       2.9
 5 H  s               7.2       0.6       0.7       4.0       0.1       8.1
 6 H  s               1.5       0.7       4.7       1.5       1.2       8.6
 7 H  s               2.7       0.6       4.6       3.8       2.1       5.3
 8 H  s               1.0       3.2       0.3      11.9      23.1       2.1
 9 H  s               4.6       0.7      14.5       0.2       8.9       7.7

                     30        31        32        33        34        35   
                   0.64969   0.65693   0.66781   0.68235   0.68824   0.71393
                   0.00000   0.00000   0.00000   0.00000   0.00000   0.00000
                  --------  --------  --------  --------  --------  --------
 0 C  s               1.7       0.6      16.9       1.3       1.4      12.1
 0 C  pz              9.3       3.6       9.7       6.1      21.5       1.4
 0 C  px              3.4       1.2      16.2       4.4       4.3       0.8
 0 C  py              1.8       0.4       0.0      32.7      10.3       1.1
 0 C  dz2             0.9       0.4       0.1       0.5       0.0       0.3
 0 C  dxz             0.4       0.0       0.2       0.0       0.4       0.0
 0 C  dyz             0.6       1.2       0.1       0.2       1.3       0.0
 0 C  dx2y2           0.1       0.0       0.0       0.3       0.1       0.0
 0 C  dxy             0.8       0.3       0.0       0.2       0.0       0.0
 1 C  s               5.5       1.9       6.1       1.1       0.7      22.9
 1 C  pz             11.3      28.7       1.0       6.8      21.4       0.6
 1 C  px              6.2       1.3       0.6       0.1       0.0       2.4
 1 C  py             12.5       1.5       3.6      12.2       1.7       2.4
 1 C  dz2             0.0       0.0       0.4       0.0       0.2       0.3
 1 C  dxz             0.1       0.1       0.0       0.0       0.0       0.1
 1 C  dyz             0.0       3.2       0.3       0.0       0.3       0.0
 1 C  dx2y2           0.3       0.0       0.0       0.0       0.0       0.0
 2 N  s               0.2       0.1       0.4       0.1       0.4      10.4
 2 N  pz              1.8       1.4       1.5       0.2       4.9       7.4
 2 N  px              1.2       0.6       1.1       0.0       0.4       0.6
 2 N  py              2.6       0.5       1.4       0.7       0.6       2.6
 2 N  dz2             1.1       0.3       0.5       0.1       0.2       0.2
 2 N  dxz             0.6       0.1       0.6       0.1       0.1       0.2
 2 N  dyz             0.5       0.5       0.4       0.0       0.3       0.0
 2 N  dx2y2           0.6       0.1       0.3       0.6       0.0       0.0
 2 N  dxy             0.0       0.0       0.1       0.0       0.0       0.0
 3 H  s               6.7       3.3       9.5       8.8       2.6       2.9
 4 H  s               6.8       2.7       9.0       1.3      15.4       3.4
 5 H  s               1.4       5.6       0.5      13.2       3.6       8.2
 6 H  s               4.5      12.9       7.4       1.1       1.6       8.4
 7 H  s               0.0      21.4       0.7       3.9       1.6       8.4
 8 H  s               8.3       1.7       3.9       3.8       0.4       1.8
 9 H  s               8.7       4.1       7.4       0.1       4.3       1.0

                     36        37        38        39        40        41   
                   0.79106   0.88005   0.91536   0.93093   1.16227   1.43802
                   0.00000   0.00000   0.00000   0.00000   0.00000   0.00000
                  --------  --------  --------  --------  --------  --------
 0 C  s               5.2       3.2      28.2       3.9       0.7       0.0
 0 C  pz              1.0       0.3       0.1       0.3       0.1       0.5
 0 C  px              0.5       0.1       1.7       1.4       1.4       0.0
 0 C  py              0.3       0.0       0.4       0.6       1.2       0.0
 0 C  dz2             0.1       0.0       0.1       0.3       0.0       0.0
 0 C  dxz             1.2       0.9       0.3       0.8       1.1      31.7
 0 C  dyz             0.1       0.0       0.0       0.1       0.0       0.4
 0 C  dx2y2           0.1       0.1       0.3       0.1       0.2       0.6
 0 C  dxy             0.1       0.0       0.0       0.1       0.0       0.0
 1 C  s               0.5       8.0       9.4       0.3      20.1       0.2
 1 C  pz              4.4       1.8       0.7       2.2       0.2       1.4
 1 C  px              0.1       2.0       2.4       0.1       0.3       0.1
 1 C  py              0.1       0.8       0.0       1.0       0.1       0.0
 1 C  dz2             0.0       0.8       0.3       0.2       0.0       0.0
 1 C  dxz             0.0       0.5       0.1       0.6       1.6      45.5
 1 C  dyz             1.4       0.3       0.1       0.3       0.0       0.1
 1 C  dx2y2           0.0       0.2       1.0       0.6       1.6       0.6
 1 C  dxy             0.2       0.1       0.0       0.0       0.3       0.0
 2 N  s              22.9       9.3       1.0       0.5      43.4       2.2
 2 N  pz             17.9      19.3       1.9      27.6       0.6       1.8
 2 N  px             30.9       0.3       3.3      33.7       8.5       0.1
 2 N  py              0.4      42.0      24.9      14.3       1.4       0.0
 2 N  dz2             0.0       0.2       0.2       1.6       4.4       0.2
 2 N  dxz             0.2       0.1       0.1       0.6       3.1       1.8
 2 N  dyz             0.3       0.4       0.3       1.6       0.2      10.3
 2 N  dx2y2           0.0       0.1       0.7       0.0       0.0       0.0
 2 N  dxy             0.1       1.6       0.3       0.0       1.8       0.2
 3 H  s               2.2       0.6       6.2       0.3       0.6       0.0
 4 H  s               0.1       0.8       5.7       1.2       0.2       0.3
 5 H  s               0.7       0.2       5.0       1.9       0.0       0.3
 6 H  s               0.3       0.8       1.6       0.8       2.1       0.4
 7 H  s               1.0       2.6       2.7       0.0       1.4       0.2
 8 H  s               4.3       2.0       1.1       0.6       1.9       0.2
 9 H  s               3.6       0.5       0.1       2.2       1.5       0.6

                     42        43        44        45        46        47   
                   1.44486   1.76873   1.83800   1.85567   1.99796   2.05875
                   0.00000   0.00000   0.00000   0.00000   0.00000   0.00000
                  --------  --------  --------  --------  --------  --------
 0 C  s               0.4       1.6       0.8       0.0       0.0       0.0
 0 C  pz              0.0       0.0       0.0       3.6       0.0       1.9
 0 C  px              0.2       2.9       0.3       0.0       0.1       0.0
 0 C  py              0.3       0.3       2.3       0.0       0.2       0.0
 0 C  dz2             7.6       0.3      26.3       1.0       2.6       0.3
 0 C  dxz             0.5       0.0       0.5      44.1       0.0       2.0
 0 C  dyz             0.1       0.1       0.1       3.5       1.0      41.3
 0 C  dx2y2          35.0      21.9       3.8       0.0      10.1       0.2
 0 C  dxy             0.5      11.7       9.1       0.0       0.5       0.1
 1 C  s               0.4       0.4       1.3       0.0       0.7       0.0
 1 C  pz              0.1       0.0       0.0       6.6       0.0       2.0
 1 C  px              0.8       3.2       0.7       0.0       0.7       0.0
 1 C  py              0.3       0.2       3.5       0.0       0.7       0.0
 1 C  dz2             5.8       0.1      34.6       0.4      19.8       0.4
 1 C  dxz             0.8       0.0       0.1      19.2       0.0       0.4
 1 C  dyz             0.2       0.1       0.3       7.1       0.0      28.8
 1 C  dx2y2          34.2       8.5       1.1       0.0      11.5       0.0
 1 C  dxy             0.2      29.3       2.7       0.0      17.2       0.1
 2 N  s               0.5       1.0       0.4       0.2       2.1       0.3
 2 N  pz              0.1       0.0       0.0       0.1       0.0       0.2
 2 N  px              1.2       1.3       0.2       0.0       1.9       0.0
 2 N  py              1.6       0.5       0.0       0.0       1.7       0.0
 2 N  dz2             1.6       3.0       3.8       0.0       3.2       0.0
 2 N  dxz             0.1       0.0       0.0       3.1       0.2       6.2
 2 N  dyz             0.7       0.1       0.0       4.0       1.9       1.6
 2 N  dx2y2           1.9      11.4       2.5       0.1       2.1       0.0
 2 N  dxy             3.6       0.3       1.1       0.0      18.7       0.1
 3 H  s               0.2       0.6       0.1       0.0       0.0       0.0
 4 H  s               0.1       0.2       1.0       0.8       0.1       3.9
 5 H  s               0.2       0.2       0.8       1.1       0.0       3.8
 6 H  s               0.2       0.1       1.5       2.1       1.4       2.7
 7 H  s               0.3       0.1       0.9       2.6       1.3       3.5
 8 H  s               0.3       0.7       0.0       0.0       0.0       0.0
 9 H  s               0.1       0.0       0.0       0.2       0.1       0.2

                     48        49        50        51        52        53   
                   2.06811   2.12009   2.27278   2.36774   2.42438   2.50640
                   0.00000   0.00000   0.00000   0.00000   0.00000   0.00000
                  --------  --------  --------  --------  --------  --------
 0 C  s               0.0       0.0       0.1       0.8       0.4       0.3
 0 C  pz              0.0       0.1       0.1       0.0       0.0       0.0
 0 C  px              1.3       0.0       0.2       1.2       0.9       0.7
 0 C  py              1.4       0.0       0.0       0.9       0.3       0.3
 0 C  dz2            30.1       0.2       0.2      11.7       2.3       0.8
 0 C  dxz             0.2       9.1       2.5       0.1       0.0       0.1
 0 C  dyz             0.5      24.1       9.2       0.1       1.4       0.2
 0 C  dx2y2           3.6       0.2       0.0      16.2       0.8       0.2
 0 C  dxy            35.3       0.2       0.7       2.2       7.3       9.9
 1 C  s               0.2       0.0       0.0       1.3       0.4       1.0
 1 C  pz              0.0       0.0       0.5       0.0       0.3       0.0
 1 C  px              0.2       0.0       0.1       1.0       0.6       0.2
 1 C  py              0.1       0.0       0.0       2.9       0.3       0.2
 1 C  dz2             0.3       0.4       0.7      13.1       1.1       1.8
 1 C  dxz             0.0       2.0      12.9       0.8       9.8       1.9
 1 C  dyz             0.0      30.7       4.4       0.2       3.2       5.1
 1 C  dx2y2           0.8       0.3       0.2       7.2       2.3      12.4
 1 C  dxy             0.0       0.2       0.5       6.2       5.0       3.1
 2 N  s               0.4       0.9       1.8       0.2       0.6       0.5
 2 N  pz              0.0       0.7       1.1       0.0       0.4       0.1
 2 N  px              0.3       0.1       0.0       0.4       0.4       0.5
 2 N  py              0.1       0.0       0.3       0.2       0.9       1.3
 2 N  dz2             2.5       2.6      17.5       8.6      12.4       2.3
 2 N  dxz             0.1       1.5       1.8       0.8      19.1      42.6
 2 N  dyz             0.1      16.7      33.2       2.0      18.2       0.9
 2 N  dx2y2           7.6       0.1       1.6      16.9       2.5       2.7
 2 N  dxy             2.7       1.7       5.1       2.6       5.3       6.4
 3 H  s               9.0       0.0       0.0       0.2       0.1       0.4
 4 H  s               1.7       1.4       0.6       0.7       0.3       0.0
 5 H  s               1.4       1.8       0.6       1.0       0.0       0.0
 6 H  s               0.0       2.1       0.4       0.1       0.3       0.0
 7 H  s               0.1       1.3       0.6       0.3       0.0       0.6
 8 H  s               0.0       0.2       1.9       0.0       2.8       0.3
 9 H  s               0.0       1.2       1.0       0.0       0.0       3.2

                     54        55   
                   2.65152   2.86023
                   0.00000   0.00000
                  --------  --------
 0 C  s               0.4       0.2
 0 C  px              0.4       0.4
 0 C  py              0.4       0.0
 0 C  dz2             0.8       0.1
 0 C  dx2y2           0.2       0.9
 0 C  dxy             5.4       0.4
 1 C  s               0.4       1.9
 1 C  px              0.3       3.8
 1 C  py              0.1       0.8
 1 C  dz2             2.9       2.9
 1 C  dyz             0.9       0.0
 1 C  dx2y2           8.8       2.0
 1 C  dxy             4.3      16.3
 2 N  s               0.0       1.9
 2 N  pz              0.4       0.2
 2 N  px              0.5       3.1
 2 N  py              0.7       1.7
 2 N  dz2            16.5      12.6
 2 N  dxz            10.3       0.3
 2 N  dyz             4.8       0.0
 2 N  dx2y2          32.6       9.3
 2 N  dxy             0.3      39.5
 3 H  s               0.1       0.0
 6 H  s               0.4       0.1
 8 H  s               4.2       0.7
 9 H  s               4.0       0.6


                      *****************************
                      * MAYER POPULATION ANALYSIS *
                      *****************************

  NA   - Mulliken gross atomic population
  ZA   - Total nuclear charge
  QA   - Mulliken gross atomic charge
  VA   - Mayer's total valence
  BVA  - Mayer's bonded valence
  FA   - Mayer's free valence

  ATOM       NA         ZA         QA         VA         BVA        FA
  0 C      6.3247     6.0000    -0.3247     4.0228     4.0228     0.0000
  1 C      6.0839     6.0000    -0.0839     4.1604     4.1604    -0.0000
  2 N      7.4690     7.0000    -0.4690     2.9623     2.9623    -0.0000
  3 H      0.8939     1.0000     0.1061     0.9539     0.9539     0.0000
  4 H      0.8875     1.0000     0.1125     0.9480     0.9480     0.0000
  5 H      0.9035     1.0000     0.0965     0.9606     0.9606    -0.0000
  6 H      0.9228     1.0000     0.0772     0.9397     0.9397     0.0000
  7 H      0.9129     1.0000     0.0871     0.9360     0.9360    -0.0000
  8 H      0.8031     1.0000     0.1969     0.9265     0.9265    -0.0000
  9 H      0.7987     1.0000     0.2013     0.9135     0.9135    -0.0000

  Mayer bond orders larger than 0.100000
B(  0-C ,  1-C ) :   1.1618 B(  0-C ,  3-H ) :   0.9483 B(  0-C ,  4-H ) :   0.9522 
B(  0-C ,  5-H ) :   0.9494 B(  1-C ,  2-N ) :   1.1141 B(  1-C ,  6-H ) :   0.9377 
B(  1-C ,  7-H ) :   0.9327 B(  2-N ,  8-H ) :   0.9140 B(  2-N ,  9-H ) :   0.9101 


-------
TIMINGS
-------

Total SCF time: 0 days 0 hours 0 min 0 sec 

Total time                  ....       0.194 sec
Sum of individual times     ....       0.187 sec  ( 96.5%)

SCF preparation             ....       0.022 sec  ( 11.4%)
Fock matrix formation       ....       0.152 sec  ( 78.5%)
  Startup                   ....       0.000 sec  (  0.3% of F)
  Split-RI-J                ....       0.044 sec  ( 28.8% of F)
  XC integration            ....       0.106 sec  ( 70.0% of F)
    Basis function eval.    ....       0.049 sec  ( 46.2% of XC)
    Density eval.           ....       0.017 sec  ( 16.2% of XC)
    XC-Functional eval.     ....       0.015 sec  ( 14.1% of XC)
    XC-Potential eval.      ....       0.017 sec  ( 16.3% of XC)
Diagonalization             ....       0.000 sec  (  0.0%)
Density matrix formation    ....       0.001 sec  (  0.3%)
Total Energy calculation    ....       0.000 sec  (  0.1%)
Population analysis         ....       0.010 sec  (  5.2%)
Orbital Transformation      ....       0.001 sec  (  0.3%)
Orbital Orthonormalization  ....       0.000 sec  (  0.0%)
DIIS solution               ....       0.001 sec  (  0.3%)
  MO trafo                  ....       0.000 sec  (  0.0 % of DIIS)
  Orb grad                  ....       0.000 sec  (  0.0 % of DIIS)
  Energy W gradient         ....       0.000 sec  (  0.0 % of DIIS)
  DIIS error                ....       0.000 sec  (  6.3 % of DIIS)
  DIIS work                 ....       0.000 sec  ( 89.4 % of DIIS)
  Form Q                    ....       0.000 sec  (  0.0 % of DIIS)
  Form QpQm                 ....       0.000 sec  (  0.0 % of DIIS)
  Exp/Cayley                ....       0.000 sec  (  0.0 % of DIIS)
  Orb update                ....       0.000 sec  (  0.0 % of DIIS)
  Wake-sleep                ....       0.000 sec  (  4.3 % of DIIS)
SOSCF solution              ....       0.001 sec  (  0.5%)
  MO trafo                  ....       0.001 sec  ( 59.9 % of SOSCF)
  Orb grad                  ....       0.000 sec  (  2.2 % of SOSCF)
  Rot update                ....       0.000 sec  (  7.5 % of SOSCF)
  Step                      ....       0.000 sec  ( 27.3 % of SOSCF)
Finished LeanSCF after   0.2 sec

Maximum memory used throughout the entire LEANSCF-calculation: 6.4 MB


-------------------------------------------------------------------------------
                          DFT DISPERSION CORRECTION                            
                                                                               
                                DFTD4 V3.4.0                                   
-------------------------------------------------------------------------------
The PBE functional is recognized
Active option DFTDOPT                   ...         5   

-------------------------   ----------------
Dispersion correction           -0.004480480
-------------------------   ----------------

------------------   -----------------
gCP correction             0.044006813
------------------   -----------------

-------------------------   --------------------
FINAL SINGLE POINT ENERGY      -134.815049886808
-------------------------   --------------------


------------------------------------------------------------------------------
                              ORCA PROPERTY CALCULATIONS
------------------------------------------------------------------------------

GBWName                                 ... sp.gbw
Number of atoms                         ...     10
Number of basis functions               ...     56
Max core memory                         ...   1024 MB

Electric properties:
Dipole moment                           ... YES
Quadrupole moment                       ...  NO
Static polarizability (Dipole/Dipole)   ...  NO
Static polarizability (Dipole/Quad.)    ...  NO
Static polarizability (Quad./Quad.)     ...  NO
Static polarizability (Velocity)        ...  NO

Atomic electric properties:
Dipole moment                           ...  NO
Quadrupole moment                       ...  NO
Static polarizability                   ...  NO

Choice of electric origin               ... Center of mass
Position of electric origin             ...     0.000007     0.000004    -0.000003

General magnetic properties:
Magnetizability                         ...  NO

EPR properties:
g-Tensor (aka g-matrix)                 ...  NO
Zero-Field splitting spin-orbit         ...  NO
Zero-field splitting spin-spin          ...  NO
Hyperfine couplings                     ...  NO (   0 nuclei)
Quadrupole couplings                    ...  NO (   0 nuclei)
Contact density                         ...  NO (   0 nuclei)

NMR properties:
Chemical shifts                         ...  NO (   0 nuclei)
Spin-rotation constants                 ...  NO (   0 nuclei)
Spin-spin couplings                     ...  NO (   0 nuclei,    0 pairs)

Choice of magnetic origin               ... GIAO
Position of magnetic origin             ...     0.000000     0.000000     0.000000

Properties with geometric perturbations:
SCF Hessian                             ...  NO
IR spectrum                             ...  NO
VCD spectrum                            ...  NO
X-ray spectroscopy properties:
SCF XES/XAS/RIXS spectra                ...  NO


-------------
DIPOLE MOMENT
-------------

Method             : SCF
Type of density    : Electron Density
Multiplicity       :   1
Irrep              :   0
Energy             :  -134.8545762190727260 Eh
Relativity type    : 
Basis              : AO
                                X                 Y                 Z
Electronic contribution:      1.587018753      -0.090899439       0.140573701
Nuclear contribution   :     -1.790931126       0.218399416      -0.647439175
                        -----------------------------------------
Total Dipole Moment    :     -0.203912373       0.127499977      -0.506865474
                        -----------------------------------------
Magnitude (a.u.)       :      0.561025052
Magnitude (Debye)      :      1.426012355



--------------------
Rotational spectrum 
--------------------
 
Rotational constants in cm-1:             1.076749             0.299883             0.261440 
Rotational constants in MHz :         32280.131585          8990.277203          7837.787590 

Dipole components along the rotational axes: 
x,y,z [a.u.] :    -0.190481    -0.132613    -0.510764 
x,y,z [Debye]:    -0.484164    -0.337075    -1.298259 

 

Dipole moment calculation done in   0.0 sec 

Maximum memory used throughout the entire PROP-calculation: 4.4 MB

--------------------------------
SUGGESTED CITATIONS FOR THIS RUN
--------------------------------

Below you find a list of papers that are relevant to this ORCA run
We neither can nor want to force you to cite these papers, but we appreciate if you do
You receive ORCA, which is the product of decades of hard work by many enthusiastic individuals, for free
The only thing we kindly ask in return is that you cite our papers,
We deeply appreciate it, if you show your appreciation for ORCA by not just citing the generic ORCA reference.

Please note that relegating all ORCA citations to the supporting information does *not* help us.
SI sections are not indexed - citations you put there will not count into any citation statistics
But we need these citations in order to attract the funding resources that allow us to do what we are doing

Therefore, if you are a happy ORCA user, please consider citing a few of the papers listed below in the main body of your paper

In addition to the list printed below, the program has created the file sp.bibtex that contains the list in bibtex format
You can import this file easily into all common literature databanks and citation aid programs


List of essential papers. We consider these as the minimum necessary citations

  1. Neese,F.
     Software update: the ORCA program system, version 5.0
     WIRES Comput. Molec. Sci., 2022 12(1)e1606
     doi.org/10.1002/wcms.1606

List of papers to cite with high priority. The work reported in these papers was absolutely
necessary for this run to complete.
Our perspective: the developers of density functionals and basis sets usually get cited in chemistry papers
Good! But without the algorithms to do something with them, the functionals or basis sets would not do anything.
Hence, in our opinion, the algorithm design and method developments papers are equally worthy of getting cited

  1. Neese,F.
     An improvement of the resolution of the identity approximation for the formation of the Coulomb matrix
     J. Comp. Chem., 2003 24(14)1740-1747
     doi.org/10.1002/jcc.10318
  2. Neese,F.
     The SHARK Integral Generation and Digestion System
     J. Comp. Chem., 2022  1-16
     doi.org/10.1002/jcc.26942
  3. Caldeweyher,E.; Bannwarth,C.; Grimme,S.
     Extension of the D3 dispersion coefficient model
     J. Chem. Phys., 2017 147 034112
     doi.org/10.1063/1.4993215
  4. Caldeweyher,E.; Ehlert,S.; Hansen,A.; Neugebauer,H.; Spicher,S.; Bannwarth,C.; Grimme,S.
     A generally applicable atomic-charge dependent London dispersion correction
     J. Chem. Phys., 2019 150 154122
     doi.org/10.1063/1.5090222
  5. Caldeweyher,E.; Mewes,J.; Ehlert,S.; Grimme,S.
     Extension and evaluation of the D4 London-dispersion model for periodic systems
     Phys. Chem. Chem. Phys., 2020 22(16)8499-8512
     doi.org/10.1039/D0CP00502A
  6. Wittmann,L.; Gordiy,I.; Friede,M.; Helmich-Paris,B.; Grimme,S.; Hansen,A.; Bursch,M.
     Extension of the D3 and D4 London Dispersion Corrections to the full Actinides Series
     Phys. Chem. Chem. Phys., 2024 26(32)21379-21394
     doi.org/https://doi.org/10.1039/D4CP01514B 

List of suggested additional citations. These are papers that are important in the 'surrounding' of 
of this run, or papers that preceded the highly important papers. If you like your results we are grateful for a citation.

  1. Neese,F.
     The ORCA program system
     WIRES Comput. Molec. Sci., 2012 2(1)73-78
     doi.org/10.1002/wcms.81
  2. Neese,F.
     Software update: the ORCA program system, version 4.0
     WIRES Comput. Molec. Sci., 2018 8(1)1-6
     doi.org/10.1002/wcms.1327
  3. Neese,F.; Wennmohs,F.; Becker,U.; Riplinger,C.
     The ORCA quantum chemistry program package
     J. Chem. Phys., 2020 152 Art. No. L224108
     doi.org/10.1063/5.0004608

List of optional additional citations

  1. Neese,F.
     Approximate second-order SCF convergence for spin unrestricted wavefunctions
     Chem. Phys. Lett., 2000 325(1-3)93-98
     doi.org/10.1016/s0009-2614(00)00662-x

Timings for individual modules:

Sum of individual times          ...        0.373 sec (=   0.006 min)
Startup calculation              ...        0.105 sec (=   0.002 min)  28.3 %
SCF iterations                   ...        0.237 sec (=   0.004 min)  63.6 %
Property calculations            ...        0.030 sec (=   0.001 min)   8.1 %
                             ****ORCA TERMINATED NORMALLY****
TOTAL RUN TIME: 0 days 0 hours 0 minutes 0 seconds 438 msec
