      -----------------------------------------------------------      
     |                   =====================                   |     
     |                           x T B                           |     
     |                   =====================                   |     
     |                         S. Grimme                         |     
     |          Mulliken Center for Theoretical Chemistry        |     
     |                    University of Bonn                     |     
      -----------------------------------------------------------      

   * xtb version 6.7.1 (41059b4) compiled by 'michael@archlinux' on 2025-03-24

   xtb is free software: you can redistribute it and/or modify it under
   the terms of the GNU Lesser General Public License as published by
   the Free Software Foundation, either version 3 of the License, or
   (at your option) any later version.
   
   xtb is distributed in the hope that it will be useful,
   but WITHOUT ANY WARRANTY; without even the implied warranty of
   MERCHANTABILITY or FITNESS FOR A PARTICULAR PURPOSE.  See the
   GNU Lesser General Public License for more details.
   
   Cite this work as:
   * C. Bannwarth, E. Caldeweyher, S. Ehlert, A. Hansen, P. Pracht,
     J. Seibert, S. Spicher, S. Grimme, WIREs Comput. Mol. Sci., 2020, 11,
     e01493. DOI: 10.1002/wcms.1493
   
   for GFN2-xTB:
   * C. Bannwarth, S. Ehlert and S. Grimme., J. Chem. Theory Comput., 2019,
     15, 1652-1671. DOI: 10.1021/acs.jctc.8b01176
   for GFN1-xTB:
   * S. Grimme, C. Bannwarth, P. Shushkov, J. Chem. Theory Comput., 2017,
     13, 1989-2009. DOI: 10.1021/acs.jctc.7b00118
   for GFN0-xTB:
   * P. Pracht, E. Caldeweyher, S. Ehlert, S. Grimme, ChemRxiv, 2019, preprint.
     DOI: 10.26434/chemrxiv.8326202.v1
   for GFN-FF:
   * S. Spicher and S. Grimme, Angew. Chem. Int. Ed., 2020, 59, 15665-15673.
     DOI: 10.1002/anie.202004239
   
   for ALPB and GBSA implicit solvation:
   * S. Ehlert, M. Stahn, S. Spicher, S. Grimme, J. Chem. Theory Comput.,
     2021, 17, 4250-4261. DOI: 10.1021/acs.jctc.1c00471
   
   for ddCOSMO and CPCM-X implicit solvation:
   * M. Stahn, S. Ehlert, S. Grimme, J. Phys. Chem. A,
     2023, XX, XXXX-XXXX. DOI: 10.1021/acs.jpca.3c04382
   
   for DFT-D4:
   * E. Caldeweyher, C. Bannwarth and S. Grimme, J. Chem. Phys., 2017,
     147, 034112. DOI: 10.1063/1.4993215
   * E. Caldeweyher, S. Ehlert, A. Hansen, H. Neugebauer, S. Spicher,
     C. Bannwarth and S. Grimme, J. Chem. Phys., 2019, 150, 154122.
     DOI: 10.1063/1.5090222
   * E. Caldeweyher, J.-M. Mewes, S. Ehlert and S. Grimme, Phys. Chem. Chem. Phys.
     2020, 22, 8499-8512. DOI: 10.1039/D0CP00502A
   
   for sTDA-xTB:
   * S. Grimme and C. Bannwarth, J. Chem. Phys., 2016, 145, 054103.
     DOI: 10.1063/1.4959605
   
   in the mass-spec context:
   * V. Asgeirsson, C. Bauer and S. Grimme, Chem. Sci., 2017, 8, 4879.
     DOI: 10.1039/c7sc00601b
   * J. Koopman and S. Grimme, ACS Omega 2019, 4, 12, 15120-15133.
     DOI: 10.1021/acsomega.9b02011
   
   for metadynamics refer to:
   * S. Grimme, J. Chem. Theory Comput., 2019, 155, 2847-2862
     DOI: 10.1021/acs.jctc.9b00143
   
   for SPH calculations refer to:
   * S. Spicher and S. Grimme, J. Chem. Theory Comput., 2021, 17, 1701-1714
     DOI: 10.1021/acs.jctc.0c01306
   
   for ONIOM refer to:
   * C. Plett, A. Katbashev, S. Ehlert, S. Grimme, M. Bursch,
     Phys. Chem. Chem. Phys., 2023, 25, 17860-17868. DOI: 10.1039/D3CP02178E
   
   for DIPRO refer to:
   * J. Kohn, N. Gildemeister, S. Grimme, D. Fazzi, A. Hansen,
     J. Chem. Phys., 2023, just accepted.
   
   for PTB refer to:
   * S. Grimme, M. Mueller, A. Hansen, J. Chem. Phys., 2023, 158, 124111.
     DOI: 10.1063/5.0137838
   
   with help from (in alphabetical order)
   P. Atkinson, C. Bannwarth, F. Bohle, G. Brandenburg, E. Caldeweyher
   M. Checinski, S. Dohm, S. Ehlert, S. Ehrlich, I. Gerasimov, C. Hölzer
   A. Katbashev, J. Kohn, J. Koopman, C. Lavigne, S. Lehtola, F. März, M. Müller,
   F. Musil, H. Neugebauer, J. Pisarek, C. Plett, P. Pracht, F. Pultar,
   J. Seibert, P. Shushkov, S. Spicher, M. Stahn, M. Steiner, T. Strunk,
   J. Stückrath, T. Rose, and J. Unsleber
   
 * started run on 2025/04/09 at 03:10:55.770     
   ID    Z sym.   atoms
    1    6 C      1-3
    2    1 H      4-11

           -------------------------------------------------
          |                Calculation Setup                |
           -------------------------------------------------

          program call               : /usr/bin/xtb xtb_rrho.coord --gfn2 --ohess vtight --chrg 0 --enso --norestart -I rrho-xcontrol-inp --parallel 1
          coordinate file            : xtb_rrho.coord
          omp threads                :                     1


           -------------------------------------------------
          |                 G F N 2 - x T B                 |
           -------------------------------------------------

        Reference                      10.1021/acs.jctc.8b01176
      * Hamiltonian:
        H0-scaling (s, p, d)           1.850000    2.230000    2.230000
        zeta-weighting                 0.500000
      * Dispersion:
        s8                             2.700000
        a1                             0.520000
        a2                             5.000000
        s9                             5.000000
      * Repulsion:
        kExp                           1.500000    1.000000
        rExp                           1.000000
      * Coulomb:
        alpha                          2.000000
        third order                    shell-resolved
        anisotropic                    true
        a3                             3.000000
        a5                             4.000000
        cn-shift                       1.200000
        cn-exp                         4.000000
        max-rad                        5.000000


          ...................................................
          :                      SETUP                      :
          :.................................................:
          :  # basis functions                  20          :
          :  # atomic orbitals                  20          :
          :  # shells                           14          :
          :  # electrons                        20          :
          :  max. iterations                   250          :
          :  Hamiltonian                  GFN2-xTB          :
          :  restarted?                      false          :
          :  GBSA solvation                  false          :
          :  PC potential                    false          :
          :  electronic temp.          300.0000000     K    :
          :  accuracy                    1.0000000          :
          :  -> integral cutoff          0.2500000E+02      :
          :  -> integral neglect         0.1000000E-07      :
          :  -> SCF convergence          0.1000000E-05 Eh   :
          :  -> wf. convergence          0.1000000E-03 e    :
          :  Broyden damping             0.4000000          :
          :  net charge                          0          :
          :  unpaired electrons                  0          :
          ...................................................

 iter      E             dE          RMSdq      gap      omega  full diag
   1    -10.6239507 -0.106240E+02  0.257E+00   14.62       0.0  T
   2    -10.6568775 -0.329268E-01  0.130E+00   14.25       1.0  T
   3    -10.6571969 -0.319422E-03  0.705E-01   14.22       1.0  T
   4    -10.6572888 -0.919342E-04  0.985E-02   14.22       1.0  T
   5    -10.6572993 -0.105387E-04  0.553E-02   14.22       1.0  T
   6    -10.6572996 -0.280017E-06  0.242E-03   14.22      12.5  T
   7    -10.6572996 -0.618647E-08  0.786E-04   14.22      38.4  T
   8    -10.6572996 -0.594840E-09  0.164E-04   14.22     184.4  T

   *** convergence criteria satisfied after 8 iterations ***

         #    Occupation            Energy/Eh            Energy/eV
      -------------------------------------------------------------
         1        2.0000           -0.6125918             -16.6695
       ...           ...                  ...                  ...
         4        2.0000           -0.5059180             -13.7667
         5        2.0000           -0.4962014             -13.5023
         6        2.0000           -0.4751930             -12.9307
         7        2.0000           -0.4585572             -12.4780
         8        2.0000           -0.4386093             -11.9352
         9        2.0000           -0.4352111             -11.8427
        10        2.0000           -0.4230453             -11.5116 (HOMO)
        11                          0.0994205               2.7054 (LUMO)
        12                          0.1307333               3.5574
        13                          0.1320230               3.5925
        14                          0.1558890               4.2420
        15                          0.1660616               4.5188
       ...                                ...                  ...
        20                          0.2876144               7.8264
      -------------------------------------------------------------
                  HL-Gap            0.5224658 Eh           14.2170 eV
             Fermi-level           -0.1618124 Eh           -4.4031 eV

 SCC (total)                   0 d,  0 h,  0 min,  0.002 sec
 SCC setup                      ...        0 min,  0.000 sec (  2.041%)
 Dispersion                     ...        0 min,  0.000 sec (  1.212%)
 classical contributions        ...        0 min,  0.000 sec (  0.483%)
 integral evaluation            ...        0 min,  0.000 sec ( 12.442%)
 iterations                     ...        0 min,  0.001 sec ( 50.706%)
 molecular gradient             ...        0 min,  0.001 sec ( 30.524%)
 printout                       ...        0 min,  0.000 sec (  2.308%)

         :::::::::::::::::::::::::::::::::::::::::::::::::::::
         ::                     SUMMARY                     ::
         :::::::::::::::::::::::::::::::::::::::::::::::::::::
         :: total energy             -10.500420420317 Eh    ::
         :: gradient norm              0.013962691580 Eh/a0 ::
         :: HOMO-LUMO gap             14.217018017703 eV    ::
         ::.................................................::
         :: SCC energy               -10.657298195060 Eh    ::
         :: -> isotropic ES            0.002396765038 Eh    ::
         :: -> anisotropic ES          0.004258604466 Eh    ::
         :: -> anisotropic XC          0.007375385289 Eh    ::
         :: -> dispersion             -0.003951175416 Eh    ::
         :: repulsion energy           0.156877774742 Eh    ::
         :: add. restraining           0.000000000000 Eh    ::
         :: total charge               0.000000000000 e     ::
         :::::::::::::::::::::::::::::::::::::::::::::::::::::

      ----------------------------------------------------------- 
     |                   =====================                   |
     |                        A N C O P T                        |
     |                   =====================                   |
     |               Approximate Normal Coordinate               |
     |                Rational Function Optimizer                |
      ----------------------------------------------------------- 

          ...................................................
          :                      SETUP                      :
          :.................................................:
          :   optimization level         verytight          :
          :   max. optcycles                   220          :
          :   ANC micro-cycles                  20          :
          :   degrees of freedom                27          :
          :.................................................:
          :   RF solver                   davidson          :
          :   write xtbopt.log                true          :
          :   linear?                        false          :
          :   energy convergence         0.1000000E-06 Eh   :
          :   grad. convergence          0.2000000E-03 Eh/α :
          :   maximum RF displ.          1.0000000          :
          :   Hlow (freq-cutoff)         0.1000000E-01      :
          :   Hmax (freq-cutoff)         5.0000000          :
          :   S6 in model hess.         20.0000000          :
          ...................................................

generating ANC from exact Hessian ...
Using Lindh-Hessian (1995)
 Shifting diagonal of input Hessian by    1.5762085348834179E-003
 Lowest  eigenvalues of input Hessian
    0.000000    0.000000    0.000000    0.000000    0.000000    0.000000
    0.010000    0.012458    0.013484    0.038510    0.049451    0.051352
    0.055395    0.058472    0.068551    0.076813    0.101337    0.121968
 Highest eigenvalues
    1.072569    1.083208    1.089589    1.151310    1.200653    1.252123


........................................................................
.............................. CYCLE    1 ..............................
........................................................................

 iter      E             dE          RMSdq      gap      omega  full diag
   1    -10.6572996 -0.106573E+02  0.191E-05   14.22       0.0  T
   2    -10.6572996 -0.199130E-11  0.667E-06   14.22    4521.6  T
   3    -10.6572996  0.532907E-14  0.365E-06   14.22    8257.1  T
     SCC iter.                  ...        0 min,  0.000 sec
     gradient                   ...        0 min,  0.001 sec
 * total energy  :   -10.5004204 Eh     change       -0.5986323E-11 Eh
   gradient norm :     0.0139619 Eh/α   predicted     0.0000000E+00 (-100.00%)
   displ. norm   :     0.0985144 α      lambda       -0.7218287E-03
   maximum displ.:     0.0759356 α      in ANC's #7, #3, #10, ...

........................................................................
.............................. CYCLE    2 ..............................
........................................................................

 iter      E             dE          RMSdq      gap      omega  full diag
   1    -10.6635277 -0.106635E+02  0.139E-01   14.63       0.0  T
   2    -10.6635310 -0.326020E-05  0.791E-02   14.63       1.0  T
   3    -10.6635311 -0.170342E-06  0.788E-03   14.63       3.8  T
   4    -10.6635312 -0.100643E-07  0.161E-03   14.63      18.7  T
   5    -10.6635312 -0.366439E-09  0.710E-04   14.63      42.5  T
   6    -10.6635312 -0.394987E-09  0.905E-05   14.63     333.0  T
     SCC iter.                  ...        0 min,  0.001 sec
     gradient                   ...        0 min,  0.001 sec
 * total energy  :   -10.5008059 Eh     change       -0.3855207E-03 Eh
   gradient norm :     0.0046934 Eh/α   predicted    -0.3644156E-03 (  -5.47%)
   displ. norm   :     0.0158314 α      lambda       -0.4190582E-04
   maximum displ.:     0.0090737 α      in ANC's #10, #3, #18, ...

........................................................................
.............................. CYCLE    3 ..............................
........................................................................

 iter      E             dE          RMSdq      gap      omega  full diag
   1    -10.6651730 -0.106652E+02  0.272E-02   14.59       0.0  T
   2    -10.6651735 -0.535663E-06  0.157E-02   14.59       1.9  T
   3    -10.6651735 -0.111731E-07  0.331E-03   14.59       9.1  T
   4    -10.6651735 -0.235762E-08  0.578E-04   14.59      52.2  T
   5    -10.6651735 -0.205914E-09  0.312E-04   14.59      96.5  T
     SCC iter.                  ...        0 min,  0.001 sec
     gradient                   ...        0 min,  0.001 sec
 * total energy  :   -10.5008263 Eh     change       -0.2040847E-04 Eh
   gradient norm :     0.0014102 Eh/α   predicted    -0.2095871E-04 (   2.70%)
   displ. norm   :     0.0060049 α      lambda       -0.3015963E-05
   maximum displ.:     0.0037897 α      in ANC's #10, #3, #26, ...

........................................................................
.............................. CYCLE    4 ..............................
........................................................................

 iter      E             dE          RMSdq      gap      omega  full diag
   1    -10.6651517 -0.106652E+02  0.948E-03   14.59       0.0  T
   2    -10.6651517 -0.232555E-07  0.565E-03   14.59       5.3  T
   3    -10.6651517 -0.662048E-10  0.596E-04   14.59      50.6  T
   4    -10.6651517 -0.730449E-09  0.135E-04   14.59     223.5  T
     SCC iter.                  ...        0 min,  0.001 sec
     gradient                   ...        0 min,  0.001 sec
 * total energy  :   -10.5008279 Eh     change       -0.1531787E-05 Eh
   gradient norm :     0.0003975 Eh/α   predicted    -0.1508664E-05 (  -1.51%)
   displ. norm   :     0.0028816 α      lambda       -0.4254243E-06
   maximum displ.:     0.0019395 α      in ANC's #10, #3, #16, ...

........................................................................
.............................. CYCLE    5 ..............................
........................................................................

 iter      E             dE          RMSdq      gap      omega  full diag
   1    -10.6650323 -0.106650E+02  0.449E-03   14.58       0.0  T
   2    -10.6650323 -0.337627E-08  0.262E-03   14.58      11.5  T
   3    -10.6650323 -0.920437E-10  0.228E-04   14.58     132.2  T
   4    -10.6650323 -0.959197E-10  0.548E-05   14.58     550.0  T
     SCC iter.                  ...        0 min,  0.000 sec
     gradient                   ...        0 min,  0.001 sec
 * total energy  :   -10.5008281 Eh     change       -0.2598240E-06 Eh
   gradient norm :     0.0000883 Eh/α   predicted    -0.2117746E-06 ( -18.49%)
   displ. norm   :     0.0004755 α      lambda       -0.2328872E-07
   maximum displ.:     0.0003229 α      in ANC's #18, #16, #10, ...

........................................................................
.............................. CYCLE    6 ..............................
........................................................................

 iter      E             dE          RMSdq      gap      omega  full diag
   1    -10.6650786 -0.106651E+02  0.880E-04   14.58       0.0  T
   2    -10.6650786 -0.295788E-09  0.510E-04   14.58      59.1  T
   3    -10.6650786 -0.518696E-11  0.106E-04   14.58     284.2  T
     SCC iter.                  ...        0 min,  0.000 sec
     gradient                   ...        0 min,  0.001 sec
 * total energy  :   -10.5008282 Eh     change       -0.1695464E-07 Eh
   gradient norm :     0.0000178 Eh/α   predicted    -0.1310700E-07 ( -22.69%)
   displ. norm   :     0.0001075 α      lambda       -0.1206139E-08
   maximum displ.:     0.0000583 α      in ANC's #3, #16, #18, ...

   *** GEOMETRY OPTIMIZATION CONVERGED AFTER 6 ITERATIONS ***

------------------------------------------------------------------------
 total energy gain   :        -0.0004077 Eh       -0.2559 kcal/mol
 total RMSD          :         0.0291401 a0        0.0154 Å
 total power (kW/mol):        -0.1784192 (step) -102.8423 (real)
------------------------------------------------------------------------

 ANCopt (total)                0 d,  0 h,  0 min,  0.010 sec
 optimizer setup                ...        0 min,  0.000 sec (  0.324%)
 model hessian                  ...        0 min,  0.001 sec (  7.393%)
 ANC generation                 ...        0 min,  0.000 sec (  1.007%)
 coordinate transformation      ...        0 min,  0.000 sec (  0.130%)
 single point calculation       ...        0 min,  0.009 sec ( 83.596%)
 optimization log               ...        0 min,  0.000 sec (  1.934%)
 hessian update                 ...        0 min,  0.000 sec (  0.161%)
 rational function              ...        0 min,  0.000 sec (  1.907%)

================
 final structure:
================
$coord
       -2.38228885676435        0.51416966301728        0.00000659310897      C
       -0.00000620133382       -1.10308463510005        0.00008758362661      C
        2.38230161855127        0.51413259467900       -0.00007775734445      C
       -2.43445101396974        1.71756320296359        1.66626596976016      H
       -2.43456961936767        1.71722515734990       -1.66649304122481      H
       -4.06392534955354       -0.66765301239575        0.00018631090617      H
        0.00001399663690       -2.32167554354895        1.66631500827478      H
       -0.00004537515289       -2.32192848146269       -1.66595463541343      H
        2.43451585087548        1.71722502610508       -1.66655289049230      H
        4.06391972176384       -0.66771625633464       -0.00001071339494      H
        2.43456776257852        1.71748757869269        1.66620612546364      H
$end

 Bond Distances (Angstroems)
 ---------------------------
C1-C2=1.5237         C1-H4=1.0880         C1-H5=1.0880         C1-H6=1.0877         C2-C1=1.5237         C2-C3=1.5237         
C2-H7=1.0924         C2-H8=1.0924         C3-C2=1.5237         C3-H9=1.0880         C3-H10=1.0877        C3-H11=1.0880        
H4-C1=1.0880         H5-C1=1.0880         H6-C1=1.0877         H7-C2=1.0924         H8-C2=1.0924         H9-C3=1.0880         
H10-C3=1.0877        H11-C3=1.0880        
 C  H  Rav=1.0890 sigma=0.0019  Rmin=1.0877  Rmax=1.0924     8
 C  C  Rav=1.5237 sigma=0.0000  Rmin=1.5237  Rmax=1.5237     2

 selected bond angles (degree)
 --------------------
H4-C1-C2=110.47                H5-C1-C2=110.47                H5-C1-H4=108.29                H6-C1-C2=110.73                
H6-C1-H4=108.40                H6-C1-H5=108.40                C3-C2-C1=111.66                H7-C2-C1=109.37                
H7-C2-C3=109.37                H8-C2-C1=109.37                H8-C2-C3=109.37                H8-C2-H7=107.63                
H9-C3-C2=110.47                H10-C3-C2=110.73               H10-C3-H9=108.40               H11-C3-C2=110.47               
H11-C3-H9=108.29               H11-C3-H10=108.40              

 selected dihedral angles (degree)
 ---------------------------------
C3-C2-C1-H4=300.11            C3-C2-C1-H5= 59.90            C3-C2-C1-H6=180.00            H7-C2-C1-H4= 61.29            
H7-C2-C1-H5=181.08            H7-C2-C1-H6=301.18            H8-C2-C1-H4=178.93            H8-C2-C1-H5=298.71            
H8-C2-C1-H6= 58.82            H9-C3-C2-C1=300.11            H9-C3-C2-H7=178.92            H9-C3-C2-H8= 61.29            
H10-C3-C2-C1=180.00           H10-C3-C2-H7= 58.82           H10-C3-C2-H8=301.18           H11-C3-C2-C1= 59.89           
H11-C3-C2-H7=298.71           H11-C3-C2-H8=181.08           
           -------------------------------------------------
          |                Final Singlepoint                |
           -------------------------------------------------

          ...................................................
          :                      SETUP                      :
          :.................................................:
          :  # basis functions                  20          :
          :  # atomic orbitals                  20          :
          :  # shells                           14          :
          :  # electrons                        20          :
          :  max. iterations                   250          :
          :  Hamiltonian                  GFN2-xTB          :
          :  restarted?                      false          :
          :  GBSA solvation                  false          :
          :  PC potential                    false          :
          :  electronic temp.          300.0000000     K    :
          :  accuracy                    1.0000000          :
          :  -> integral cutoff          0.2500000E+02      :
          :  -> integral neglect         0.1000000E-07      :
          :  -> SCF convergence          0.1000000E-05 Eh   :
          :  -> wf. convergence          0.1000000E-03 e    :
          :  Broyden damping             0.4000000          :
          :  net charge                          0          :
          :  unpaired electrons                  0          :
          ...................................................

 iter      E             dE          RMSdq      gap      omega  full diag
   1    -10.6650786 -0.106651E+02  0.245E-05   14.58       0.0  T
   2    -10.6650786 -0.532907E-13  0.145E-05   14.58    2075.9  T
   3    -10.6650786 -0.159872E-13  0.129E-06   14.58   23414.3  T

   *** convergence criteria satisfied after 3 iterations ***

         #    Occupation            Energy/Eh            Energy/eV
      -------------------------------------------------------------
         1        2.0000           -0.6139812             -16.7073
       ...           ...                  ...                  ...
         4        2.0000           -0.5076430             -13.8137
         5        2.0000           -0.4966415             -13.5143
         6        2.0000           -0.4755087             -12.9392
         7        2.0000           -0.4592359             -12.4964
         8        2.0000           -0.4372423             -11.8980
         9        2.0000           -0.4351305             -11.8405
        10        2.0000           -0.4239178             -11.5354 (HOMO)
        11                          0.1120357               3.0486 (LUMO)
        12                          0.1368913               3.7250
        13                          0.1420956               3.8666
        14                          0.1614610               4.3936
        15                          0.1723187               4.6890
       ...                                ...                  ...
        20                          0.3020572               8.2194
      -------------------------------------------------------------
                  HL-Gap            0.5359535 Eh           14.5840 eV
             Fermi-level           -0.1559410 Eh           -4.2434 eV

 SCC (total)                   0 d,  0 h,  0 min,  0.001 sec
 SCC setup                      ...        0 min,  0.000 sec (  1.921%)
 Dispersion                     ...        0 min,  0.000 sec (  1.011%)
 classical contributions        ...        0 min,  0.000 sec (  0.470%)
 integral evaluation            ...        0 min,  0.000 sec ( 18.360%)
 iterations                     ...        0 min,  0.000 sec ( 27.377%)
 molecular gradient             ...        0 min,  0.001 sec ( 47.751%)
 printout                       ...        0 min,  0.000 sec (  2.624%)

         :::::::::::::::::::::::::::::::::::::::::::::::::::::
         ::                     SUMMARY                     ::
         :::::::::::::::::::::::::::::::::::::::::::::::::::::
         :: total energy             -10.500828158074 Eh    ::
         :: gradient norm              0.000018006241 Eh/a0 ::
         :: HOMO-LUMO gap             14.584036013533 eV    ::
         ::.................................................::
         :: SCC energy               -10.665077249346 Eh    ::
         :: -> isotropic ES            0.002528363155 Eh    ::
         :: -> anisotropic ES          0.003982193129 Eh    ::
         :: -> anisotropic XC          0.007219636754 Eh    ::
         :: -> dispersion             -0.003957784485 Eh    ::
         :: repulsion energy           0.164249091272 Eh    ::
         :: add. restraining           0.000000000000 Eh    ::
         :: total charge               0.000000000000 e     ::
         :::::::::::::::::::::::::::::::::::::::::::::::::::::

           ------------------------------------------------- 
          |                Numerical Hessian                |
           ------------------------------------------------- 
step length          :   0.00500
SCC accuracy         :   0.30000
Hessian scale factor :   1.00000
frozen atoms in %    :   0.00000    0
RMS gradient         :   0.00002
estimated CPU  time      0.00 min
estimated wall time      0.00 min

writing file <hessian>, containing the non-mass-weighted Hessian matrix in atomic units (Eₕ/Bohr²).

 projected vibrational frequencies (cm⁻¹)
eigval :       -0.00    -0.00    -0.00     0.00     0.00     0.00
eigval :      206.74   257.51   374.17   793.48   928.42   935.44
eigval :      952.22  1116.50  1167.85  1207.65  1272.48  1345.05
eigval :     1413.12  1420.91  1499.02  1500.12  1504.03  1509.68
eigval :     1510.85  2967.27  2981.66  3026.75  3027.71  3031.85
eigval :     3035.57  3037.14  3037.48
           -------------------------------------------------
          |                Property Printout                |
           -------------------------------------------------

    * Orbital Energies and Occupations

         #    Occupation            Energy/Eh            Energy/eV
      -------------------------------------------------------------
         1        2.0000           -0.6139812             -16.7073
         2        2.0000           -0.5841298             -15.8950
         3        2.0000           -0.5539257             -15.0731
         4        2.0000           -0.5076430             -13.8137
         5        2.0000           -0.4966415             -13.5143
         6        2.0000           -0.4755087             -12.9392
         7        2.0000           -0.4592359             -12.4964
         8        2.0000           -0.4372423             -11.8980
         9        2.0000           -0.4351305             -11.8405
        10        2.0000           -0.4239177             -11.5354 (HOMO)
        11                          0.1120357               3.0486 (LUMO)
        12                          0.1368913               3.7250
        13                          0.1420956               3.8666
        14                          0.1614610               4.3936
        15                          0.1723187               4.6890
        16                          0.2033221               5.5327
        17                          0.2316162               6.3026
        18                          0.2599551               7.0737
        19                          0.2689929               7.3197
        20                          0.3020572               8.2194
      -------------------------------------------------------------
                  HL-Gap            0.5359535 Eh           14.5840 eV
             Fermi-level           -0.1559410 Eh           -4.2434 eV

     #   Z          covCN         q      C6AA      α(0)
     1   6          3.752    -0.102    22.510     6.766
     2   6          3.799    -0.047    21.425     6.590
     3   6          3.752    -0.102    22.510     6.766
     4   1          0.925     0.034     2.536     2.490
     5   1          0.925     0.034     2.536     2.490
     6   1          0.925     0.031     2.575     2.509
     7   1          0.924     0.028     2.619     2.531
     8   1          0.924     0.028     2.619     2.531
     9   1          0.925     0.034     2.536     2.490
    10   1          0.925     0.031     2.575     2.509
    11   1          0.925     0.034     2.536     2.490

 Mol. C6AA /au·bohr⁶  :        723.108909
 Mol. C8AA /au·bohr⁸  :      14472.840667
 Mol. α(0) /au        :         40.162863


Wiberg/Mayer (AO) data.
largest (>0.10) Wiberg bond orders for each atom

 ---------------------------------------------------------------------------
     #   Z sym  total        # sym  WBO       # sym  WBO       # sym  WBO
 ---------------------------------------------------------------------------
     1   6      3.997 --     2      1.020     5      0.988     4      0.988
                             6      0.988
     2   6      3.998 --     1      1.020     3      1.020     7      0.980
                             8      0.980
     3   6      3.997 --     2      1.020     9      0.988    11      0.988
                            10      0.988
     4   1      0.999 --     1      0.988
     5   1      0.999 --     1      0.988
     6   1      0.999 --     1      0.988
     7   1      0.999 --     2      0.980
     8   1      0.999 --     2      0.980
     9   1      0.999 --     3      0.988
    10   1      0.999 --     3      0.988
    11   1      0.999 --     3      0.988
 ---------------------------------------------------------------------------

Topologies differ in total number of bonds
Writing topology from bond orders to xtbtopo.mol

molecular dipole:
                 x           y           z       tot (Debye)
 q only:        0.000       0.008      -0.000
   full:        0.000       0.008      -0.000       0.022
molecular quadrupole (traceless):
                xx          xy          yy          xz          yz          zz
 q only:        0.086      -0.000       0.020      -0.000      -0.000      -0.106
  q+dip:       -0.675       0.000       0.026       0.000       0.000       0.650
   full:       -0.302       0.000       0.011       0.000       0.000       0.292

           -------------------------------------------------
          |                Geometry Summary                 |
           -------------------------------------------------

      molecular mass/u    :       44.0957337
Molecule has the following symmetry elements: (C2) 2*(sigma) 
It seems to be the C2v point group
   center of mass at/Å    :        0.0000013      -0.0000071       0.0000019
  moments of inertia/u·Å² :        0.1719748E+02   0.5889296E+02   0.6668620E+02
rotational constants/cm⁻¹ :        0.9802382E+00   0.2862419E+00   0.2527904E+00

 * 10 selected distances

     #   Z          #   Z                                           value/Å
     1   6          2   6                                         1.5236981
     2   6          3   6                                         1.5236981 (max)
     1   6          4   1                                         1.0880092
     1   6          5   1                                         1.0880091
     1   6          6   1                                         1.0876628
     2   6          7   1                                         1.0923733
     2   6          8   1                                         1.0923732
     3   6          9   1                                         1.0880092
     3   6         10   1                                         1.0876628 (min)
     3   6         11   1                                         1.0880092

 * 2 distinct bonds (by element types)

   Z      Z             #   av. dist./Å        max./Å        min./Å
   1 H    6 C           8     1.0890136     1.0923733     1.0876628
   6 C    6 C           2     1.5236981     1.5236981     1.5236981

           -------------------------------------------------
          |               Frequency Printout                |
           -------------------------------------------------
 projected vibrational frequencies (cm⁻¹)
eigval :       -0.00    -0.00    -0.00     0.00     0.00     0.00
eigval :      206.74   257.51   374.17   793.48   928.42   935.44
eigval :      952.22  1116.50  1167.85  1207.65  1272.48  1345.05
eigval :     1413.12  1420.91  1499.02  1500.12  1504.03  1509.68
eigval :     1510.85  2967.27  2981.66  3026.75  3027.71  3031.85
eigval :     3035.57  3037.14  3037.48
 reduced masses (amu)
    1:      2.67    2:      2.46    3:      2.76    4:      2.56    5:      3.35    6:      2.55
    7:      1.03    8:      1.14    9:      2.16   10:      1.08   11:      1.09   12:      2.36
   13:      1.20   14:      2.46   15:      1.87   16:      1.65   17:      1.12   18:      1.44
   19:      1.26   20:      1.22   21:      1.08   22:      1.05   23:      1.06   24:      1.05
   25:      1.07   26:      1.09   27:      1.05   28:      1.09   29:      1.09   30:      1.10
   31:      1.09   32:      1.03   33:      1.03
 IR intensities (km·mol⁻¹)
    1:      0.00    2:      0.00    3:      0.00    4:      0.00    5:      0.00    6:      0.00
    7:      0.00    8:      0.02    9:      0.64   10:      9.49   11:      0.00   12:      1.38
   13:      4.11   14:      1.53   15:      4.24   16:      1.66   17:      0.00   18:      3.18
   19:      2.47   20:      0.42   21:      0.31   22:      0.00   23:      1.06   24:      4.35
   25:      1.70   26:     36.39   27:     31.15   28:      0.00   29:     10.41   30:    113.94
   31:     72.29   32:     59.00   33:     23.70
 Raman intensities (Ä⁴*amu⁻¹)
    1:      0.00    2:      0.00    3:      0.00    4:      0.00    5:      0.00    6:      0.00
    7:      0.00    8:      0.00    9:      0.00   10:      0.00   11:      0.00   12:      0.00
   13:      0.00   14:      0.00   15:      0.00   16:      0.00   17:      0.00   18:      0.00
   19:      0.00   20:      0.00   21:      0.00   22:      0.00   23:      0.00   24:      0.00
   25:      0.00   26:      0.00   27:      0.00   28:      0.00   29:      0.00   30:      0.00
   31:      0.00   32:      0.00   33:      0.00
 output can be read by thermo (or use thermo option).
 writing <g98.out> molden fake output.
 recommended (thermochemical) frequency scaling factor: 1.0
           -------------------------------------------------
          |             Thermodynamic Functions             |
           -------------------------------------------------

c2v symmetry found (for desy threshold:  0.10E+00) used in thermo

          ...................................................
          :                      SETUP                      :
          :.................................................:
          :  # frequencies                          27      :
          :  # imaginary freq.                       0      :
          :  linear?                             false      :
          :  only rotor calc.                    false      :
          :  symmetry                              c2v      :
          :  rotational number                       2      :
          :  scaling factor                  1.0000000      :
          :  rotor cutoff                    0.0000000 cm⁻¹ :
          :  imag. cutoff                 -100.0000000 cm⁻¹ :
          :.................................................:

    mode    ω/cm⁻¹     T·S(HO)/kcal·mol⁻¹    T·S(FR)/kcal·mol⁻¹   T·S(vib)
   ------------------------------------------------------------------------
       1    206.74    -0.61784 (100.00%)    -0.63554 (  0.00%)    -0.61784
       2    257.51    -0.50047 (100.00%)    -0.57059 (  0.00%)    -0.50047
   ------------------------------------------------------------------------

   temp. (K)  partition function   enthalpy   heat capacity  entropy
                                   cal/mol     cal/K/mol   cal/K/mol   J/K/mol
 298.15  VIB   2.87                 1066.993      8.667      5.675
         ROT  0.993E+04              888.727      2.981     21.269
         INT  0.285E+05             1955.720     11.648     26.944
         TR   0.896E+25             1481.212      4.968     37.277
         TOT                        3436.9326    16.6162    64.2217   268.7036

       T/K    H(0)-H(T)+PV         H(T)/Eh          T*S/Eh         G(T)/Eh
   ------------------------------------------------------------------------
    298.15    0.547710E-02    0.108133E+00    0.305138E-01    0.776191E-01
   ------------------------------------------------------------------------

         :::::::::::::::::::::::::::::::::::::::::::::::::::::
         ::                  THERMODYNAMIC                  ::
         :::::::::::::::::::::::::::::::::::::::::::::::::::::
         :: total free energy         -10.423209027101 Eh   ::
         ::.................................................::
         :: total energy              -10.500828158074 Eh   ::
         :: zero point energy           0.102655827417 Eh   ::
         :: G(RRHO) w/o ZPVE           -0.025036696444 Eh   ::
         :: G(RRHO) contrib.            0.077619130973 Eh   ::
         :::::::::::::::::::::::::::::::::::::::::::::::::::::

optimized geometry written to: xtbopt.coord


           -------------------------------------------------
          | TOTAL ENERGY              -10.500828158074 Eh   |
          | TOTAL ENTHALPY            -10.392695229859 Eh   |
          | TOTAL FREE ENERGY         -10.423209027101 Eh   |
          | GRADIENT NORM               0.000018003281 Eh/α |
          | HOMO-LUMO GAP              14.584035970471 eV   |
           -------------------------------------------------

------------------------------------------------------------------------
 * finished run on 2025/04/09 at 03:10:55.890     
------------------------------------------------------------------------
 total:
 * wall-time:     0 d,  0 h,  0 min,  0.120 sec
 *  cpu-time:     0 d,  0 h,  0 min,  0.119 sec
 * ratio c/w:     0.989 speedup
 SCF:
 * wall-time:     0 d,  0 h,  0 min,  0.002 sec
 *  cpu-time:     0 d,  0 h,  0 min,  0.002 sec
 * ratio c/w:     0.996 speedup
 ANC optimizer:
 * wall-time:     0 d,  0 h,  0 min,  0.012 sec
 *  cpu-time:     0 d,  0 h,  0 min,  0.012 sec
 * ratio c/w:     0.987 speedup
 analytical hessian:
 * wall-time:     0 d,  0 h,  0 min,  0.102 sec
 *  cpu-time:     0 d,  0 h,  0 min,  0.101 sec
 * ratio c/w:     0.990 speedup

