20
 energy: -386.235022856802 gnorm: 0.029112606352 xtb: 6.7.1 (41059b4)
C           -1.23996761944946       -0.96019118582549        1.25557145845638
C           -1.01258531424870       -0.11166041344948        0.00002854520001
C           -1.94372104776131        1.09945306828720        0.00086441560038
C           -1.24067602784978       -0.95897518722495       -1.25621259005666
C            0.43320444459196        0.37251037136507       -0.00008615670004
O            0.78416500004748        1.52261125507471       -0.00008855480004
O            1.29657251667455       -0.65294926838934       -0.00022982430010
C            2.67321114218457       -0.30712635213610        0.00013307160006
H           -1.06220193267069       -0.36982213496388        2.15199798145361
H           -2.26666230660442       -1.31871908198436        1.27666689136572
H           -0.56988440335253       -1.81588908890467        1.26286852635961
H           -1.76699325468300        1.71236162705879        0.88091176259036
H           -2.98098946762096        0.77411966974303       -0.00040445420018
H           -1.76552324748235        1.71462779645980       -0.87730286278876
H           -2.26747095090478       -1.31722408508370       -1.27722168846597
H           -1.06314679137111       -0.36784415546300       -2.15218260295369
H           -0.57084309945296       -1.81485603990421       -1.26458762066037
H            2.91721375859269        0.27754908112299        0.88950138949416
H            2.91590232249211        0.28503156602631       -0.88461955079200
H            3.22362657902847       -1.24447030135146       -0.00413391520183
20
 energy: -386.235886569441 gnorm: 0.010239983632 xtb: 6.7.1 (41059b4)
C           -1.24305332882339       -0.96420521993426        1.25846127500461
C           -1.01230439930806       -0.11293670919694        0.00005559579175
C           -1.93960572782169        1.10263263585395        0.00084672246020
C           -1.24363811510177       -0.96293827558141       -1.25910106641919
C            0.43305447644444        0.37729049830014       -0.00000319331652
O            0.78783460616798        1.53362052963695        0.00013385536078
O            1.29874494288761       -0.65712066734924       -0.00025600114121
C            2.68407141724019       -0.30139861684895        0.00006558108798
H           -1.06625278512659       -0.37539053499920        2.16273584840752
H           -2.27767448850743       -1.31666316341751        1.27781749443779
H           -0.57974120290480       -1.83091338950601        1.27345610658441
H           -1.76966023548750        1.72192436938666        0.88366611015840
H           -2.98009980879377        0.76838523880413       -0.00028235390476
H           -1.76837924645043        1.72404549255855       -0.88022672621007
H           -2.27832374098248       -1.31521592319523       -1.27836827358907
H           -1.06712238568962       -0.37330282042344       -2.16289586285496
H           -0.58049240969818       -1.82975847653673       -1.27519243323438
H            2.93185472928600        0.28275015681860        0.89075732593906
H            2.93056658151100        0.29003504760788       -0.88612972321907
H            3.23345207614514       -1.24230352746071       -0.00406527405484
20
 energy: -386.236032971414 gnorm: 0.004327863647 xtb: 6.7.1 (41059b4)
C           -1.24695218840677       -0.96471944671660        1.25939081641242
C           -1.00938300184549       -0.11277908112431        0.00007615201887
C           -1.94046378219220        1.10071550971437        0.00084108311760
C           -1.24739088670618       -0.96342020069450       -1.26003552061092
C            0.43722551740750        0.37690801443769        0.00012276159990
O            0.79410465834707        1.53350422799472        0.00043879326164
O            1.30618903540485       -0.66210667797825       -0.00028866772564
C            2.69690913225165       -0.29638337474726       -0.00001022457402
H           -1.06895511946267       -0.37875901956651        2.16772456627269
H           -2.28671735847408       -1.30928588513658        1.27680581611789
H           -0.59146591725394       -1.83938898719316        1.27728476799752
H           -1.77340497455707        1.72282201493426        0.88428365896454
H           -2.98261387342755        0.76419193094106       -0.00010351135153
H           -1.77237167645078        1.72472367816702       -0.88105500934045
H           -2.28717374072202       -1.30793184869631       -1.27740611773477
H           -1.06971322209381       -0.37656037168085       -2.16784842487782
H           -0.59196282685424       -1.83811137779964       -1.27904455179973
H            2.94072953037025        0.28799235860574        0.89193254607057
H            2.93942272661287        0.29496043432186       -0.88766201105364
H            3.24721982012743       -1.23783563581757       -0.00397124357961
20
 energy: -386.236054083784 gnorm: 0.001540142716 xtb: 6.7.1 (41059b4)
C           -1.24853277543834       -0.96568091017121        1.25934835636543
C           -1.00898457861596       -0.11395711367761        0.00009174733888
C           -1.93888264153084        1.10052977481543        0.00084227846753
C           -1.24887305270289       -0.96435479052263       -1.25999684753563
C            0.43792284228550        0.37539004943793        0.00019985837582
O            0.79473401319397        1.53116592609271        0.00068127182601
O            1.30859261942337       -0.66447442104233       -0.00032543306133
C            2.70095467926661       -0.29347823623539       -0.00006067792239
H           -1.06813315054185       -0.38080485932732        2.16773248536707
H           -2.29011385044902       -1.30461121109997        1.27618494225429
H           -0.59761464403639       -1.84353335052313        1.27680057243052
H           -1.77263978812329        1.72267947369222        0.88429519773144
H           -2.98067132723348        0.76337046609738        0.00003154143101
H           -1.77179294184337        1.72441931151169       -0.88121746281440
H           -2.29044311468139       -1.30331151262768       -1.27683480967142
H           -1.06880245964891       -0.37852878188336       -2.16783129457183
H           -0.59794015837961       -1.84217213189434       -1.27857490055717
H            2.94129116419965        0.29144297684770        0.89206052472584
H            2.93998829378663        0.29812190068345       -0.88807668338896
H            3.25317293315158       -1.23367644963135       -0.00387452662587
20
 energy: -386.236061972311 gnorm: 0.001535350946 xtb: 6.7.1 (41059b4)
C           -1.25052194075006       -0.96681770864577        1.25892514187947
C           -1.00834341023759       -0.11585398905662        0.00011432890889
C           -1.93668517952069        1.09977797177964        0.00084331464719
C           -1.25070574625816       -0.96544841335875       -1.25958300834837
C            0.43885035768744        0.37266806230510        0.00036054565418
O            0.79536026290005        1.52768935095462        0.00114191648673
O            1.31093827802159       -0.66736155846117       -0.00041354713734
C            2.70383311262243       -0.28969085746958       -0.00015641133897
H           -1.06455333085356       -0.38393101247604        2.16677328165286
H           -2.29404838352682       -1.29788110757646        1.27676080786893
H           -0.60591545774711       -1.84862168842147        1.27358347738279
H           -1.76958603336821        1.72116204390704        0.88406963295127
H           -2.97817680714676        0.76357082910109        0.00026181144319
H           -1.76905700558017        1.72262534581136       -0.88124924641905
H           -2.29418443190278       -1.29665106933495       -1.27751383821719
H           -1.06505777141986       -0.38153443374770       -2.16683427875535
H           -0.60597990847465       -1.84714204047854       -1.27537811595359
H            2.93932045061390        0.29657814691553        0.89182000784481
H            2.93807526031226        0.30270219561417       -0.88837225555788
H            3.25966987119164       -1.22730410675238       -0.00367675935283
20
 energy: -386.236064726727 gnorm: 0.000687628048 xtb: 6.7.1 (41059b4)
C           -1.25022117018989       -0.96712247942295        1.25881751718214
C           -1.00860260128905       -0.11605650589412        0.00011955184082
C           -1.93642541346304        1.10000822081434        0.00084539271904
C           -1.25036740420425       -0.96573762985586       -1.25947864777051
C            0.43846083538176        0.37236592975910        0.00039033790937
O            0.79471424843450        1.52775195189333        0.00132999479953
O            1.31039206952158       -0.66698561761995       -0.00047998626044
C            2.70252525505088       -0.28937882763092       -0.00019021347601
H           -1.06212494018295       -0.38507297257784        2.16676914892785
H           -2.29405235191196       -1.29699710152473        1.27812422154894
H           -0.60672066712757       -1.84983116991949        1.27225550615727
H           -1.76858466093790        1.72132683867073        0.88399351491918
H           -2.97816749807719        0.76448492895999        0.00032992842748
H           -1.76814731970696        1.72271065112471       -0.88124377355502
H           -2.29415149547696       -1.29575405464592       -1.27890798430757
H           -1.06257193064193       -0.38264769311645       -2.16682344636141
H           -0.60674240836878       -1.84833582455451       -1.27405441589978
H            2.93810915489017        0.29727868010386        0.89158528151617
H            2.93695259483836        0.30317986462621       -0.88833070888552
H            3.25895780048630       -1.22665121059645       -0.00357432573431
20
 energy: -386.236064726727 gnorm: 0.000687628048 xtb: 6.7.1 (41059b4)
C           -1.25022117018989       -0.96712247942295        1.25881751718214
C           -1.00860260128905       -0.11605650589412        0.00011955184082
C           -1.93642541346304        1.10000822081434        0.00084539271904
C           -1.25036740420425       -0.96573762985586       -1.25947864777051
C            0.43846083538176        0.37236592975910        0.00039033790937
O            0.79471424843450        1.52775195189333        0.00132999479953
O            1.31039206952158       -0.66698561761995       -0.00047998626044
C            2.70252525505088       -0.28937882763092       -0.00019021347601
H           -1.06212494018295       -0.38507297257784        2.16676914892785
H           -2.29405235191196       -1.29699710152473        1.27812422154894
H           -0.60672066712757       -1.84983116991949        1.27225550615727
H           -1.76858466093790        1.72132683867073        0.88399351491918
H           -2.97816749807719        0.76448492895999        0.00032992842748
H           -1.76814731970696        1.72271065112471       -0.88124377355502
H           -2.29415149547696       -1.29575405464592       -1.27890798430757
H           -1.06257193064193       -0.38264769311645       -2.16682344636141
H           -0.60674240836878       -1.84833582455451       -1.27405441589978
H            2.93810915489017        0.29727868010386        0.89158528151617
H            2.93695259483836        0.30317986462621       -0.88833070888552
H            3.25895780048630       -1.22665121059645       -0.00357432573431
