
                                 *****************
                                 * O   R   C   A *
                                 *****************

                                            #,                                       
                                            ###                                      
                                            ####                                     
                                            #####                                    
                                            ######                                   
                                           ########,                                 
                                     ,,################,,,,,                         
                               ,,#################################,,                 
                          ,,##########################################,,             
                       ,#########################################, ''#####,          
                    ,#############################################,,   '####,        
                  ,##################################################,,,,####,       
                ,###########''''           ''''###############################       
              ,#####''   ,,,,##########,,,,          '''####'''          '####       
            ,##' ,,,,###########################,,,                        '##       
           ' ,,###''''                  '''############,,,                           
         ,,##''                                '''############,,,,        ,,,,,,###''
      ,#''                                            '''#######################'''  
     '                                                          ''''####''''         
             ,#######,   #######,   ,#######,      ##                                
            ,#'     '#,  ##    ##  ,#'     '#,    #''#        ,####,   ,####,        
            ##       ##  ##   ,#'  ##            #'  '#       #'       #'  '#        
            ##       ##  #######   ##           ,######,      #####,   #    #        
            '#,     ,#'  ##    ##  '#,     ,#' ,#      #,     #,   #   #,  ,#        
             '#######'   ##     ##  '#######'  #'      '#     '####' # '####'        



                #########################################################
                #                        -***-                          #
                #          Department of theory and spectroscopy        #
                #                                                       #
                #                      Frank Neese                      #
                #                                                       #
                #     Directorship, Architecture, Infrastructure        #
                #                    SHARK, DRIVERS                     #
                #        Core code/Algorithms in most modules           #
                #                                                       #
                #        Max Planck Institute fuer Kohlenforschung      #
                #                Kaiser Wilhelm Platz 1                 #
                #                 D-45470 Muelheim/Ruhr                 #
                #                      Germany                          #
                #                                                       #
                #                  All rights reserved                  #
                #                        -***-                          #
                #########################################################


                         Program Version 6.0.1  -  RELEASE   -


 With contributions from (in alphabetic order):
[Max-Planck-Institut fuer Kohlenforschung]                               
  Daniel Aravena         : Magnetic Suceptibility                        
  Michael Atanasov       : Ab Initio Ligand Field Theory (pilot matlab implementation)
  Alexander A. Auer      : GIAO ZORA, VPT2 properties, NMR spectrum      
  Ute Becker             : All parallelization in ORCA, NUMFREQ, NUMCALC 
  Giovanni Bistoni       : ED, misc. LED, open-shell LED, HFLD           
  Martin Brehm           : Molecular dynamics                            
  Dmytro Bykov           : pre 5.0 version of the SCF Hessian            
  Marcos Casanova-Páez   : Triplet and SCS-CIS(D). UHF-(DLPNO)-IP/EA/STEOM-CCSD. UHF-CVS-IP/STEOM-CCSD   
  Vijay G. Chilkuri      : MRCI spin determinant printing, contributions to CSF-ICE 
  Pauline Colinet        : FMM embedding                                 
  Dipayan Datta          : RHF DLPNO-CCSD density                        
  Achintya Kumar Dutta   : EOM-CC, STEOM-CC                              
  Nicolas Foglia         : Exact transition moments, OPA infrastructure, MCD improvements    
  Dmitry Ganyushin       : Spin-Orbit,Spin-Spin,Magnetic field MRCI      
  Miquel Garcia-Rates    : C-PCM and meta-GGA Hessian, CCSD/C-PCM, Gaussian charge scheme 
  Tiago L. C. Gouveia    : GS-ROHF, GS-ROCIS                             
  Yang Guo               : DLPNO-NEVPT2, F12-NEVPT2, CIM, IAO-localization        
  Andreas Hansen         : Spin unrestricted coupled pair/coupled cluster methods 
  Ingolf Harden          : AUTO-CI MPn and infrastructure                
  Benjamin Helmich-Paris : MC-RPA, TRAH-(SCF,CASSCF), AVAS, COSX integrals, SCF dyn. polar. 
  Lee Huntington         : MR-EOM, pCC                                   
  Robert Izsak           : Overlap fitted RIJCOSX, COSX-SCS-MP3, EOM     
  Riya Kayal             : Wick's Theorem for AUTO-CI, AUTO-CI UHF-CCSDT 
  Emily Kempfer          : AUTO-CI, RHF CISDT and CCSDT                  
  Christian Kollmar      : KDIIS, OOCD, Brueckner-CCSD(T), CCSD density, CASPT2, CASPT2-K, improved NEVPT2 
  Axel Koslowski         : Symmetry handling                             
  Simone Kossmann        : meta-GGA functionals, TD-DFT gradient, OOMP2, (MP2 Hessian; deprecated post 5.0) 
  Lucas Lang             : DCDCAS                                        
  Marvin Lechner         : AUTO-CI (C++ implementation), FIC-MRCC        
  Spencer Leger          : CASSCF response                               
  Dagmar Lenk            : GEPOL surface, SMD, ORCA-2-JSON               
  Dimitrios Liakos       : Extrapolation schemes; Compound Job, initial MDCI parallelization 
  Dimitrios Manganas     : Further ROCIS development; embedding schemes. LFT, Crystal Embedding 
  Dimitrios Pantazis     : SARC Basis sets                               
  Anastasios Papadopoulos: AUTO-CI, single reference methods and gradients 
  Taras Petrenko         : pre 6.0 DFT Hessian and TD-DFT gradient, (ASA, deprecated), ECA, 1-Electron XAS/XES, NRVS 
  Peter Pinski           : DLPNO-MP2, DLPNO-MP2 Gradient                 
  Christoph Reimann      : Effective Core Potentials                     
  Marius Retegan         : Local ZFS, SOC                                
  Christoph Riplinger    : Optimizer, TS searches, QM/MM, DLPNO-CCSD(T), (RO)-DLPNO pert. Triples 
  Michael Roemelt        : Original ROCIS implementation                 
  Masaaki Saitow         : Open-shell DLPNO-CCSD energy and density      
  Barbara Sandhoefer     : DKH picture change effects                    
  Kantharuban Sivalingam : CASSCF convergence/infrastructure, NEVPT2 and variants, FIC-MRCI 
  Bernardo de Souza      : ESD, SOC TD-DFT                               
  Georgi L. Stoychev     : AutoAux, RI-MP2 NMR, DLPNO-MP2 response, X2C  
  Van Anh Tran           : RI-MP2 g-tensors                              
  Willem Van den Heuvel  : Paramagnetic NMR                              
  Zikuan Wang            : NOTCH, Electric field optimization            
  Frank Wennmohs         : Technical directorship and infrastructure     
  Hang Xu                : AUTO-CI-Response properties                   
                                                                         
[FACCTs GmbH]                                                            
  Markus Bursch, Miquel Garcia-Rates, Christoph Riplinger, Bernardo de Souza, Georgi L. Stoychev 
                                                                 
  APM, Basis sets (HGBS, AHGBS, def-TZVP (Ac-Lr), def2-XVPD (La-Lu)), CI-OPT, improved COSX, DLPNO-Multilevel,           
  DOCKER, DRACO, updates on ESD, GOAT, IRC, LR-CPCM, MBIS, meta-GGA TD-DFT gradient, ML-optimized integration grids, 
  MM, NACMEs, nearIR, NEB, NEB-TS, NL-DFT gradient (VV10), 2- and 3-layer-ONIOM, interface openCOSMO-RS, QMMM,   
  Crystal-QMMM, SF, symmetry and pop. for TD-DFT, r2SCAN hybrids, SOLVATOR                                   
                                                                         
[Other institutions]                                                     
  V. Asgeirsson          : NEB                                           
  Christoph Bannwarth    : sTDA-DFT, sTD-DFT, PBEh-3c, B97-3c, D3        
  Sebastian Ehlert       : rSCAN, r2SCAN, r2SCAN-3c, D4, dhf basis sets  
  Marvin Friede          : D4 for Fr, Ra, Ac-Lr                          
  Lars Goerigk           : TD-DFT with DH, B97 family of functionals     
  Stefan Grimme          : VdW corrections, initial TS optimization, DFT functionals, gCP, sTDA/sTD-DF 
  Waldemar Hujo          : DFT-NL                                        
  H. Jonsson             : NEB                                           
  Holger Kruse           : gCP                                           
  Marcel Mueller         : wB97X-3c, vDZP basis set                      
  Hagen Neugebauer       : wr2SCAN                                       
  Tobias Risthaus        : range-separated hybrid DFT                    
  Lukas Wittmann         : regularized MP2, r2SCAN double-hybrids, wr2SCAN        
                                                                         
We gratefully acknowledge several colleagues who have allowed us to      
interface, adapt or use parts of their codes:                            
  Ed Valeev, F. Pavosevic, A. Kumar             : LibInt (2-el integral package), F12 methods 
  Garnet Chan, S. Sharma, J. Yang, R. Olivares  : DMRG                   
  Ulf Ekstrom                                   : XCFun DFT Library      
  Mihaly Kallay                                 : mrcc  (arbitrary order and MRCC methods)
  Frank Weinhold                                : gennbo (NPA and NBO analysis)           
  Simon Mueller                                 : openCOSMO-RS                            
  Christopher J. Cramer and Donald G. Truhlar   : smd solvation model                     
  S Lehtola, MJT Oliveira, MAL Marques          : LibXC Library                           
  Liviu Ungur et al                             : ANISO software                          


 Your calculation uses the libint2 library for the computation of 2-el integrals
 For citations please refer to: http://libint.valeyev.net

 Your ORCA version has been built with support for libXC version: 6.2.2
 For citations please refer to: https://libxc.gitlab.io

 This ORCA versions uses:
   CBLAS   interface :  Fast vector & matrix operations
   LAPACKE interface :  Fast linear algebra routines
   SCALAPACK package :  Parallel linear algebra routines
   Shared memory     :  Shared parallel matrices
   BLAS/LAPACK       :  OpenBLAS 0.3.27  USE64BITINT DYNAMIC_ARCH NO_AFFINITY Zen SINGLE_THREADED
        Core in use  :  Zen
   Copyright (c) 2011-2014, The OpenBLAS Project


Your calculation utilizes the geometrical counterpoise correction gCP
Please cite in your paper:
H.Kruse, S. Grimme J.Chem.Phys., 136, (2012), 154101 
   

Your calculation utilizes the DFT-NL dispersion correction.
Cite in your paper:
Vydrov, O. A.; Van Voorhis, T. J. Chem. Phys. 2010, 133, 244103
Hujo, W.; Grimme, S. J. Chem. Theory Comput. 2011, 7, 3866 
   

================================================================================

----- Orbital basis set information -----
Your calculation utilizes the basis: def2-TZVP
   F. Weigend and R. Ahlrichs, Phys. Chem. Chem. Phys. 7, 3297 (2005).

----- AuxJ basis set information -----
Your calculation utilizes the auxiliary basis: def2/J
   F. Weigend, Phys. Chem. Chem. Phys. 8, 1057 (2006).

================================================================================
                                        WARNINGS
                       Please study these warnings very carefully!
================================================================================

WARNING: Old DensityContainer found on disk!
         Will remove this file - 
         If you want to keep old densities, please start your calculation with a different basename. 


================================================================================
                                       INPUT FILE
================================================================================
NAME = sp.inp
|  1> ! wb97x-v def2-tzvp def2/J RIJCOSX DEFGRID2 scfconv7 GCP(DFT/TZ) printgap
|  2> %output
|  3>     printlevel normal
|  4> end
|  5> * xyz 0 1
|  6> C -1.7867744789699587 0.6744908821727325 -0.00016567695535465407
|  7> C -0.47426499084991386 -0.08354800959896205 0.0007063098913587976
|  8> O -0.4280973846671167 -1.3061538542910953 0.00019483211649031965
|  9> N 0.6550920268849436 0.6790107373991084 0.00021070711361601796
| 10> C 1.9720209637428563 0.06039867633397818 -3.2662112693735643e-05
| 11> H -1.6745463411731558 1.761740664102072 0.01435716446999794
| 12> H -2.352471365399625 0.38444102835958943 -0.8893905306858166
| 13> H -2.3667357535846003 0.36157184947092386 0.8717387773339977
| 14> H 0.5797979412992781 1.6809692605499724 0.002665975511271212
| 15> H 2.7328424192840473 0.843732948717315 -0.007871507684615517
| 16> H 2.1019564106062325 -0.5767945267688868 -0.8808672517262596
| 17> H 2.108775067749319 -0.5656080647826726 0.8879033788702544
| 18> *
| 19> 
| 20>                          ****END OF INPUT****
================================================================================

                       ****************************
                       * Single Point Calculation *
                       ****************************

---------------------------------
CARTESIAN COORDINATES (ANGSTROEM)
---------------------------------
  C     -1.786774    0.674491   -0.000166
  C     -0.474265   -0.083548    0.000706
  O     -0.428097   -1.306154    0.000195
  N      0.655092    0.679011    0.000211
  C      1.972021    0.060399   -0.000033
  H     -1.674546    1.761741    0.014357
  H     -2.352471    0.384441   -0.889391
  H     -2.366736    0.361572    0.871739
  H      0.579798    1.680969    0.002666
  H      2.732842    0.843733   -0.007872
  H      2.101956   -0.576795   -0.880867
  H      2.108775   -0.565608    0.887903

----------------------------
CARTESIAN COORDINATES (A.U.)
----------------------------
  NO LB      ZA    FRAG     MASS         X           Y           Z
   0 C     6.0000    0    12.011   -3.376514    1.274603   -0.000313
   1 C     6.0000    0    12.011   -0.896231   -0.157883    0.001335
   2 O     8.0000    0    15.999   -0.808987   -2.468273    0.000368
   3 N     7.0000    0    14.007    1.237945    1.283144    0.000398
   4 C     6.0000    0    12.011    3.726580    0.114137   -0.000062
   5 H     1.0000    0     1.008   -3.164434    3.329207    0.027131
   6 H     1.0000    0     1.008   -4.445527    0.726488   -1.680705
   7 H     1.0000    0     1.008   -4.472482    0.683272    1.647348
   8 H     1.0000    0     1.008    1.095659    3.176572    0.005038
   9 H     1.0000    0     1.008    5.164324    1.594424   -0.014875
  10 H     1.0000    0     1.008    3.972122   -1.089984   -1.664598
  11 H     1.0000    0     1.008    3.985007   -1.068844    1.677894

--------------------------------
INTERNAL COORDINATES (ANGSTROEM)
--------------------------------
 C      0   0   0     0.000000000000     0.00000000     0.00000000
 C      1   0   0     1.515686273015     0.00000000     0.00000000
 O      2   1   0     1.223477323429   122.17108044     0.00000000
 N      2   1   3     1.362697090975   115.96361958   179.91173972
 C      4   2   1     1.454985486545   120.81094569   180.04554123
 H      1   2   3     1.093123120303   114.11248731   179.20026720
 H      1   2   3     1.093097765758   108.41544089   301.04474783
 H      1   2   3     1.092927618138   108.41296947    57.29566573
 H      4   2   1     1.004786599125   119.73012820     0.21993947
 H      5   4   2     1.092027159462   109.00304140   179.58685341
 H      5   4   2     1.094882629642   110.79255604    59.38949123
 H      5   4   2     1.094996135958   110.85298273   299.81376207

---------------------------
INTERNAL COORDINATES (A.U.)
---------------------------
 C      0   0   0     0.000000000000     0.00000000     0.00000000
 C      1   0   0     2.864231960941     0.00000000     0.00000000
 O      2   1   0     2.312037072344   122.17108044     0.00000000
 N      2   1   3     2.575124305434   115.96361958   179.91173972
 C      4   2   1     2.749524098401   120.81094569   180.04554123
 H      1   2   3     2.065703328031   114.11248731   179.20026720
 H      1   2   3     2.065655414884   108.41544089   301.04474783
 H      1   2   3     2.065333882480   108.41296947    57.29566573
 H      4   2   1     1.898771495381   119.73012820     0.21993947
 H      5   4   2     2.063632262187   109.00304140   179.58685341
 H      5   4   2     2.069028318811   110.79255604    59.38949123
 H      5   4   2     2.069242814662   110.85298273   299.81376207

---------------------
BASIS SET INFORMATION
---------------------
There are 4 groups of distinct atoms

 Group   1 Type C   : 11s6p2d1f contracted to 5s3p2d1f pattern {62111/411/11/1}
 Group   2 Type O   : 11s6p2d1f contracted to 5s3p2d1f pattern {62111/411/11/1}
 Group   3 Type N   : 11s6p2d1f contracted to 5s3p2d1f pattern {62111/411/11/1}
 Group   4 Type H   : 5s1p contracted to 3s1p pattern {311/1}

Atom   0C    basis set group =>   1
Atom   1C    basis set group =>   1
Atom   2O    basis set group =>   2
Atom   3N    basis set group =>   3
Atom   4C    basis set group =>   1
Atom   5H    basis set group =>   4
Atom   6H    basis set group =>   4
Atom   7H    basis set group =>   4
Atom   8H    basis set group =>   4
Atom   9H    basis set group =>   4
Atom  10H    basis set group =>   4
Atom  11H    basis set group =>   4
---------------------------------
AUXILIARY/J BASIS SET INFORMATION
---------------------------------
There are 4 groups of distinct atoms

 Group   1 Type C   : 12s5p4d2f1g contracted to 6s4p3d1f1g pattern {711111/2111/211/2/1}
 Group   2 Type O   : 12s5p4d2f1g contracted to 6s4p3d1f1g pattern {711111/2111/211/2/1}
 Group   3 Type N   : 12s5p4d2f1g contracted to 6s4p3d1f1g pattern {711111/2111/211/2/1}
 Group   4 Type H   : 5s2p1d contracted to 3s1p1d pattern {311/2/1}

Atom   0C    basis set group =>   1
Atom   1C    basis set group =>   1
Atom   2O    basis set group =>   2
Atom   3N    basis set group =>   3
Atom   4C    basis set group =>   1
Atom   5H    basis set group =>   4
Atom   6H    basis set group =>   4
Atom   7H    basis set group =>   4
Atom   8H    basis set group =>   4
Atom   9H    basis set group =>   4
Atom  10H    basis set group =>   4
Atom  11H    basis set group =>   4

Checking for AutoStart:
The File: sp.gbw exists
Trying to determine its content:
     ... Fine, the file contains calculation information
     ... Fine, the calculation information was read
     ... Fine, the file contains a basis set
     ... Fine, the basis set was read
     ... Fine, the file contains a geometry
     ... Fine, the geometry was read
     ... Fine, the file contains a set of orbitals
     ... Fine, the orbitals can be read
     => possible old guess file was deleted
     => GBW file was renamed to GES file
     => GES file is set as startup file
     => Guess is set to MORead
     ... now leaving AutoStart

------------------------------------------------------------------------------
                             ORCA STARTUP CALCULATIONS
                           -- RI-GTO INTEGRALS CHOSEN --
------------------------------------------------------------------------------
------------------------------------------------------------------------------
                   ___                                                        
                  /   \      - P O W E R E D   B Y -                         
                 /     \                                                     
                 |  |  |   _    _      __       _____    __    __             
                 |  |  |  | |  | |    /  \     |  _  \  |  |  /  |          
                  \  \/   | |  | |   /    \    | | | |  |  | /  /          
                 / \  \   | |__| |  /  /\  \   | |_| |  |  |/  /          
                |  |  |   |  __  | /  /__\  \  |    /   |      \           
                |  |  |   | |  | | |   __   |  |    \   |  |\   \          
                \     /   | |  | | |  |  |  |  | |\  \  |  | \   \       
                 \___/    |_|  |_| |__|  |__|  |_| \__\ |__|  \__/        
                                                                              
                      - O R C A' S   B I G   F R I E N D -                    
                                      &                                       
                       - I N T E G R A L  F E E D E R -                       
                                                                              
 v1 FN, 2020, v2 2021, v3 2022-2024                                           
------------------------------------------------------------------------------


----------------------
SHARK INTEGRAL PACKAGE
----------------------

Number of atoms                             ...     12
Number of basis functions                   ...    197
Number of shells                            ...     83
Maximum angular momentum                    ...      3
Integral batch strategy                     ... SHARK/LIBINT Hybrid
RI-J (if used) integral strategy            ... SPLIT-RIJ (Revised 2003 algorithm where possible)
Printlevel                                  ...      1
Contraction scheme used                     ... SEGMENTED contraction
Prescreening option                         ... SCHWARTZ
   Thresh                                   ... 3.000e-11
   Tcut                                     ... 1.000e-12
   Tpresel                                  ... 1.000e-12 
Coulomb Range Separation                    ... NOT USED
Exchange Range Separation                   ... Long Range
   Mu parameter                             ... 3.000e-01
   Scaling (regular/separated)              ... 1.670e-01 8.330e-01
Multipole approximations                    ... NOT USED
Finite Nucleus Model                        ... NOT USED
CABS basis                                  ... NOT available
Auxiliary Coulomb fitting basis             ... AVAILABLE
   # of basis functions in Aux-J            ...    322
   # of shells in Aux-J                     ...    110
   Maximum angular momentum in Aux-J        ...      4
Auxiliary J/K fitting basis                 ... NOT available
Auxiliary Correlation fitting basis         ... NOT available
Auxiliary 'external' fitting basis          ... NOT available

Checking pre-screening integrals            ... done (  0.0 sec) Dimension = 83
Check shell pair data                       ... done (  0.0 sec)
Shell pair information
Shell pair cut-off parameter TPreSel        ...   1.0e-12
Total number of shell pairs                 ...      3486
Shell pairs after pre-screening             ...      3342
Total number of primitive shell pairs       ...     10284
Primitive shell pairs kept                  ...      7848
          la=0 lb=0:   1009 shell pairs
          la=1 lb=0:    967 shell pairs
          la=1 lb=1:    249 shell pairs
          la=2 lb=0:    443 shell pairs
          la=2 lb=1:    219 shell pairs
          la=2 lb=2:     55 shell pairs
          la=3 lb=0:    225 shell pairs
          la=3 lb=1:    110 shell pairs
          la=3 lb=2:     50 shell pairs
          la=3 lb=3:     15 shell pairs

Calculating one electron integrals          ... done (  0.0 sec)
Calculating RI/J V-Matrix + Cholesky decomp.... done (  0.0 sec)
Calculating Nuclear repulsion               ... done (  0.0 sec) ENN=    180.072434526048 Eh

Diagonalization of the overlap matrix:
Smallest eigenvalue                        ... 3.861e-04
Time for diagonalization                   ...    0.003 sec
Threshold for overlap eigenvalues          ... 1.000e-07
Number of eigenvalues below threshold      ... 0
Time for construction of square roots      ...    0.001 sec
Total time needed                          ...    0.005 sec

-------------------
DFT GRID GENERATION
-------------------

General Integration Accuracy     IntAcc      ... 4.388
Radial Grid Type                 RadialGrid  ... OptM3 with GC (2021)
Angular Grid (max. ang.)         AngularGrid ... 4 (Lebedev-302)
Angular grid pruning method      GridPruning ... 4 (adaptive)
Weight generation scheme         WeightScheme... mBecke (2022)
Basis function cutoff            BFCut       ... 1.0000e-11
Integration weight cutoff        WCut        ... 1.0000e-14
Partially contracted basis set               ... off
Rotationally invariant grid construction     ... off
Angular grids for H and He will be reduced by one unit

Total number of grid points                  ...    52966
Total number of batches                      ...      834
Average number of points per batch           ...       63
Average number of grid points per atom       ...     4414

--------------------
COSX GRID GENERATION
--------------------

GRIDX 1
-------
General Integration Accuracy     IntAcc      ... 3.816
Radial Grid Type                 RadialGrid  ... OptM3 with GC (2021)
Angular Grid (max. ang.)         AngularGrid ... 1 (Lebedev-50)
Angular grid pruning method      GridPruning ... 4 (adaptive)
Weight generation scheme         WeightScheme... mBecke (2022)
Basis function cutoff            BFCut       ... 1.0000e-11
Integration weight cutoff        WCut        ... 1.0000e-14
Partially contracted basis set               ... on
Rotationally invariant grid construction     ... off
Angular grids for H and He will be reduced by one unit

Total number of grid points                  ...     6798
Total number of batches                      ...       59
Average number of points per batch           ...      115
Average number of grid points per atom       ...      566
UseSFitting                                  ... on

GRIDX 2
-------
General Integration Accuracy     IntAcc      ... 4.020
Radial Grid Type                 RadialGrid  ... OptM3 with GC (2021)
Angular Grid (max. ang.)         AngularGrid ... 2 (Lebedev-110)
Angular grid pruning method      GridPruning ... 4 (adaptive)
Weight generation scheme         WeightScheme... mBecke (2022)
Basis function cutoff            BFCut       ... 1.0000e-11
Integration weight cutoff        WCut        ... 1.0000e-14
Partially contracted basis set               ... on
Rotationally invariant grid construction     ... off
Angular grids for H and He will be reduced by one unit

Total number of grid points                  ...    14574
Total number of batches                      ...      121
Average number of points per batch           ...      120
Average number of grid points per atom       ...     1214
UseSFitting                                  ... on

GRIDX 3
-------
General Integration Accuracy     IntAcc      ... 4.338
Radial Grid Type                 RadialGrid  ... OptM3 with GC (2021)
Angular Grid (max. ang.)         AngularGrid ... 3 (Lebedev-194)
Angular grid pruning method      GridPruning ... 4 (adaptive)
Weight generation scheme         WeightScheme... mBecke (2022)
Basis function cutoff            BFCut       ... 1.0000e-11
Integration weight cutoff        WCut        ... 1.0000e-14
Partially contracted basis set               ... on
Rotationally invariant grid construction     ... off
Angular grids for H and He will be reduced by one unit

Total number of grid points                  ...    32015
Total number of batches                      ...      258
Average number of points per batch           ...      124
Average number of grid points per atom       ...     2668
UseSFitting                                  ... on
Initializing property integral containers    ... done (  0.0 sec)

SHARK setup successfully completed in   0.6 seconds

Maximum memory used throughout the entire STARTUP-calculation: 28.7 MB
-------------------------------------------------------------------------------
                                 ORCA GUESS
                   Start orbitals & Density for SCF / CASSCF
-------------------------------------------------------------------------------

------------
SCF SETTINGS
------------
Hamiltonian:
 Density Functional     Method          .... DFT(GTOs)
 Exchange Functional    Exchange        .... WB97X-V
 Correlation Functional Correlation     .... WB97X-V
 Gradients option       PostSCFGGA      .... off
 Hybrid DFT is turned on
   Fraction HF Exchange ScalHFX         ....  0.167000
   Scaling of DF-GGA-X  ScalDFX         ....  0.000000
   Scaling of DF-GGA-C  ScalDFC         ....  1.000000
   Scaling of DF-LDA-C  ScalLDAC        ....  1.000000
   Perturbative correction              ....  0.000000
 Long-range corrected/Screened/Range-Separated Hybrid DFT is turned on
   Amount of maximum screened exact exchange              ....  0.833000
   Range separation parameter mu (erf(mu*r12)/r12)        ....  0.300000
   NL short-range parameter             ....  6.000000
   NL long-range parameter              ....  0.010000
 RI-approximation to the Coulomb term is turned on
   Number of AuxJ basis functions       .... 322
   RIJ-COSX (HFX calculated with COS-X)).... on


General Settings:
 Integral files         IntName         .... sp
 Hartree-Fock type      HFTyp           .... RHF
 Total Charge           Charge          ....    0
 Multiplicity           Mult            ....    1
 Number of Electrons    NEL             ....   40
 Basis Dimension        Dim             ....  197
 Nuclear Repulsion      ENuc            ....    180.0724345260 Eh

Convergence Acceleration:
 AO-DIIS                CNVDIIS         .... on
   Start iteration      DIISMaxIt       ....    12
   Startup error        DIISStart       ....  0.200000
   # of expansion vecs  DIISMaxEq       ....     5
   Bias factor          DIISBfac        ....   1.050
   Max. coefficient     DIISMaxC        ....  10.000
 MO-DIIS                CNVKDIIS        .... off
 Trust-Rad. Augm. Hess. CNVTRAH         .... auto
   Auto Start mean grad. ratio tolernc. ....  1.125000
   Auto Start start iteration           ....     1
   Auto Start num. interpolation iter.  ....    10
   Max. Number of Micro iterations      ....    24
   Max. Number of Macro iterations      .... Maxiter - #DIIS iter
   Number of Davidson start vectors     ....     2
   Converg. threshold    (grad. norm)   ....   1.000e-04
   Grad. Scal. Fac. for Micro threshold ....   0.100
   Minimum threshold for Micro iter.    ....   1.000e-02
   NR start threshold (gradient norm)   ....   1.000e-04
   Initial trust radius                 ....   0.400
   Minimum AH scaling param. (alpha)    ....   1.000
   Maximum AH scaling param. (alpha)    .... 1000.000
   Quad. conv. algorithm                .... NR
   White noise on init. David. guess    .... on
   Maximum white noise                  ....   0.010
   Pseudo random numbers                .... off
   Inactive MOs                         .... canonical
   Orbital update algorithm             .... Taylor
   Preconditioner                       .... Diag
   Full preconditioner red. dimension   ....   250
 SOSCF                  CNVSOSCF        .... on
   Start iteration      SOSCFMaxIt      ....   150
   Startup grad/error   SOSCFStart      ....  0.003300
   Hessian update       SOSCFHessUp     .... L-BFGS
 Level Shifting         CNVShift        .... on
   Level shift para.    LevelShift      ....    0.2500
   Turn off err/grad.   ShiftErr        ....    0.0010
 Zerner damping         CNVZerner       .... off
 Static damping         CNVDamp         .... on
   Fraction old density DampFac         ....    0.7000
   Max. Damping (<1)    DampMax         ....    0.9800
   Min. Damping (>=0)   DampMin         ....    0.0000
   Turn off err/grad.   DampErr         ....    0.1000

SCF Procedure:
 Maximum # iterations   MaxIter         ....   125
 SCF integral mode      SCFMode         .... Direct
   Integral package                     .... SHARK and LIBINT hybrid scheme
 Reset frequency        DirectResetFreq ....    20
 Integral Threshold     Thresh          ....  3.000e-11 Eh
 Primitive CutOff       TCut            ....  1.000e-12 Eh

Convergence Tolerance:
 Convergence Check Mode ConvCheckMode   .... Total+1el-Energy
 Convergence forced     ConvForced      .... 0
 Energy Change          TolE            ....  1.000e-07 Eh
 1-El. energy change                    ....  1.000e-04 Eh
 Orbital Gradient       TolG            ....  1.000e-04
 Orbital Rotation angle TolX            ....  1.000e-04
 DIIS Error             TolErr          ....  1.000e-07

---------------------
INITIAL GUESS: MOREAD
---------------------
Guess MOs are being read from file: sp.ges
Input Geometry matches current geometry (good)
Atom 0: N(Shells)= 11 and 9 - projection required
Input basis set needs projection
NBasis(read)= 140
NBasis(calc)= 197
Basis set overlap was calculated
Using GuessMode=FMatrix for the initial guess
C*T matrix was formed
Effective Fockian was calculated
Effective Fockian was diagonalized
Initial density was built
                      ------------------
                      INITIAL GUESS DONE (   0.0 sec)
                      ------------------
             **** ENERGY FILE WAS UPDATED (sp.en.tmp) ****
Finished Guess after   0.0 sec
Maximum memory used throughout the entire GUESS-calculation: 16.1 MB

-------------------------------------------------------------------------------------------
                                      ORCA LEAN-SCF
                              memory conserving SCF solver
-------------------------------------------------------------------------------------------

----------------------------------------D-I-I-S--------------------------------------------
Iteration    Energy (Eh)           Delta-E    RMSDP     MaxDP     DIISErr   Damp  Time(sec)
-------------------------------------------------------------------------------------------
               ***  Starting incremental Fock matrix formation  ***
    1    -248.6902317668734668     0.00e+00  8.78e-04  2.29e-02  5.95e-02  0.700   4.1
    2    -248.6937723194498062    -3.54e-03  7.69e-04  2.14e-02  4.36e-02  0.700   2.0
                               ***Turning on AO-DIIS***
    3    -248.6964448788599498    -2.67e-03  6.44e-04  1.86e-02  3.14e-02  0.700   2.0
    4    -248.6984147346742589    -1.97e-03  1.62e-03  4.72e-02  2.21e-02  0.000   2.0
                              *** Initializing SOSCF ***
---------------------------------------S-O-S-C-F--------------------------------------
Iteration    Energy (Eh)           Delta-E    RMSDP     MaxDP     MaxGrad    Time(sec)
--------------------------------------------------------------------------------------
    5    -248.7034453099456073    -5.03e-03  7.91e-05  2.31e-03  1.68e-03     1.9
               *** Restarting incremental Fock matrix formation ***
    6    -248.7034725111591342    -2.72e-05  4.14e-05  1.22e-03  5.53e-04     3.9
    7    -248.7034784220489314    -5.91e-06  2.47e-05  7.11e-04  1.81e-04     3.1
    8    -248.7034793646168964    -9.43e-07  4.69e-06  1.85e-04  1.07e-04     3.1
    9    -248.7034795063860315    -1.42e-07  2.92e-06  6.89e-05  6.46e-05     2.8
   10    -248.7034795462874968    -3.99e-08  7.59e-07  2.72e-05  1.64e-05     2.7
                 **** Energy Check signals convergence ****

               *****************************************************
               *                     SUCCESS                       *
               *           SCF CONVERGED AFTER  10 CYCLES          *
               *****************************************************


------------------
NL GRID GENERATION
------------------

General Integration Accuracy     IntAcc      ... 4.004
Radial Grid Type                 RadialGrid  ... OptM3 with GC (2021)
Angular Grid (max. ang.)         AngularGrid ... 2 (Lebedev-110)
Angular grid pruning method      GridPruning ... 4 (adaptive)
Weight generation scheme         WeightScheme... mBecke (2022)
Basis function cutoff            BFCut       ... 1.0000e-10
Integration weight cutoff        WCut        ... 1.0000e-14
Partially contracted basis set               ... off
Rotationally invariant grid construction     ... off
Angular grids for H and He will be reduced by one unit

Total number of grid points                  ...    16259
Total number of batches                      ...      260
Average number of points per batch           ...       62
Average number of grid points per atom       ...     1355
Final grid set up in    0.1 sec

-------------------------------------------------------------------------------
                    post-SCF DFT-NL dispersion correction                      
-------------------------------------------------------------------------------

SCF Energy:     -248.703479546 
NL    Energy:      0.157009167 
SC+NL Energy:   -248.546470379 
NL done in  :              0.8 sec
-------------------------------------------------------------------------------
Recomputing exchange energy using gridx3       ... done (    7.264 sec)
Old exchange energy                            :    -10.722412855 Eh
New exchange energy                            :    -10.722419954 Eh
Exchange energy change after final integration :     -0.000007100 Eh
Total energy after final integration           :   -248.546477479 Eh
             **** ENERGY FILE WAS UPDATED (sp.en.tmp) ****

----------------
TOTAL SCF ENERGY
----------------

Total Energy       :       -248.54647747868233 Eh           -6763.29349 eV

Components:
Nuclear Repulsion  :        180.07243452604843 Eh            4900.02006 eV
Electronic Energy  :       -428.77591407233592 Eh          -11667.58579 eV
One Electron Energy:       -693.17219927157328 Eh          -18862.17448 eV
Two Electron Energy:        264.39628519923735 Eh            7194.58869 eV

Virial components:
Potential Energy   :       -496.10347447001277 Eh          -13499.66185 eV
Kinetic Energy     :        247.55699699133044 Eh            6736.36836 eV
Virial Ratio       :          2.00399698049087

DFT components:
N(Alpha)           :       20.000005992938 electrons
N(Beta)            :       20.000005992938 electrons
N(Total)           :       40.000011985876 electrons
E(X)               :      -22.154731655904 Eh       
E(C)               :       -1.648413322173 Eh       
NL Energy, E(C,NL) :        0.157009167393 Eh       
E(XC)              :      -23.646135810685 Eh       

---------------
SCF CONVERGENCE
---------------

  Last Energy change         ...    3.9901e-08  Tolerance :   1.0000e-07
  Last MAX-Density change    ...    2.7205e-05  Tolerance :   1.0000e-05
  Last RMS-Density change    ...    7.5920e-07  Tolerance :   1.0000e-06
  Last DIIS Error            ...    1.6842e-03  Tolerance :   1.0000e-07
  Last Orbital Gradient      ...    1.6383e-05  Tolerance :   1.0000e-04
  Last Orbital Rotation      ...    2.2065e-05  Tolerance :   1.0000e-04


----------------
ORBITAL ENERGIES
----------------

  NO   OCC          E(Eh)            E(eV) 
   0   2.0000     -19.168661      -521.6058 
   1   2.0000     -14.437072      -392.8527 
   2   2.0000     -10.370683      -282.2006 
   3   2.0000     -10.303897      -280.3833 
   4   2.0000     -10.277172      -279.6561 
   5   2.0000      -1.163358       -31.6566 
   6   2.0000      -1.052538       -28.6410 
   7   2.0000      -0.886226       -24.1154 
   8   2.0000      -0.818346       -22.2683 
   9   2.0000      -0.706374       -19.2214 
  10   2.0000      -0.622229       -16.9317 
  11   2.0000      -0.582552       -15.8520 
  12   2.0000      -0.579332       -15.7644 
  13   2.0000      -0.535041       -14.5592 
  14   2.0000      -0.519865       -14.1463 
  15   2.0000      -0.505905       -13.7664 
  16   2.0000      -0.499308       -13.5869 
  17   2.0000      -0.459475       -12.5030 
  18   2.0000      -0.360424        -9.8076 
  19   2.0000      -0.358852        -9.7649 
  20   0.0000       0.097744         2.6598 
  21   0.0000       0.114373         3.1122 
  22   0.0000       0.135590         3.6896 
  23   0.0000       0.145382         3.9560 
  24   0.0000       0.187406         5.0996 
  25   0.0000       0.192897         5.2490 
  26   0.0000       0.202950         5.5225 
  27   0.0000       0.218960         5.9582 
  28   0.0000       0.219840         5.9821 
  29   0.0000       0.248502         6.7621 
  30   0.0000       0.277646         7.5551 
*Only the first 10 virtual orbitals were printed.

                    ********************************
                    * MULLIKEN POPULATION ANALYSIS *
                    ********************************

-----------------------
MULLIKEN ATOMIC CHARGES
-----------------------
   0 C :   -0.343215
   1 C :    0.309173
   2 O :   -0.393355
   3 N :   -0.316919
   4 C :   -0.220011
   5 H :    0.095686
   6 H :    0.135260
   7 H :    0.135535
   8 H :    0.220897
   9 H :    0.113441
  10 H :    0.132054
  11 H :    0.131453
Sum of atomic charges:   -0.0000000

--------------------------------
MULLIKEN REDUCED ORBITAL CHARGES
--------------------------------
  0 C s       :     3.226222  s :     3.226222
      pz      :     1.090251  p :     3.069658
      px      :     0.992993
      py      :     0.986414
      dz2     :     0.008637  d :     0.044263
      dxz     :     0.012903
      dyz     :     0.002720
      dx2y2   :     0.012487
      dxy     :     0.007516
      f0      :     0.000215  f :     0.003072
      f+1     :     0.000771
      f-1     :     0.000284
      f+2     :     0.000036
      f-2     :     0.000173
      f+3     :     0.000716
      f-3     :     0.000876

  1 C s       :     3.071697  s :     3.071697
      pz      :     0.737206  p :     2.346589
      px      :     0.845297
      py      :     0.764086
      dz2     :     0.006276  d :     0.251216
      dxz     :     0.029846
      dyz     :     0.066684
      dx2y2   :     0.047779
      dxy     :     0.100631
      f0      :     0.002719  f :     0.021325
      f+1     :     0.001031
      f-1     :     0.001380
      f+2     :     0.003084
      f-2     :     0.001987
      f+3     :     0.008043
      f-3     :     0.003081

  2 O s       :     3.796245  s :     3.796245
      pz      :     1.436637  p :     4.563577
      px      :     1.792891
      py      :     1.334049
      dz2     :     0.002917  d :     0.031669
      dxz     :     0.000058
      dyz     :     0.011129
      dx2y2   :     0.009552
      dxy     :     0.008013
      f0      :     0.000188  f :     0.001865
      f+1     :     0.000022
      f-1     :     0.000192
      f+2     :     0.000448
      f-2     :     0.000012
      f+3     :     0.000533
      f-3     :     0.000470

  3 N s       :     3.411991  s :     3.411991
      pz      :     1.663866  p :     3.846291
      px      :     1.096916
      py      :     1.085509
      dz2     :     0.004240  d :     0.054391
      dxz     :     0.011560
      dyz     :     0.003201
      dx2y2   :     0.021022
      dxy     :     0.014367
      f0      :     0.000721  f :     0.004246
      f+1     :     0.000694
      f-1     :     0.000672
      f+2     :     0.000075
      f-2     :     0.000447
      f+3     :     0.000830
      f-3     :     0.000807

  4 C s       :     3.218217  s :     3.218217
      pz      :     1.092345  p :     2.921392
      px      :     0.817425
      py      :     1.011622
      dz2     :     0.008218  d :     0.074642
      dxz     :     0.019059
      dyz     :     0.018497
      dx2y2   :     0.011046
      dxy     :     0.017822
      f0      :     0.000827  f :     0.005761
      f+1     :     0.000347
      f-1     :     0.001057
      f+2     :     0.000751
      f-2     :     0.000587
      f+3     :     0.001162
      f-3     :     0.001030

  5 H s       :     0.882986  s :     0.882986
      pz      :     0.004197  p :     0.021328
      px      :     0.004132
      py      :     0.012999

  6 H s       :     0.843078  s :     0.843078
      pz      :     0.009937  p :     0.021662
      px      :     0.007061
      py      :     0.004664

  7 H s       :     0.842817  s :     0.842817
      pz      :     0.009717  p :     0.021648
      px      :     0.007173
      py      :     0.004758

  8 H s       :     0.739830  s :     0.739830
      pz      :     0.013068  p :     0.039273
      px      :     0.005773
      py      :     0.020432

  9 H s       :     0.865991  s :     0.865991
      pz      :     0.004263  p :     0.020568
      px      :     0.008403
      py      :     0.007902

 10 H s       :     0.847161  s :     0.847161
      pz      :     0.009867  p :     0.020785
      px      :     0.003451
      py      :     0.007467

 11 H s       :     0.847774  s :     0.847774
      pz      :     0.009955  p :     0.020772
      px      :     0.003467
      py      :     0.007350


------------------------
MULLIKEN OVERLAP CHARGES
------------------------
B(  0-C ,  1-C ) :   0.6361 B(  0-C ,  2-O ) :  -0.1499 B(  0-C ,  3-N ) :  -0.1828 
B(  0-C ,  5-H ) :   0.7995 B(  0-C ,  6-H ) :   0.7846 B(  0-C ,  7-H ) :   0.7876 
B(  1-C ,  2-O ) :   1.4225 B(  1-C ,  3-N ) :   0.6576 B(  1-C ,  4-C ) :  -0.0766 
B(  1-C ,  5-H ) :  -0.1250 B(  1-C ,  8-H ) :  -0.0561 B(  2-O ,  3-N ) :  -0.2757 
B(  3-N ,  4-C ) :   0.5089 B(  3-N ,  8-H ) :   0.7379 B(  3-N ,  9-H ) :  -0.0642 
B(  3-N , 10-H ) :  -0.0880 B(  3-N , 11-H ) :  -0.0879 B(  4-C ,  8-H ) :  -0.0679 
B(  4-C ,  9-H ) :   0.7876 B(  4-C , 10-H ) :   0.8494 B(  4-C , 11-H ) :   0.8496 
B(  9-H , 10-H ) :  -0.0545 B(  9-H , 11-H ) :  -0.0550 B( 10-H , 11-H ) :  -0.0704 



                     *******************************
                     * LOEWDIN POPULATION ANALYSIS *
                     *******************************

----------------------
LOEWDIN ATOMIC CHARGES
----------------------
   0 C :   -0.262299
   1 C :   -0.473772
   2 O :    0.050963
   3 N :    0.079250
   4 C :   -0.301886
   5 H :    0.114901
   6 H :    0.135559
   7 H :    0.135508
   8 H :    0.174989
   9 H :    0.112014
  10 H :    0.117529
  11 H :    0.117244

-------------------------------
LOEWDIN REDUCED ORBITAL CHARGES
-------------------------------
  0 C s       :     2.830290  s :     2.830290
      pz      :     1.084184  p :     3.183180
      px      :     1.047603
      py      :     1.051393
      dz2     :     0.037812  d :     0.225822
      dxz     :     0.062788
      dyz     :     0.012839
      dx2y2   :     0.069497
      dxy     :     0.042886
      f0      :     0.001512  f :     0.023006
      f+1     :     0.003892
      f-1     :     0.003099
      f+2     :     0.001201
      f-2     :     0.004005
      f+3     :     0.004416
      f-3     :     0.004882

  1 C s       :     2.752105  s :     2.752105
      pz      :     0.728398  p :     2.686887
      px      :     0.969576
      py      :     0.988913
      dz2     :     0.052958  d :     0.903314
      dxz     :     0.098298
      dyz     :     0.184401
      dx2y2   :     0.219807
      dxy     :     0.347850
      f0      :     0.008324  f :     0.131467
      f+1     :     0.005476
      f-1     :     0.010402
      f+2     :     0.021199
      f-2     :     0.012949
      f+3     :     0.052679
      f-3     :     0.020438

  2 O s       :     3.401425  s :     3.401425
      pz      :     1.357057  p :     4.475707
      px      :     1.638990
      py      :     1.479660
      dz2     :     0.007856  d :     0.066105
      dxz     :     0.000065
      dyz     :     0.014037
      dx2y2   :     0.024939
      dxy     :     0.019208
      f0      :     0.000414  f :     0.005800
      f+1     :     0.000114
      f-1     :     0.000918
      f+2     :     0.000783
      f-2     :     0.000025
      f+3     :     0.001791
      f-3     :     0.001755

  3 N s       :     2.932455  s :     2.932455
      pz      :     1.457970  p :     3.756782
      px      :     1.169204
      py      :     1.129608
      dz2     :     0.014320  d :     0.217068
      dxz     :     0.035998
      dyz     :     0.011994
      dx2y2   :     0.091224
      dxy     :     0.063532
      f0      :     0.001377  f :     0.014445
      f+1     :     0.001828
      f-1     :     0.001674
      f+2     :     0.000442
      f-2     :     0.002215
      f+3     :     0.004561
      f-3     :     0.002348

  4 C s       :     2.836345  s :     2.836345
      pz      :     1.105998  p :     3.097941
      px      :     0.926233
      py      :     1.065710
      dz2     :     0.042057  d :     0.327895
      dxz     :     0.068378
      dyz     :     0.074972
      dx2y2   :     0.053295
      dxy     :     0.089192
      f0      :     0.004670  f :     0.039705
      f+1     :     0.004819
      f-1     :     0.003671
      f+2     :     0.006859
      f-2     :     0.003835
      f+3     :     0.008825
      f-3     :     0.007025

  5 H s       :     0.824604  s :     0.824604
      pz      :     0.013517  p :     0.060495
      px      :     0.012477
      py      :     0.034501

  6 H s       :     0.803017  s :     0.803017
      pz      :     0.028348  p :     0.061425
      px      :     0.018714
      py      :     0.014363

  7 H s       :     0.803065  s :     0.803065
      pz      :     0.027787  p :     0.061427
      px      :     0.019002
      py      :     0.014638

  8 H s       :     0.716391  s :     0.716391
      pz      :     0.036716  p :     0.108620
      px      :     0.016648
      py      :     0.055255

  9 H s       :     0.827792  s :     0.827792
      pz      :     0.013894  p :     0.060195
      px      :     0.022091
      py      :     0.024210

 10 H s       :     0.821709  s :     0.821709
      pz      :     0.029397  p :     0.060761
      px      :     0.010098
      py      :     0.021266

 11 H s       :     0.822034  s :     0.822034
      pz      :     0.029637  p :     0.060722
      px      :     0.010130
      py      :     0.020954


---------------------------------
LOEWDIN BOND ORDERS (THRESH 0.050000)
---------------------------------
B(  0-C ,  1-C ) :   1.2248 B(  0-C ,  2-O ) :   0.1661 B(  0-C ,  3-N ) :   0.1514 
B(  0-C ,  5-H ) :   0.9068 B(  0-C ,  6-H ) :   0.8912 B(  0-C ,  7-H ) :   0.8914 
B(  1-C ,  2-O ) :   2.5805 B(  1-C ,  3-N ) :   1.5918 B(  1-C ,  4-C ) :   0.1867 
B(  1-C ,  5-H ) :   0.0767 B(  1-C ,  6-H ) :   0.0883 B(  1-C ,  7-H ) :   0.0882 
B(  1-C ,  8-H ) :   0.0960 B(  2-O ,  3-N ) :   0.2050 B(  2-O ,  4-C ) :   0.0534 
B(  3-N ,  4-C ) :   1.3202 B(  3-N ,  8-H ) :   0.8806 B(  3-N ,  9-H ) :   0.0647 
B(  3-N , 10-H ) :   0.0566 B(  3-N , 11-H ) :   0.0565 B(  4-C ,  8-H ) :   0.0731 
B(  4-C ,  9-H ) :   0.9247 B(  4-C , 10-H ) :   0.9232 B(  4-C , 11-H ) :   0.9235 


------------------------------------------
LOEWDIN REDUCED ORBITAL POPULATIONS PER MO
-------------------------------------------
THRESHOLD FOR PRINTING IS 0.1%%
                      0         1         2         3         4         5   
                 -19.16866 -14.43707 -10.37068 -10.30390 -10.27717  -1.16336
                   2.00000   2.00000   2.00000   2.00000   2.00000   2.00000
                  --------  --------  --------  --------  --------  --------
 0 C  s               0.0       0.0       0.0       0.0      99.4       1.6
 0 C  px              0.0       0.0       0.1       0.0       0.0       1.7
 0 C  py              0.0       0.0       0.0       0.0       0.0       1.0
 0 C  dz2             0.0       0.0       0.0       0.0       0.0       0.1
 0 C  dxy             0.0       0.0       0.1       0.0       0.0       0.4
 1 C  s               0.0       0.0      98.9       0.0       0.0      21.7
 1 C  px              0.0       0.1       0.0       0.0       0.1       0.8
 1 C  py              0.1       0.0       0.0       0.0       0.0       6.7
 1 C  dz2             0.0       0.0       0.0       0.0       0.0       1.6
 1 C  dx2y2           0.1       0.0       0.0       0.0       0.0       1.7
 1 C  dxy             0.0       0.1       0.0       0.0       0.1       0.1
 1 C  f-1             0.0       0.0       0.0       0.0       0.0       0.1
 1 C  f-3             0.1       0.0       0.0       0.0       0.0       0.8
 2 O  s              99.6       0.0       0.0       0.0       0.0      38.5
 2 O  py              0.0       0.0       0.2       0.0       0.0       5.6
 2 O  dz2             0.0       0.0       0.1       0.0       0.0       0.1
 2 O  dx2y2           0.0       0.0       0.2       0.0       0.0       0.4
 3 N  s               0.0      99.4       0.0       0.0       0.0       7.8
 3 N  px              0.0       0.0       0.1       0.1       0.0       0.9
 3 N  py              0.0       0.0       0.0       0.0       0.0       1.7
 3 N  dz2             0.0       0.0       0.0       0.0       0.0       0.2
 3 N  dxy             0.0       0.0       0.1       0.0       0.0       0.2
 4 C  s               0.0       0.0       0.0      99.5       0.0       1.3
 4 C  px              0.0       0.0       0.0       0.0       0.0       1.8
 4 C  dz2             0.0       0.0       0.0       0.0       0.0       0.1
 4 C  dx2y2           0.0       0.0       0.0       0.0       0.0       0.2
 5 H  s               0.0       0.0       0.0       0.0       0.1       0.2
 6 H  s               0.0       0.0       0.0       0.0       0.1       0.3
 7 H  s               0.0       0.0       0.0       0.0       0.1       0.3
 8 H  s               0.0       0.0       0.0       0.0       0.0       1.2
 8 H  py              0.0       0.1       0.0       0.0       0.0       0.1
 9 H  s               0.0       0.0       0.0       0.1       0.0       0.2
10 H  s               0.0       0.0       0.0       0.1       0.0       0.2
11 H  s               0.0       0.0       0.0       0.1       0.0       0.2

                      6         7         8         9        10        11   
                  -1.05254  -0.88623  -0.81835  -0.70637  -0.62223  -0.58255
                   2.00000   2.00000   2.00000   2.00000   2.00000   2.00000
                  --------  --------  --------  --------  --------  --------
 0 C  s               0.2      26.2      11.3       0.5       1.5       0.1
 0 C  px              0.5       0.6       1.1       1.7      15.4       0.1
 0 C  py              0.2       0.0       0.0       0.1       4.0      17.8
 0 C  dz2             0.0       0.1       0.0       0.0       0.4       0.1
 0 C  dx2y2           0.3       0.1       0.2       0.3       0.2       0.1
 0 C  dxy             0.0       0.0       0.0       0.1       0.6       0.4
 1 C  s               0.6       5.2       0.4       5.1       3.2       1.4
 1 C  px              5.1       7.1       6.5       4.0       7.5       5.5
 1 C  py             14.8       8.2       0.4       2.2       1.6       2.1
 1 C  dz2             0.1       0.1       0.0       0.2       0.1       0.2
 1 C  dx2y2           2.2       0.4       0.4       1.4       0.6       3.3
 1 C  dxy             1.5       0.5       1.5       0.2       0.1       0.2
 1 C  f-1             0.2       0.1       0.0       0.0       0.0       0.0
 2 O  s              11.6       2.2       0.0       4.1       0.5       5.6
 2 O  px              0.2       0.4       0.3       1.3       3.6       4.2
 2 O  py              0.6       0.6       0.0       3.7       1.3      15.9
 2 O  dx2y2           0.0       0.0       0.0       0.1       0.0       0.2
 2 O  dxy             0.0       0.1       0.1       0.1       0.2       0.1
 3 N  s              33.3       0.1       2.5       1.2       1.1       0.2
 3 N  px              0.2      10.5      10.9       7.6       5.8      11.0
 3 N  py              0.1       0.4       1.0      33.7       9.8       1.1
 3 N  dz2             0.2       0.0       0.0       0.0       0.0       0.0
 3 N  dx2y2           0.1       0.0       0.4       0.7       0.1       0.2
 3 N  dxy             0.0       0.2       0.6       0.3       0.1       0.0
 4 C  s               7.9       8.5      21.9       0.8       1.3       0.4
 4 C  px              3.7       0.1       1.9       0.1      17.5       6.0
 4 C  py              1.3       0.1       0.1       6.5       0.1       6.1
 4 C  dz2             0.4       0.0       0.1       0.2       0.1       0.2
 4 C  dx2y2           0.5       0.0       0.2       0.3       0.5       0.1
 4 C  dxy             0.8       0.0       0.1       0.6       0.3       0.2
 4 C  f+3             0.0       0.0       0.0       0.2       0.0       0.0
 4 C  f-3             0.1       0.0       0.0       0.0       0.0       0.0
 5 H  s               0.1       6.8       3.0       0.5       2.9       9.4
 5 H  px              0.0       0.0       0.0       0.0       0.2       0.0
 5 H  py              0.0       0.6       0.3       0.0       0.1       0.2
 6 H  s               0.0       6.1       4.0       0.5       2.9       0.3
 6 H  pz              0.0       0.4       0.3       0.0       0.2       0.0
 6 H  px              0.0       0.2       0.1       0.0       0.0       0.0
 6 H  py              0.0       0.0       0.0       0.0       0.1       0.2
 7 H  s               0.0       6.1       4.0       0.5       2.9       0.3
 7 H  pz              0.0       0.4       0.3       0.0       0.2       0.0
 7 H  px              0.0       0.2       0.1       0.0       0.0       0.0
 7 H  py              0.0       0.0       0.0       0.0       0.1       0.2
 8 H  s               7.7       0.0       1.6      15.9       2.6       0.8
 8 H  px              0.0       0.1       0.1       0.2       0.1       0.3
 8 H  py              1.3       0.0       0.3       0.8       0.1       0.0
 9 H  s               1.3       2.2       7.8       0.1       6.4       0.2
 9 H  px              0.1       0.1       0.3       0.0       0.0       0.1
 9 H  py              0.0       0.1       0.4       0.0       0.3       0.1
10 H  s               1.0       1.9       6.8       1.6       1.1       2.1
10 H  pz              0.0       0.1       0.5       0.1       0.1       0.1
10 H  px              0.0       0.0       0.0       0.0       0.2       0.0
10 H  py              0.0       0.1       0.2       0.0       0.0       0.0
11 H  s               1.0       1.9       6.8       1.6       1.2       2.3
11 H  pz              0.0       0.1       0.5       0.1       0.1       0.1
11 H  px              0.0       0.0       0.0       0.0       0.2       0.0
11 H  py              0.0       0.1       0.2       0.0       0.0       0.0

                     12        13        14        15        16        17   
                  -0.57933  -0.53504  -0.51987  -0.50590  -0.49931  -0.45948
                   2.00000   2.00000   2.00000   2.00000   2.00000   2.00000
                  --------  --------  --------  --------  --------  --------
 0 C  pz             14.2      27.0       0.0       0.0       0.0      12.9
 0 C  px              0.0       0.0       0.2      21.1       5.3       0.0
 0 C  py              0.0       0.0      16.7       1.3       8.7       0.0
 0 C  dz2             0.0       0.0       0.2       0.4       0.4       0.0
 0 C  dxz             0.0       0.6       0.0       0.0       0.0       2.5
 0 C  dyz             0.3       0.3       0.0       0.0       0.0       0.0
 0 C  dx2y2           0.0       0.0       0.7       0.1       1.1       0.0
 0 C  dxy             0.0       0.0       0.0       0.3       0.2       0.0
 0 C  f-2             0.0       0.0       0.0       0.0       0.0       0.2
 1 C  s               0.0       0.0       0.6       0.3       0.1       0.0
 1 C  pz             18.5       2.9       0.0       0.0       0.0      15.0
 1 C  px              0.0       0.0       2.0       5.7       2.7       0.0
 1 C  py              0.0       0.0       3.3       5.9       3.9       0.0
 1 C  dz2             0.0       0.0       0.2       0.1       0.0       0.0
 1 C  dxz             0.0       1.6       0.0       0.0       0.0       1.4
 1 C  dyz             0.0       0.0       0.0       0.0       0.0       2.0
 1 C  dx2y2           0.0       0.0       0.3       0.1       0.3       0.0
 1 C  dxy             0.0       0.0       0.4       0.3       0.3       0.0
 1 C  f0              0.3       0.0       0.0       0.0       0.0       0.1
 1 C  f+2             0.0       0.0       0.0       0.0       0.0       0.4
 1 C  f-2             0.0       0.1       0.0       0.0       0.0       0.1
 1 C  f+3             0.0       0.0       0.0       0.7       0.1       0.0
 2 O  s               0.0       0.0       2.0       3.4       2.4       0.0
 2 O  pz              8.7       1.8       0.0       0.0       0.0      30.0
 2 O  px              0.0       0.0       1.1       2.9       0.7       0.0
 2 O  py              0.0       0.0      14.1      18.8      13.1       0.0
 2 O  dyz             0.3       0.0       0.0       0.0       0.0       0.3
 2 O  dx2y2           0.0       0.0       0.2       0.1       0.1       0.0
 3 N  s               0.0       0.0       0.2       0.0       0.1       0.0
 3 N  pz             19.6       2.8       0.0       0.0       0.0       5.3
 3 N  px              0.0       0.0       0.1       5.1       3.5       0.0
 3 N  py              0.0       0.0       0.5       4.6       2.0       0.0
 3 N  dxz             0.0       0.8       0.0       0.0       0.0       0.9
 3 N  dyz             0.2       0.0       0.0       0.0       0.0       0.0
 3 N  dx2y2           0.0       0.0       0.2       2.0       0.7       0.0
 3 N  dxy             0.0       0.0       0.6       0.2       0.7       0.0
 3 N  f+3             0.0       0.0       0.1       0.0       0.0       0.0
 4 C  s               0.0       0.0       0.0       0.1       0.0       0.0
 4 C  pz             18.8      25.7       0.0       0.0       0.0       7.8
 4 C  px              0.0       0.0       3.4       4.9       6.3       0.0
 4 C  py              0.0       0.0      20.3       4.1      14.3       0.0
 4 C  dz2             0.0       0.0       0.5       0.1       0.4       0.0
 4 C  dxz             0.3       0.0       0.0       0.0       0.0       0.6
 4 C  dyz             0.1       0.6       0.0       0.0       0.0       0.6
 4 C  dx2y2           0.0       0.0       0.1       0.1       0.3       0.0
 4 C  dxy             0.0       0.0       0.9       0.0       1.3       0.0
 4 C  f+3             0.0       0.0       0.0       0.0       0.1       0.0
 5 H  s               0.0       0.0       9.3       1.6       6.3       0.0
 5 H  pz              0.1       0.3       0.0       0.0       0.0       0.2
 5 H  px              0.0       0.0       0.0       0.2       0.0       0.0
 5 H  py              0.0       0.0       0.2       0.1       0.1       0.0
 6 H  s               3.7       9.0       0.9       3.8       2.4       6.1
 6 H  pz              0.0       0.0       0.1       0.2       0.1       0.0
 6 H  px              0.1       0.2       0.0       0.1       0.0       0.1
 6 H  py              0.0       0.1       0.1       0.0       0.0       0.0
 7 H  s               3.6       8.6       1.1       4.0       2.6       5.9
 7 H  pz              0.0       0.0       0.1       0.2       0.1       0.0
 7 H  px              0.1       0.2       0.0       0.1       0.0       0.1
 7 H  py              0.0       0.1       0.1       0.0       0.0       0.0
 8 H  s               0.0       0.0       0.5       3.5       1.4       0.0
 8 H  pz              0.3       0.0       0.0       0.0       0.0       0.1
 9 H  s               0.0       0.0      11.0       0.0      12.2       0.0
 9 H  pz              0.2       0.3       0.0       0.0       0.0       0.1
 9 H  px              0.0       0.0       0.2       0.1       0.1       0.0
10 H  s               4.9       7.9       3.4       1.2       2.3       3.3
10 H  pz              0.0       0.0       0.2       0.1       0.1       0.0
10 H  px              0.0       0.0       0.1       0.1       0.1       0.0
10 H  py              0.2       0.3       0.0       0.0       0.0       0.1
11 H  s               4.8       8.1       3.1       1.2       2.2       3.3
11 H  pz              0.0       0.0       0.2       0.1       0.1       0.0
11 H  px              0.0       0.0       0.1       0.1       0.1       0.0
11 H  py              0.2       0.3       0.0       0.0       0.0       0.1

                     18        19        20        21        22        23   
                  -0.36042  -0.35885   0.09774   0.11437   0.13559   0.14538
                   2.00000   2.00000   0.00000   0.00000   0.00000   0.00000
                  --------  --------  --------  --------  --------  --------
 0 C  s               0.0       0.6       3.8       0.0       4.7       2.8
 0 C  pz              0.1       0.0       0.0       0.6       0.0       0.0
 0 C  px              0.0       4.7       0.4       0.0       1.4       1.8
 0 C  py              0.0       2.7       1.6       0.0       0.6       1.2
 0 C  dz2             0.0       0.1       0.1       0.0       0.1       0.8
 0 C  dxz             0.0       0.0       0.0       9.0       0.0       0.0
 0 C  dx2y2           0.0       0.2       0.2       0.0       0.0       0.2
 0 C  dxy             0.0       0.0       0.2       0.0       0.1       0.3
 0 C  f0              0.0       0.0       0.0       0.1       0.0       0.0
 0 C  f-2             0.0       0.0       0.0       0.3       0.0       0.0
 1 C  s               0.0       0.2       1.3       0.0       0.1       4.2
 1 C  pz              0.0       0.0       0.0      35.3       0.0       0.0
 1 C  px              0.0       1.5       0.1       0.0       0.3       0.5
 1 C  py              0.0       0.2       0.8       0.0       0.3       0.8
 1 C  dz2             0.0       0.0       1.1       0.0       0.2       2.6
 1 C  dxz             1.9       0.0       0.0       1.0       0.0       0.0
 1 C  dyz             7.1       0.0       0.0       2.3       0.0       0.0
 1 C  dx2y2           0.0       0.1       0.4       0.0       0.4       0.8
 1 C  dxy             0.0      12.1       0.0       0.0       0.0       0.2
 1 C  f0              0.0       0.0       0.0       0.9       0.0       0.0
 1 C  f+2             0.6       0.0       0.0       0.2       0.0       0.0
 1 C  f-2             0.4       0.0       0.0       0.1       0.0       0.0
 1 C  f+3             0.0       1.5       0.1       0.0       0.0       0.0
 2 O  s               0.0       0.0       0.3       0.0       0.0       0.5
 2 O  pz             27.4       0.0       0.0      17.2       0.0       0.0
 2 O  px              0.1      67.2       0.1       0.0       0.6       0.0
 2 O  py              0.0       0.0       0.2       0.0       0.0       0.2
 2 O  dz2             0.0       0.0       0.0       0.0       0.0       0.1
 2 O  dyz             0.0       0.0       0.0       2.4       0.0       0.0
 2 O  dxy             0.0       0.2       0.0       0.0       0.0       0.0
 2 O  f+2             0.0       0.0       0.0       0.1       0.0       0.0
 3 N  s               0.0       0.7       3.4       0.0       0.1       0.4
 3 N  pz             45.2       0.1       0.0       8.0       0.0       0.0
 3 N  px              0.0       2.3       0.0       0.0       0.1       0.4
 3 N  py              0.0       1.6       4.2       0.0       0.2       2.1
 3 N  dz2             0.0       0.1       0.1       0.0       0.2       0.8
 3 N  dxz             0.1       0.0       0.0       2.9       0.0       0.0
 3 N  dyz             0.3       0.0       0.0       1.1       0.0       0.0
 3 N  dx2y2           0.0       0.0       0.4       0.0       0.4       0.3
 3 N  dxy             0.0       0.0       0.0       0.0       0.4       0.4
 3 N  f0              0.0       0.0       0.0       0.1       0.0       0.0
 4 C  s               0.0       0.0       1.4       0.0       8.2       2.8
 4 C  pz              3.0       0.0       0.0       0.4       0.0       0.0
 4 C  px              0.0       0.6       1.6       0.0       4.2       0.2
 4 C  py              0.0       0.2       1.9       0.0       0.1       3.7
 4 C  dz2             0.0       0.0       0.1       0.0       0.0       0.7
 4 C  dxz             2.6       0.0       0.0       0.9       0.0       0.0
 4 C  dyz             2.4       0.0       0.0       2.2       0.0       0.0
 4 C  dx2y2           0.0       0.2       0.1       0.0       0.0       0.0
 4 C  dxy             0.0       0.0       1.6       0.0       0.0       1.0
 4 C  f0              0.2       0.0       0.0       0.0       0.0       0.0
 4 C  f-1             0.0       0.0       0.0       0.0       0.1       0.1
 4 C  f+2             0.2       0.0       0.0       0.0       0.0       0.0
 4 C  f-2             0.1       0.0       0.0       0.0       0.0       0.0
 5 H  s               0.0       1.1      12.7       0.0       7.4       0.2
 5 H  px              0.0       0.1       0.2       0.0       0.1       0.0
 5 H  py              0.0       0.0       1.5       0.0       0.9       0.0
 6 H  s               0.0       0.1       4.1       5.1       8.7      12.5
 6 H  pz              0.0       0.0       0.4       0.1       0.8       1.1
 6 H  px              0.0       0.1       0.1       0.4       0.2       0.2
 6 H  py              0.0       0.0       0.2       0.0       0.1       0.0
 7 H  s               0.0       0.1       4.1       4.7       8.6      12.5
 7 H  pz              0.0       0.0       0.3       0.1       0.8       1.1
 7 H  px              0.0       0.1       0.1       0.4       0.2       0.2
 7 H  py              0.0       0.0       0.2       0.0       0.1       0.0
 8 H  s               0.0       0.4      36.6       0.0       0.3      12.1
 8 H  pz              1.4       0.0       0.0       0.5       0.0       0.0
 8 H  px              0.0       0.1       0.0       0.0       0.2       0.1
 8 H  py              0.0       0.0       3.9       0.0       0.0       1.7
 9 H  s               0.0       0.0       6.3       0.0      20.9       0.3
 9 H  px              0.0       0.0       0.1       0.0       1.1       0.0
 9 H  py              0.0       0.0       0.7       0.0       1.5       0.0
10 H  s               3.2       0.1       1.2       1.3      11.0      12.5
10 H  pz              0.0       0.0       0.1       0.0       1.0       1.2
10 H  px              0.0       0.0       0.1       0.0       0.0       0.1
10 H  py              0.0       0.0       0.1       0.1       0.5       0.2
11 H  s               3.4       0.1       1.2       1.5      11.1      12.3
11 H  pz              0.0       0.0       0.1       0.1       1.0       1.2
11 H  px              0.0       0.0       0.1       0.0       0.0       0.1
11 H  py              0.0       0.0       0.1       0.1       0.5       0.2

                     24        25        26        27        28        29   
                   0.18741   0.19290   0.20295   0.21896   0.21984   0.24850
                   0.00000   0.00000   0.00000   0.00000   0.00000   0.00000
                  --------  --------  --------  --------  --------  --------
 0 C  s               0.9       0.2       0.0       0.4       0.0       0.6
 0 C  pz              0.0       0.0       8.9       0.0       4.3       0.0
 0 C  px              3.2       3.2       0.0      30.7       0.0       8.1
 0 C  py              7.0       2.7       0.0       7.4       0.0       5.7
 0 C  dz2             2.3       1.1       0.0       5.3       0.0       0.1
 0 C  dxz             0.0       0.0       1.4       0.0       0.0       0.0
 0 C  dyz             0.0       0.0       2.6       0.0       3.4       0.0
 0 C  dx2y2           1.4       0.5       0.0       2.5       0.0       4.8
 0 C  dxy             0.1       0.0       0.0       6.0       0.0       1.4
 1 C  s               1.8       0.3       0.0       2.3       0.0       4.8
 1 C  pz              0.0       0.0       5.6       0.0       6.6       0.0
 1 C  px              1.2       0.6       0.0       2.7       0.0       0.0
 1 C  py              0.2       0.1       0.0       1.3       0.0      12.1
 1 C  dz2             1.1       0.2       0.0       0.1       0.0       0.2
 1 C  dxz             0.0       0.0       1.0       0.0       0.1       0.0
 1 C  dyz             0.0       0.0       0.1       0.0       0.2       0.0
 1 C  dx2y2           1.1       0.3       0.0       0.4       0.0       0.5
 1 C  dxy             0.5       0.1       0.0       0.2       0.0       0.4
 1 C  f0              0.0       0.0       0.2       0.0       0.4       0.0
 1 C  f+3             0.1       0.1       0.0       0.1       0.0       0.1
 2 O  s               0.1       0.0       0.0       0.2       0.0       3.2
 2 O  pz              0.0       0.0       3.3       0.0       2.5       0.0
 2 O  px              0.9       0.2       0.0       0.4       0.0       0.0
 2 O  py              0.1       0.1       0.0       0.3       0.0       1.8
 2 O  dxz             0.0       0.0       0.0       0.0       0.2       0.0
 2 O  dyz             0.0       0.0       0.1       0.0       0.6       0.0
 2 O  dx2y2           0.0       0.0       0.0       0.0       0.0       0.1
 2 O  dxy             0.2       0.0       0.0       0.2       0.0       0.0
 3 N  s               3.6       0.3       0.0       0.3       0.0       0.0
 3 N  pz              0.0       0.0       0.8       0.0       1.7       0.0
 3 N  px              0.7       0.1       0.0       1.3       0.0       1.3
 3 N  py              0.3       0.2       0.0       1.2       0.0       3.1
 3 N  dxz             0.0       0.0       0.4       0.0       0.1       0.0
 3 N  dyz             0.0       0.0       0.1       0.0       0.7       0.0
 3 N  dx2y2           0.1       0.3       0.0       0.6       0.0       0.2
 3 N  dxy             0.0       0.3       0.0       0.0       0.0       0.5
 4 C  s               0.8       0.1       0.0       0.2       0.0       0.0
 4 C  pz              0.0       0.0       5.4       0.0       9.6       0.0
 4 C  px             17.6       4.1       0.0      10.7       0.0      13.8
 4 C  py              8.4       7.4       0.0       5.9       0.0       0.4
 4 C  dz2             3.5       3.9       0.0       1.5       0.0       0.0
 4 C  dxz             0.0       0.0       0.2       0.0       0.1       0.0
 4 C  dyz             0.0       0.0       3.3       0.0       3.0       0.0
 4 C  dx2y2           1.8       0.0       0.0       3.3       0.0       1.0
 4 C  dxy             1.3       0.6       0.0       1.2       0.0       4.3
 4 C  f-3             0.1       0.0       0.0       0.0       0.0       0.0
 5 H  s              26.1       8.0       0.0       1.6       0.0       6.8
 5 H  pz              0.0       0.0       0.7       0.0       0.6       0.0
 5 H  px              0.0       0.0       0.0       1.1       0.0       0.0
 5 H  py              3.0       0.8       0.0       0.1       0.0       0.9
 6 H  s               0.6       6.5      17.9       1.1      10.3       0.5
 6 H  pz              0.1       0.8       0.6       0.4       0.3       0.1
 6 H  px              0.0       0.1       0.8       0.3       0.3       0.2
 6 H  py              0.2       0.0       0.3       0.2       0.2       0.3
 7 H  s               0.7       6.7      18.2       0.9      10.3       0.4
 7 H  pz              0.1       0.8       0.6       0.4       0.3       0.0
 7 H  px              0.0       0.1       0.9       0.3       0.3       0.2
 7 H  py              0.2       0.0       0.4       0.2       0.3       0.3
 8 H  s               2.8       1.5       0.0       1.5       0.0      11.0
 8 H  pz              0.0       0.0       0.0       0.0       0.3       0.0
 8 H  px              0.0       0.1       0.0       0.0       0.0       0.2
 8 H  py              0.6       0.1       0.0       0.2       0.0       1.0
 9 H  s               2.6      28.4       0.0       2.6       0.0       5.5
 9 H  pz              0.0       0.0       0.5       0.0       0.6       0.0
 9 H  px              0.8       1.9       0.0       0.0       0.0       0.2
 9 H  py              0.0       0.8       0.0       0.7       0.0       0.6
10 H  s               0.3       6.7      11.4       0.3      19.5       0.4
10 H  pz              0.1       0.9       0.4       0.1       0.7       0.0
10 H  px              0.3       0.1       0.0       0.3       0.1       0.8
10 H  py              0.1       0.0       0.8       0.0       1.3       0.0
11 H  s               0.3       7.2      11.6       0.3      18.7       0.5
11 H  pz              0.1       1.0       0.4       0.0       0.7       0.0
11 H  px              0.3       0.1       0.0       0.3       0.0       0.8
11 H  py              0.1       0.0       0.8       0.0       1.2       0.0

                     30        31        32        33        34        35   
                   0.27765   0.28571   0.29474   0.30060   0.32536   0.36602
                   0.00000   0.00000   0.00000   0.00000   0.00000   0.00000
                  --------  --------  --------  --------  --------  --------
 0 C  s               0.0       0.8       0.5       0.0       0.2       0.0
 0 C  pz             31.9       0.0       0.3      31.6       0.0       3.8
 0 C  px              0.0       1.7      15.6       0.3       1.1       0.0
 0 C  py              0.0       4.9      20.8       0.4       6.2       0.0
 0 C  dz2             0.0       0.0       7.2       0.1       0.9       0.0
 0 C  dxz             0.8       0.0       0.0       0.9       0.0       0.3
 0 C  dyz             4.1       0.0       0.0       6.2       0.0       1.3
 0 C  dx2y2           0.0       0.3       0.3       0.0       1.1       0.0
 0 C  dxy             0.0       9.3       0.4       0.0       0.0       0.0
 0 C  f0              0.0       0.0       0.0       0.0       0.0       0.1
 0 C  f-2             0.0       0.0       0.0       0.0       0.0       0.2
 1 C  s               0.0      19.0       6.3       0.1       3.4       0.0
 1 C  pz              7.9       0.0       0.0       0.9       0.0      71.5
 1 C  px              0.0       0.4       1.8       0.0       0.1       0.0
 1 C  py              0.0       9.6      14.0       0.1       0.3       0.0
 1 C  dz2             0.0       9.3       2.5       0.0       1.7       0.0
 1 C  dxz             0.3       0.0       0.0       0.0       0.0       0.1
 1 C  dyz             0.0       0.0       0.0       0.6       0.0       0.0
 1 C  dx2y2           0.0       1.6       0.4       0.0       1.0       0.0
 1 C  dxy             0.0       0.0       0.1       0.0       0.1       0.0
 1 C  f-1             0.0       0.1       0.1       0.0       0.0       0.0
 1 C  f-3             0.0       0.3       0.0       0.0       0.0       0.0
 2 O  s               0.0       2.9       1.3       0.0       0.0       0.0
 2 O  pz              0.1       0.0       0.0       0.6       0.0       6.1
 2 O  px              0.0       0.3       0.5       0.0       4.9       0.0
 2 O  py              0.0       2.6       2.8       0.0       0.9       0.0
 2 O  dz2             0.0       0.0       0.2       0.0       0.0       0.0
 2 O  dyz             0.1       0.0       0.0       0.1       0.0       0.6
 2 O  dx2y2           0.0       0.4       0.0       0.0       0.1       0.0
 3 N  s               0.0       0.3       0.1       0.0       1.2       0.0
[...]
 3 N  dyz             0.0       0.6       0.0       0.0       0.1       0.0
 3 N  dx2y2          63.6       0.0       3.3       0.3       0.0       0.0
 3 N  dxy             0.7       0.0       7.5      12.2       0.0       0.0
 3 N  f0              0.0       1.0       0.0       0.0       0.0       0.0
 3 N  f-1             1.2       0.0       1.0       1.7       0.0       0.0
 3 N  f+2             0.0       3.1       0.0       0.0       0.4       0.0
 3 N  f-2             0.0       2.2       0.0       0.0       0.7       0.0
 3 N  f+3             1.1       0.0       2.2       1.0       0.0       0.4
 3 N  f-3             1.2       0.0      31.0      15.2       0.0       1.0
 4 C  s               0.5       0.0       1.2       0.4       0.0       0.1
 4 C  px              0.3       0.0       0.7       0.3       0.0       0.0
 4 C  py              1.1       0.0       0.2       0.1       0.0       0.0
 4 C  dz2             0.1       0.0       0.8       0.2       0.0       0.0
 4 C  dx2y2           0.2       0.0       1.1       0.4       0.0       0.1
 4 C  dxy             0.2       0.0       1.3       0.3       0.0       0.0
 4 C  f+1             0.3       0.0       0.1       0.3       0.0       0.0
 4 C  f-1             0.6       0.0       0.1       0.1       0.0       0.0
 4 C  f+2             0.0       0.1       0.0       0.0       0.0       0.0
 4 C  f+3             0.0       0.0       0.3       0.1       0.0       0.0
 4 C  f-3             1.0       0.0       1.0       0.0       0.0       0.0
 5 H  s               0.1       0.0       0.0       0.1       0.0       0.0
 8 H  s               0.4       0.0       8.0       3.9       0.0       0.0
 8 H  py              0.6       0.0       0.7       0.6       0.0       0.0
 9 H  s               0.1       0.0       0.1       0.0       0.0       0.0
10 H  s               0.2       0.0       0.0       0.0       0.0       0.0
11 H  s               0.2       0.0       0.0       0.0       0.0       0.0

                    186       187       188       189       190       191   
                   6.52241   6.66654   6.81404   6.94560   7.18144   7.20388
                   0.00000   0.00000   0.00000   0.00000   0.00000   0.00000
                  --------  --------  --------  --------  --------  --------
 0 C  s               0.0       0.3       0.1       0.0       0.0       0.1
 0 C  px              0.0       0.0       0.1       0.0       0.0       0.1
 0 C  py              0.0       0.3       0.0       0.0       0.1       0.0
 0 C  dx2y2           0.0       0.2       0.7       0.0       0.1       0.0
 0 C  dxy             0.0       0.1       0.1       0.0       0.0       0.0
 0 C  f+3             0.0       0.3       0.5       0.0       0.0       0.0
 0 C  f-3             0.0       0.0       0.0       0.0       0.1       0.0
 1 C  s               0.0       0.4       0.2       0.0       0.1       3.6
 1 C  pz              0.0       0.0       0.0       1.3       0.0       0.0
 1 C  px              0.0       0.2       0.1       0.0       1.7       0.2
 1 C  py              0.0       0.3       0.1       0.0       0.0       1.9
 1 C  dz2             0.0       0.2       0.0       0.0       0.0       0.2
 1 C  dxz             0.6       0.0       0.0       0.0       0.0       0.0
 1 C  dyz             0.0       0.0       0.0       2.5       0.0       0.0
 1 C  dx2y2           0.0       1.1       1.0       0.0       0.0       0.3
 1 C  dxy             0.0       0.7       3.8       0.0       4.1       0.0
 1 C  f+1             0.0       0.1       0.2       0.0       0.1       0.0
 1 C  f-1             0.0       0.0       0.1       0.0       0.0       0.4
 1 C  f+2             0.0       0.0       0.0       0.2       0.0       0.0
 1 C  f-2             0.2       0.0       0.0       0.0       0.0       0.0
 1 C  f+3             0.0       1.9      14.9       0.0       1.2       0.0
 1 C  f-3             0.0       0.0       0.2       0.0       0.0       2.1
 2 O  s               0.0       0.1       0.3       0.0       0.0       1.8
 2 O  pz              0.0       0.0       0.0       1.9       0.0       0.0
 2 O  px              0.0       0.2       1.5       0.0       3.5       0.0
 2 O  py              0.0       0.0       0.2       0.0       0.0       2.8
 2 O  dz2             0.0      55.8       9.0       0.0       0.4      18.1
 2 O  dxz            94.6       0.0       0.0       0.1       0.0       0.0
 2 O  dyz             0.4       0.0       0.0      73.2       0.0       0.0
 2 O  dx2y2           0.0      24.4       0.7       0.0       0.0      54.7
 2 O  dxy             0.0       2.5      29.2       0.0      60.5       0.0
 2 O  f0              0.0       0.0       0.0       7.4       0.0       0.0
 2 O  f+1             0.0       0.3       1.2       0.0       1.5       0.0
 2 O  f-1             0.0       3.3       0.2       0.0       0.0       5.8
 2 O  f+2             0.0       0.0       0.0      12.7       0.0       0.0
 2 O  f-2             3.2       0.0       0.0       0.1       0.0       0.0
 2 O  f+3             0.0       4.1      21.4       0.0      23.4       0.0
 2 O  f-3             0.0       0.2       3.5       0.0       0.1       6.9
 3 N  s               0.0       0.3       0.5       0.0       0.6       0.0
 3 N  pz              0.1       0.0       0.0       0.0       0.0       0.0
 3 N  px              0.0       0.3       0.2       0.0       0.1       0.0
 3 N  py              0.0       0.3       0.8       0.0       0.0       0.1
 3 N  dxz             0.1       0.0       0.0       0.1       0.0       0.0
 3 N  dyz             0.4       0.0       0.0       0.1       0.0       0.0
 3 N  dx2y2           0.0       0.7       1.3       0.0       0.9       0.0
 3 N  dxy             0.0       0.0       0.6       0.0       0.1       0.1
 3 N  f+3             0.0       0.4       6.1       0.0       0.2       0.0
 3 N  f-3             0.0       0.1       0.2       0.0       0.5       0.1
 4 C  px              0.0       0.1       0.0       0.0       0.0       0.0
 5 H  s               0.0       0.0       0.1       0.0       0.0       0.0
 8 H  s               0.0       0.0       0.2       0.0       0.1       0.0

                    192       193       194       195       196   
                  22.40026  22.46634  23.39459  32.41895  43.97810
                   0.00000   0.00000   0.00000   0.00000   0.00000
                  --------  --------  --------  --------  --------
 0 C  s              94.8       3.8       0.1       0.0       0.0
 1 C  s               0.1       0.3      95.7       0.0       0.0
 1 C  px              0.1       0.0       0.2       0.0       0.0
 1 C  py              0.0       0.0       0.2       0.0       0.0
 1 C  dz2             0.0       0.0       0.1       0.0       0.0
 2 O  s               0.0       0.0       0.9       0.0      99.9
 2 O  py              0.0       0.0       0.6       0.0       0.0
 3 N  s               0.1       0.2       0.5      99.6       0.0
 3 N  px              0.0       0.2       0.4       0.0       0.0
 3 N  py              0.0       0.0       0.2       0.1       0.0
 3 N  dxy             0.0       0.1       0.2       0.0       0.0
 4 C  s               3.7      94.1       0.3       0.1       0.0
 5 H  s               0.2       0.0       0.0       0.0       0.0
 6 H  s               0.2       0.0       0.0       0.0       0.0
 7 H  s               0.2       0.0       0.0       0.0       0.0
 9 H  s               0.0       0.2       0.0       0.0       0.0
10 H  s               0.0       0.2       0.0       0.0       0.0
11 H  s               0.0       0.2       0.0       0.0       0.0


                      *****************************
                      * MAYER POPULATION ANALYSIS *
                      *****************************

  NA   - Mulliken gross atomic population
  ZA   - Total nuclear charge
  QA   - Mulliken gross atomic charge
  VA   - Mayer's total valence
  BVA  - Mayer's bonded valence
  FA   - Mayer's free valence

  ATOM       NA         ZA         QA         VA         BVA        FA
  0 C      6.3432     6.0000    -0.3432     3.8722     3.8722     0.0000
  1 C      5.6908     6.0000     0.3092     4.1847     4.1847    -0.0000
  2 O      8.3934     8.0000    -0.3934     2.1333     2.1333    -0.0000
  3 N      7.3169     7.0000    -0.3169     3.0750     3.0750    -0.0000
  4 C      6.2200     6.0000    -0.2200     3.9141     3.9141    -0.0000
  5 H      0.9043     1.0000     0.0957     0.9761     0.9761     0.0000
  6 H      0.8647     1.0000     0.1353     0.9796     0.9796     0.0000
  7 H      0.8645     1.0000     0.1355     0.9802     0.9802     0.0000
  8 H      0.7791     1.0000     0.2209     0.9524     0.9524    -0.0000
  9 H      0.8866     1.0000     0.1134     0.9654     0.9654     0.0000
 10 H      0.8679     1.0000     0.1321     0.9691     0.9691    -0.0000
 11 H      0.8685     1.0000     0.1315     0.9689     0.9689     0.0000

  Mayer bond orders larger than 0.100000
B(  0-C ,  1-C ) :   0.9493 B(  0-C ,  5-H ) :   0.9829 B(  0-C ,  6-H ) :   0.9635 
B(  0-C ,  7-H ) :   0.9647 B(  1-C ,  2-O ) :   2.0237 B(  1-C ,  3-N ) :   1.2074 
B(  3-N ,  4-C ) :   0.9291 B(  3-N ,  8-H ) :   0.9258 B(  4-C ,  9-H ) :   0.9695 
B(  4-C , 10-H ) :   0.9781 B(  4-C , 11-H ) :   0.9782 

-------
TIMINGS
-------

Total SCF time: 0 days 0 hours 0 min 35 sec 

Total time                  ....      35.714 sec
Sum of individual times     ....      34.881 sec  ( 97.7%)

SCF preparation             ....       0.047 sec  (  0.1%)
Fock matrix formation       ....      34.627 sec  ( 97.0%)
  Startup                   ....       0.002 sec  (  0.0% of F)
  Split-RI-J                ....       1.202 sec  (  3.5% of F)
  Chain of spheres X        ....      30.107 sec  ( 86.9% of F)
  XC integration            ....       4.108 sec  ( 11.9% of F)
    Basis function eval.    ....       1.120 sec  ( 27.3% of XC)
    Density eval.           ....       0.804 sec  ( 19.6% of XC)
    XC-Functional eval.     ....       1.100 sec  ( 26.8% of XC)
    XC-Potential eval.      ....       1.007 sec  ( 24.5% of XC)
Diagonalization             ....       0.000 sec  (  0.0%)
Density matrix formation    ....       0.008 sec  (  0.0%)
Total Energy calculation    ....       0.002 sec  (  0.0%)
Population analysis         ....       0.076 sec  (  0.2%)
Orbital Transformation      ....       0.009 sec  (  0.0%)
Orbital Orthonormalization  ....       0.000 sec  (  0.0%)
DIIS solution               ....       0.033 sec  (  0.1%)
  MO trafo                  ....       0.000 sec  (  0.0 % of DIIS)
  Orb grad                  ....       0.000 sec  (  0.0 % of DIIS)
  Energy W gradient         ....       0.000 sec  (  0.0 % of DIIS)
  DIIS error                ....       0.004 sec  ( 11.7 % of DIIS)
  DIIS work                 ....       0.024 sec  ( 72.5 % of DIIS)
  Form Q                    ....       0.000 sec  (  0.0 % of DIIS)
  Form QpQm                 ....       0.000 sec  (  0.0 % of DIIS)
  Exp/Cayley                ....       0.000 sec  (  0.0 % of DIIS)
  Orb update                ....       0.000 sec  (  0.0 % of DIIS)
  Wake-sleep                ....       0.000 sec  (  1.0 % of DIIS)
SOSCF solution              ....       0.018 sec  (  0.0%)
  MO trafo                  ....       0.009 sec  ( 51.5 % of SOSCF)
  Orb grad                  ....       0.000 sec  (  1.0 % of SOSCF)
  Rot update                ....       0.001 sec  (  4.3 % of SOSCF)
  Step                      ....       0.008 sec  ( 43.0 % of SOSCF)
Grid generation             ....       0.061 sec  (  0.2%)
Finished LeanSCF after  35.7 sec

Maximum memory used throughout the entire LEANSCF-calculation: 22.3 MB
------------------   -----------------
gCP correction             0.007823905
------------------   -----------------

-------------------------   --------------------
FINAL SINGLE POINT ENERGY      -248.538653573682
-------------------------   --------------------


------------------------------------------------------------------------------
                              ORCA PROPERTY CALCULATIONS
------------------------------------------------------------------------------

GBWName                                 ... sp.gbw
Number of atoms                         ...     12
Number of basis functions               ...    197
Max core memory                         ...   1024 MB

Electric properties:
Dipole moment                           ... YES
Quadrupole moment                       ...  NO
Static polarizability (Dipole/Dipole)   ...  NO
Static polarizability (Dipole/Quad.)    ...  NO
Static polarizability (Quad./Quad.)     ...  NO
Static polarizability (Velocity)        ...  NO

Atomic electric properties:
Dipole moment                           ...  NO
Quadrupole moment                       ...  NO
Static polarizability                   ...  NO

Choice of electric origin               ... Center of mass
Position of electric origin             ...    -0.000155     0.009260     0.000276

General magnetic properties:
Magnetizability                         ...  NO

EPR properties:
g-Tensor (aka g-matrix)                 ...  NO
Zero-Field splitting spin-orbit         ...  NO
Zero-field splitting spin-spin          ...  NO
Hyperfine couplings                     ...  NO (   0 nuclei)
Quadrupole couplings                    ...  NO (   0 nuclei)
Contact density                         ...  NO (   0 nuclei)

NMR properties:
Chemical shifts                         ...  NO (   0 nuclei)
Spin-rotation constants                 ...  NO (   0 nuclei)
Spin-spin couplings                     ...  NO (   0 nuclei,    0 pairs)

Choice of magnetic origin               ... GIAO
Position of magnetic origin             ...     0.000000     0.000000     0.000000

Properties with geometric perturbations:
SCF Hessian                             ...  NO
IR spectrum                             ...  NO
VCD spectrum                            ...  NO
X-ray spectroscopy properties:
SCF XES/XAS/RIXS spectra                ...  NO


-------------
DIPOLE MOMENT
-------------

Method             : SCF
Type of density    : Electron Density
Multiplicity       :   1
Irrep              :   0
Energy             :  -248.5464774786823341 Eh
Relativity type    : 
Basis              : AO
                                X                 Y                 Z
Electronic contribution:     -0.728932473      -2.089654478       0.002643744
Nuclear contribution   :      1.057598344       3.601697469      -0.002333219
                        -----------------------------------------
Total Dipole Moment    :      0.328665870       1.512042991       0.000310524
                        -----------------------------------------
Magnitude (a.u.)       :      1.547351078
Magnitude (Debye)      :      3.933053875



--------------------
Rotational spectrum 
--------------------
 
Rotational constants in cm-1:             0.336501             0.128966             0.096589 
Rotational constants in MHz :         10088.044525          3866.294994          2895.657509 

Dipole components along the rotational axes: 
x,y,z [a.u.] :    -0.305032     1.516987     0.000360 
x,y,z [Debye]:    -0.775330     3.855875     0.000915 

 

Dipole moment calculation done in   0.0 sec 

Maximum memory used throughout the entire PROP-calculation: 13.4 MB

--------------------------------
SUGGESTED CITATIONS FOR THIS RUN
--------------------------------

Below you find a list of papers that are relevant to this ORCA run
We neither can nor want to force you to cite these papers, but we appreciate if you do
You receive ORCA, which is the product of decades of hard work by many enthusiastic individuals, for free
The only thing we kindly ask in return is that you cite our papers,
We deeply appreciate it, if you show your appreciation for ORCA by not just citing the generic ORCA reference.

Please note that relegating all ORCA citations to the supporting information does *not* help us.
SI sections are not indexed - citations you put there will not count into any citation statistics
But we need these citations in order to attract the funding resources that allow us to do what we are doing

Therefore, if you are a happy ORCA user, please consider citing a few of the papers listed below in the main body of your paper

In addition to the list printed below, the program has created the file sp.bibtex that contains the list in bibtex format
You can import this file easily into all common literature databanks and citation aid programs


List of essential papers. We consider these as the minimum necessary citations

  1. Neese,F.
     Software update: the ORCA program system, version 5.0
     WIRES Comput. Molec. Sci., 2022 12(1)e1606
     doi.org/10.1002/wcms.1606

List of papers to cite with high priority. The work reported in these papers was absolutely
necessary for this run to complete.
Our perspective: the developers of density functionals and basis sets usually get cited in chemistry papers
Good! But without the algorithms to do something with them, the functionals or basis sets would not do anything.
Hence, in our opinion, the algorithm design and method developments papers are equally worthy of getting cited

  1. Neese,F.
     An improvement of the resolution of the identity approximation for the formation of the Coulomb matrix
     J. Comp. Chem., 2003 24(14)1740-1747
     doi.org/10.1002/jcc.10318
  2. Neese,F.; Wennmohs,F.; Hansen,A.; Becker,U.
     Efficient, approximate and parallel Hartree-Fock and hybrid DFT calculations. A 'chain-of-spheres' algorithm for the Hartree-Fock exchange
     Chem. Phys., 2009 356(1-3)98-109
     doi.org/10.1016/j.chemphys.2008.10.036
  3. Helmich-Paris,B.; de Souza,B.; Neese,F.; Izsák,R.
     An improved chain of spheres for exchange algorithm
     J. Chem. Phys., 2021 155 104109
     doi.org/doi: 10.1063/5.0058766.
  4. Neese,F.
     The SHARK Integral Generation and Digestion System
     J. Comp. Chem., 2022  1-16
     doi.org/10.1002/jcc.26942

List of suggested additional citations. These are papers that are important in the 'surrounding' of 
of this run, or papers that preceded the highly important papers. If you like your results we are grateful for a citation.

  1. Izsak,R.; Neese,F.
     An overlap fitted chain of spheres exchange method
     J. Chem. Phys., 2011 135 144105
     doi.org/10.1063/1.3646921
  2. Izsak,R.; Hansen,A.; Neese,F.
     The resolution of identity and chain of spheres approximations for the LPNO-CCSD singles Fock term
     Molec. Phys., 2012 110 2413-2417
     doi.org/10.1080/00268976.2012.687466
  3. Neese,F.
     The ORCA program system
     WIRES Comput. Molec. Sci., 2012 2(1)73-78
     doi.org/10.1002/wcms.81
  4. Izsak,R.; Neese,F.; Klopper,W.
     Robust fitting techniques in the chain of spheres approximation to the Fock exchange: The role of the complementary space
     J. Chem. Phys., 2013 139 
     doi.org/10.1063/1.4819264
  5. Neese,F.
     Software update: the ORCA program system, version 4.0
     WIRES Comput. Molec. Sci., 2018 8(1)1-6
     doi.org/10.1002/wcms.1327
  6. Neese,F.; Wennmohs,F.; Becker,U.; Riplinger,C.
     The ORCA quantum chemistry program package
     J. Chem. Phys., 2020 152 Art. No. L224108
     doi.org/10.1063/5.0004608

List of optional additional citations

  1. Neese,F.
     Approximate second-order SCF convergence for spin unrestricted wavefunctions
     Chem. Phys. Lett., 2000 325(1-3)93-98
     doi.org/10.1016/s0009-2614(00)00662-x

Timings for individual modules:

Sum of individual times          ...       36.468 sec (=   0.608 min)
Startup calculation              ...        0.645 sec (=   0.011 min)   1.8 %
SCF iterations                   ...       35.785 sec (=   0.596 min)  98.1 %
Property calculations            ...        0.037 sec (=   0.001 min)   0.1 %
                             ****ORCA TERMINATED NORMALLY****
TOTAL RUN TIME: 0 days 0 hours 0 minutes 36 seconds 516 msec
