
                                 *****************
                                 * O   R   C   A *
                                 *****************

                                            #,                                       
                                            ###                                      
                                            ####                                     
                                            #####                                    
                                            ######                                   
                                           ########,                                 
                                     ,,################,,,,,                         
                               ,,#################################,,                 
                          ,,##########################################,,             
                       ,#########################################, ''#####,          
                    ,#############################################,,   '####,        
                  ,##################################################,,,,####,       
                ,###########''''           ''''###############################       
              ,#####''   ,,,,##########,,,,          '''####'''          '####       
            ,##' ,,,,###########################,,,                        '##       
           ' ,,###''''                  '''############,,,                           
         ,,##''                                '''############,,,,        ,,,,,,###''
      ,#''                                            '''#######################'''  
     '                                                          ''''####''''         
             ,#######,   #######,   ,#######,      ##                                
            ,#'     '#,  ##    ##  ,#'     '#,    #''#        ,####,   ,####,        
            ##       ##  ##   ,#'  ##            #'  '#       #'       #'  '#        
            ##       ##  #######   ##           ,######,      #####,   #    #        
            '#,     ,#'  ##    ##  '#,     ,#' ,#      #,     #,   #   #,  ,#        
             '#######'   ##     ##  '#######'  #'      '#     '####' # '####'        



                #########################################################
                #                        -***-                          #
                #          Department of theory and spectroscopy        #
                #                                                       #
                #                      Frank Neese                      #
                #                                                       #
                #     Directorship, Architecture, Infrastructure        #
                #                    SHARK, DRIVERS                     #
                #        Core code/Algorithms in most modules           #
                #                                                       #
                #        Max Planck Institute fuer Kohlenforschung      #
                #                Kaiser Wilhelm Platz 1                 #
                #                 D-45470 Muelheim/Ruhr                 #
                #                      Germany                          #
                #                                                       #
                #                  All rights reserved                  #
                #                        -***-                          #
                #########################################################


                         Program Version 6.0.1  -  RELEASE   -


 With contributions from (in alphabetic order):
[Max-Planck-Institut fuer Kohlenforschung]                               
  Daniel Aravena         : Magnetic Suceptibility                        
  Michael Atanasov       : Ab Initio Ligand Field Theory (pilot matlab implementation)
  Alexander A. Auer      : GIAO ZORA, VPT2 properties, NMR spectrum      
  Ute Becker             : All parallelization in ORCA, NUMFREQ, NUMCALC 
  Giovanni Bistoni       : ED, misc. LED, open-shell LED, HFLD           
  Martin Brehm           : Molecular dynamics                            
  Dmytro Bykov           : pre 5.0 version of the SCF Hessian            
  Marcos Casanova-Páez   : Triplet and SCS-CIS(D). UHF-(DLPNO)-IP/EA/STEOM-CCSD. UHF-CVS-IP/STEOM-CCSD   
  Vijay G. Chilkuri      : MRCI spin determinant printing, contributions to CSF-ICE 
  Pauline Colinet        : FMM embedding                                 
  Dipayan Datta          : RHF DLPNO-CCSD density                        
  Achintya Kumar Dutta   : EOM-CC, STEOM-CC                              
  Nicolas Foglia         : Exact transition moments, OPA infrastructure, MCD improvements    
  Dmitry Ganyushin       : Spin-Orbit,Spin-Spin,Magnetic field MRCI      
  Miquel Garcia-Rates    : C-PCM and meta-GGA Hessian, CCSD/C-PCM, Gaussian charge scheme 
  Tiago L. C. Gouveia    : GS-ROHF, GS-ROCIS                             
  Yang Guo               : DLPNO-NEVPT2, F12-NEVPT2, CIM, IAO-localization        
  Andreas Hansen         : Spin unrestricted coupled pair/coupled cluster methods 
  Ingolf Harden          : AUTO-CI MPn and infrastructure                
  Benjamin Helmich-Paris : MC-RPA, TRAH-(SCF,CASSCF), AVAS, COSX integrals, SCF dyn. polar. 
  Lee Huntington         : MR-EOM, pCC                                   
  Robert Izsak           : Overlap fitted RIJCOSX, COSX-SCS-MP3, EOM     
  Riya Kayal             : Wick's Theorem for AUTO-CI, AUTO-CI UHF-CCSDT 
  Emily Kempfer          : AUTO-CI, RHF CISDT and CCSDT                  
  Christian Kollmar      : KDIIS, OOCD, Brueckner-CCSD(T), CCSD density, CASPT2, CASPT2-K, improved NEVPT2 
  Axel Koslowski         : Symmetry handling                             
  Simone Kossmann        : meta-GGA functionals, TD-DFT gradient, OOMP2, (MP2 Hessian; deprecated post 5.0) 
  Lucas Lang             : DCDCAS                                        
  Marvin Lechner         : AUTO-CI (C++ implementation), FIC-MRCC        
  Spencer Leger          : CASSCF response                               
  Dagmar Lenk            : GEPOL surface, SMD, ORCA-2-JSON               
  Dimitrios Liakos       : Extrapolation schemes; Compound Job, initial MDCI parallelization 
  Dimitrios Manganas     : Further ROCIS development; embedding schemes. LFT, Crystal Embedding 
  Dimitrios Pantazis     : SARC Basis sets                               
  Anastasios Papadopoulos: AUTO-CI, single reference methods and gradients 
  Taras Petrenko         : pre 6.0 DFT Hessian and TD-DFT gradient, (ASA, deprecated), ECA, 1-Electron XAS/XES, NRVS 
  Peter Pinski           : DLPNO-MP2, DLPNO-MP2 Gradient                 
  Christoph Reimann      : Effective Core Potentials                     
  Marius Retegan         : Local ZFS, SOC                                
  Christoph Riplinger    : Optimizer, TS searches, QM/MM, DLPNO-CCSD(T), (RO)-DLPNO pert. Triples 
  Michael Roemelt        : Original ROCIS implementation                 
  Masaaki Saitow         : Open-shell DLPNO-CCSD energy and density      
  Barbara Sandhoefer     : DKH picture change effects                    
  Kantharuban Sivalingam : CASSCF convergence/infrastructure, NEVPT2 and variants, FIC-MRCI 
  Bernardo de Souza      : ESD, SOC TD-DFT                               
  Georgi L. Stoychev     : AutoAux, RI-MP2 NMR, DLPNO-MP2 response, X2C  
  Van Anh Tran           : RI-MP2 g-tensors                              
  Willem Van den Heuvel  : Paramagnetic NMR                              
  Zikuan Wang            : NOTCH, Electric field optimization            
  Frank Wennmohs         : Technical directorship and infrastructure     
  Hang Xu                : AUTO-CI-Response properties                   
                                                                         
[FACCTs GmbH]                                                            
  Markus Bursch, Miquel Garcia-Rates, Christoph Riplinger, Bernardo de Souza, Georgi L. Stoychev 
                                                                 
  APM, Basis sets (HGBS, AHGBS, def-TZVP (Ac-Lr), def2-XVPD (La-Lu)), CI-OPT, improved COSX, DLPNO-Multilevel,           
  DOCKER, DRACO, updates on ESD, GOAT, IRC, LR-CPCM, MBIS, meta-GGA TD-DFT gradient, ML-optimized integration grids, 
  MM, NACMEs, nearIR, NEB, NEB-TS, NL-DFT gradient (VV10), 2- and 3-layer-ONIOM, interface openCOSMO-RS, QMMM,   
  Crystal-QMMM, SF, symmetry and pop. for TD-DFT, r2SCAN hybrids, SOLVATOR                                   
                                                                         
[Other institutions]                                                     
  V. Asgeirsson          : NEB                                           
  Christoph Bannwarth    : sTDA-DFT, sTD-DFT, PBEh-3c, B97-3c, D3        
  Sebastian Ehlert       : rSCAN, r2SCAN, r2SCAN-3c, D4, dhf basis sets  
  Marvin Friede          : D4 for Fr, Ra, Ac-Lr                          
  Lars Goerigk           : TD-DFT with DH, B97 family of functionals     
  Stefan Grimme          : VdW corrections, initial TS optimization, DFT functionals, gCP, sTDA/sTD-DF 
  Waldemar Hujo          : DFT-NL                                        
  H. Jonsson             : NEB                                           
  Holger Kruse           : gCP                                           
  Marcel Mueller         : wB97X-3c, vDZP basis set                      
  Hagen Neugebauer       : wr2SCAN                                       
  Tobias Risthaus        : range-separated hybrid DFT                    
  Lukas Wittmann         : regularized MP2, r2SCAN double-hybrids, wr2SCAN        
                                                                         
We gratefully acknowledge several colleagues who have allowed us to      
interface, adapt or use parts of their codes:                            
  Ed Valeev, F. Pavosevic, A. Kumar             : LibInt (2-el integral package), F12 methods 
  Garnet Chan, S. Sharma, J. Yang, R. Olivares  : DMRG                   
  Ulf Ekstrom                                   : XCFun DFT Library      
  Mihaly Kallay                                 : mrcc  (arbitrary order and MRCC methods)
  Frank Weinhold                                : gennbo (NPA and NBO analysis)           
  Simon Mueller                                 : openCOSMO-RS                            
  Christopher J. Cramer and Donald G. Truhlar   : smd solvation model                     
  S Lehtola, MJT Oliveira, MAL Marques          : LibXC Library                           
  Liviu Ungur et al                             : ANISO software                          


 Your calculation uses the libint2 library for the computation of 2-el integrals
 For citations please refer to: http://libint.valeyev.net

 Your ORCA version has been built with support for libXC version: 6.2.2
 For citations please refer to: https://libxc.gitlab.io

 This ORCA versions uses:
   CBLAS   interface :  Fast vector & matrix operations
   LAPACKE interface :  Fast linear algebra routines
   SCALAPACK package :  Parallel linear algebra routines
   Shared memory     :  Shared parallel matrices
   BLAS/LAPACK       :  OpenBLAS 0.3.27  USE64BITINT DYNAMIC_ARCH NO_AFFINITY Zen SINGLE_THREADED
        Core in use  :  Zen
   Copyright (c) 2011-2014, The OpenBLAS Project


Your calculation utilizes the geometrical counterpoise correction gCP
Please cite in your paper:
H.Kruse, S. Grimme J.Chem.Phys., 136, (2012), 154101 
   

Your calculation utilizes the atom-pairwise dispersion correction
based on EEQ partial charges (D4)


================================================================================

----- Orbital basis set information -----
Your calculation utilizes the basis: def2-SV(P)
   F. Weigend and R. Ahlrichs, Phys. Chem. Chem. Phys. 7, 3297 (2005).

----- AuxJ basis set information -----
Your calculation utilizes the auxiliary basis: def2/J
   F. Weigend, Phys. Chem. Chem. Phys. 8, 1057 (2006).

================================================================================
                                        WARNINGS
                       Please study these warnings very carefully!
================================================================================

WARNING: Old DensityContainer found on disk!
         Will remove this file - 
         If you want to keep old densities, please start your calculation with a different basename. 


================================================================================
                                       INPUT FILE
================================================================================
NAME = sp.inp
|  1> ! pbe def2-sv(p) def2/J RI DEFGRID1 loosescf d4 GCP(DFT/SV(P)) printgap
|  2> %output
|  3>     printlevel normal
|  4> end
|  5> * xyz 0 1
|  6> C -0.622213953 0.4310273462 0.9726463811
|  7> C 0.6222230963 -0.4311789796 0.9725017276
|  8> Cl 1.6780983998 -0.0265889574 -0.4081691898
|  9> Cl -1.678104073 0.0266512924 -0.4081685601
| 10> H -0.3715336691 1.4881496616 0.8875163689
| 11> H -1.2007868614 0.2538241253 1.8800170939
| 12> H 1.2008472245 -0.254048323 1.8799100876
| 13> H 0.3715639013 -1.488311113 0.8872804451
| 14> *
| 15> 
| 16>                          ****END OF INPUT****
================================================================================

                       ****************************
                       * Single Point Calculation *
                       ****************************

---------------------------------
CARTESIAN COORDINATES (ANGSTROEM)
---------------------------------
  C     -0.622214    0.431027    0.972646
  C      0.622223   -0.431179    0.972502
  Cl     1.678098   -0.026589   -0.408169
  Cl    -1.678104    0.026651   -0.408169
  H     -0.371534    1.488150    0.887516
  H     -1.200787    0.253824    1.880017
  H      1.200847   -0.254048    1.879910
  H      0.371564   -1.488311    0.887280

----------------------------
CARTESIAN COORDINATES (A.U.)
----------------------------
  NO LB      ZA    FRAG     MASS         X           Y           Z
   0 C     6.0000    0    12.011   -1.175814    0.814524    1.838035
   1 C     6.0000    0    12.011    1.175831   -0.814810    1.837762
   2 Cl   17.0000    0    35.453    3.171146   -0.050246   -0.771328
   3 Cl   17.0000    0    35.453   -3.171157    0.050364   -0.771327
   4 H     1.0000    0     1.008   -0.702097    2.812195    1.677163
   5 H     1.0000    0     1.008   -2.269158    0.479658    3.552717
   6 H     1.0000    0     1.008    2.269272   -0.480082    3.552515
   7 H     1.0000    0     1.008    0.702154   -2.812500    1.676717

--------------------------------
INTERNAL COORDINATES (ANGSTROEM)
--------------------------------
 C      0   0   0     0.000000000000     0.00000000     0.00000000
 C      1   0   0     1.513942977409     0.00000000     0.00000000
 Cl     2   1   0     1.784605817753   110.93401584     0.00000000
 Cl     1   2   3     1.784677517156   110.92867315    68.14202726
 H      1   2   3     1.089768467809   111.30672185   308.88792360
 H      1   2   3     1.090627893591   110.09667113   186.43538944
 H      2   1   3     1.090674599980   110.09074077   118.28782040
 H      2   1   3     1.089780274411   111.30869209   240.73690505

---------------------------
INTERNAL COORDINATES (A.U.)
---------------------------
 C      0   0   0     0.000000000000     0.00000000     0.00000000
 C      1   0   0     2.860937609675     0.00000000     0.00000000
 Cl     2   1   0     3.372416252556   110.93401584     0.00000000
 Cl     1   2   3     3.372551744791   110.92867315    68.14202726
 H      1   2   3     2.059363953541   111.30672185   308.88792360
 H      1   2   3     2.060988032903   110.09667113   186.43538944
 H      2   1   3     2.061076295186   110.09074077   118.28782040
 H      2   1   3     2.059386264787   111.30869209   240.73690505

---------------------
BASIS SET INFORMATION
---------------------
There are 3 groups of distinct atoms

 Group   1 Type C   : 7s4p1d contracted to 3s2p1d pattern {511/31/1}
 Group   2 Type Cl  : 10s7p1d contracted to 4s3p1d pattern {5311/511/1}
 Group   3 Type H   : 4s contracted to 2s pattern {31}

Atom   0C    basis set group =>   1
Atom   1C    basis set group =>   1
Atom   2Cl   basis set group =>   2
Atom   3Cl   basis set group =>   2
Atom   4H    basis set group =>   3
Atom   5H    basis set group =>   3
Atom   6H    basis set group =>   3
Atom   7H    basis set group =>   3
---------------------------------
AUXILIARY/J BASIS SET INFORMATION
---------------------------------
There are 3 groups of distinct atoms

 Group   1 Type C   : 12s5p4d2f1g contracted to 6s4p3d1f1g pattern {711111/2111/211/2/1}
 Group   2 Type Cl  : 14s5p5d2f1g contracted to 8s4p3d1f1g pattern {71111111/2111/311/2/1}
 Group   3 Type H   : 5s2p1d contracted to 3s1p1d pattern {311/2/1}

Atom   0C    basis set group =>   1
Atom   1C    basis set group =>   1
Atom   2Cl   basis set group =>   2
Atom   3Cl   basis set group =>   2
Atom   4H    basis set group =>   3
Atom   5H    basis set group =>   3
Atom   6H    basis set group =>   3
Atom   7H    basis set group =>   3

Checking for AutoStart:
The File: sp.gbw exists
Trying to determine its content:
     ... Fine, the file contains calculation information
     ... Fine, the calculation information was read
     ... Fine, the file contains a basis set
     ... Fine, the basis set was read
     ... Fine, the file contains a geometry
     ... Fine, the geometry was read
     ... Fine, the file contains a set of orbitals
     ... Fine, the orbitals can be read
     => possible old guess file was deleted
     => GBW file was renamed to GES file
     => GES file is set as startup file
     => Guess is set to MORead
     ... now leaving AutoStart

------------------------------------------------------------------------------
                             ORCA STARTUP CALCULATIONS
                           -- RI-GTO INTEGRALS CHOSEN --
------------------------------------------------------------------------------
------------------------------------------------------------------------------
                   ___                                                        
                  /   \      - P O W E R E D   B Y -                         
                 /     \                                                     
                 |  |  |   _    _      __       _____    __    __             
                 |  |  |  | |  | |    /  \     |  _  \  |  |  /  |          
                  \  \/   | |  | |   /    \    | | | |  |  | /  /          
                 / \  \   | |__| |  /  /\  \   | |_| |  |  |/  /          
                |  |  |   |  __  | /  /__\  \  |    /   |      \           
                |  |  |   | |  | | |   __   |  |    \   |  |\   \          
                \     /   | |  | | |  |  |  |  | |\  \  |  | \   \       
                 \___/    |_|  |_| |__|  |__|  |_| \__\ |__|  \__/        
                                                                              
                      - O R C A' S   B I G   F R I E N D -                    
                                      &                                       
                       - I N T E G R A L  F E E D E R -                       
                                                                              
 v1 FN, 2020, v2 2021, v3 2022-2024                                           
------------------------------------------------------------------------------


----------------------
SHARK INTEGRAL PACKAGE
----------------------

Number of atoms                             ...      8
Number of basis functions                   ...     72
Number of shells                            ...     36
Maximum angular momentum                    ...      2
Integral batch strategy                     ... SHARK/LIBINT Hybrid
RI-J (if used) integral strategy            ... SPLIT-RIJ (Revised 2003 algorithm where possible)
Printlevel                                  ...      1
Contraction scheme used                     ... SEGMENTED contraction
Prescreening option                         ... SCHWARTZ
   Thresh                                   ... 1.000e-09
   Tcut                                     ... 1.000e-10
   Tpresel                                  ... 1.000e-10 
Coulomb Range Separation                    ... NOT USED
Exchange Range Separation                   ... NOT USED
Multipole approximations                    ... NOT USED
Finite Nucleus Model                        ... NOT USED
CABS basis                                  ... NOT available
Auxiliary Coulomb fitting basis             ... AVAILABLE
   # of basis functions in Aux-J            ...    244
   # of shells in Aux-J                     ...     84
   Maximum angular momentum in Aux-J        ...      4
Auxiliary J/K fitting basis                 ... NOT available
Auxiliary Correlation fitting basis         ... NOT available
Auxiliary 'external' fitting basis          ... NOT available

Checking pre-screening integrals            ... done (  0.0 sec) Dimension = 36
Check shell pair data                       ... done (  0.0 sec)
Shell pair information
Shell pair cut-off parameter TPreSel        ...   1.0e-10
Total number of shell pairs                 ...       666
Shell pairs after pre-screening             ...       643
Total number of primitive shell pairs       ...      3010
Primitive shell pairs kept                  ...      2161
          la=0 lb=0:    241 shell pairs
          la=1 lb=0:    212 shell pairs
          la=1 lb=1:     54 shell pairs
          la=2 lb=0:     86 shell pairs
          la=2 lb=1:     40 shell pairs
          la=2 lb=2:     10 shell pairs

Calculating one electron integrals          ... done (  0.0 sec)
Calculating RI/J V-Matrix + Cholesky decomp.... done (  0.0 sec)
Calculating Nuclear repulsion               ... done (  0.0 sec) ENN=    203.723573761181 Eh

Diagonalization of the overlap matrix:
Smallest eigenvalue                        ... 3.659e-03
Time for diagonalization                   ...    0.000 sec
Threshold for overlap eigenvalues          ... 1.000e-07
Number of eigenvalues below threshold      ... 0
Time for construction of square roots      ...    0.000 sec
Total time needed                          ...    0.002 sec

-------------------
DFT GRID GENERATION
-------------------

General Integration Accuracy     IntAcc      ... 4.159
Radial Grid Type                 RadialGrid  ... OptM3 with GC (2021)
Angular Grid (max. ang.)         AngularGrid ... 3 (Lebedev-194)
Angular grid pruning method      GridPruning ... 4 (adaptive)
Weight generation scheme         WeightScheme... mBecke (2022)
Basis function cutoff            BFCut       ... 1.0000e-10
Integration weight cutoff        WCut        ... 1.0000e-14
Partially contracted basis set               ... off
Rotationally invariant grid construction     ... off
Angular grids for H and He will be reduced by one unit

Total number of grid points                  ...    20822
Total number of batches                      ...      328
Average number of points per batch           ...       63
Average number of grid points per atom       ...     2603
Initializing property integral containers    ... done (  0.0 sec)

SHARK setup successfully completed in   0.1 seconds

Maximum memory used throughout the entire STARTUP-calculation: 11.3 MB
-------------------------------------------------------------------------------
                                 ORCA GUESS
                   Start orbitals & Density for SCF / CASSCF
-------------------------------------------------------------------------------

------------
SCF SETTINGS
------------
Hamiltonian:
 Density Functional     Method          .... DFT(GTOs)
 Exchange Functional    Exchange        .... PBE
   PBE kappa parameter   XKappa         ....  0.804000
   PBE mue parameter    XMuePBE         ....  0.219520
 Correlation Functional Correlation     .... PBE
   PBE beta parameter  CBetaPBE         ....  0.066725
 LDA part of GGA corr.  LDAOpt          .... PW91-LDA
 Gradients option       PostSCFGGA      .... off
   NL short-range parameter             ....  6.400000
 RI-approximation to the Coulomb term is turned on
   Number of AuxJ basis functions       .... 244


General Settings:
 Integral files         IntName         .... sp
 Hartree-Fock type      HFTyp           .... RHF
 Total Charge           Charge          ....    0
 Multiplicity           Mult            ....    1
 Number of Electrons    NEL             ....   50
 Basis Dimension        Dim             ....   72
 Nuclear Repulsion      ENuc            ....    203.7235737612 Eh

Convergence Acceleration:
 AO-DIIS                CNVDIIS         .... on
   Start iteration      DIISMaxIt       ....    12
   Startup error        DIISStart       ....  0.200000
   # of expansion vecs  DIISMaxEq       ....     5
   Bias factor          DIISBfac        ....   1.050
   Max. coefficient     DIISMaxC        ....  10.000
 MO-DIIS                CNVKDIIS        .... off
 Trust-Rad. Augm. Hess. CNVTRAH         .... auto
   Auto Start mean grad. ratio tolernc. ....  1.125000
   Auto Start start iteration           ....     1
   Auto Start num. interpolation iter.  ....    10
   Max. Number of Micro iterations      ....    24
   Max. Number of Macro iterations      .... Maxiter - #DIIS iter
   Number of Davidson start vectors     ....     2
   Converg. threshold    (grad. norm)   ....   1.000e-04
   Grad. Scal. Fac. for Micro threshold ....   0.100
   Minimum threshold for Micro iter.    ....   1.000e-02
   NR start threshold (gradient norm)   ....   1.000e-04
   Initial trust radius                 ....   0.400
   Minimum AH scaling param. (alpha)    ....   1.000
   Maximum AH scaling param. (alpha)    .... 1000.000
   Quad. conv. algorithm                .... NR
   White noise on init. David. guess    .... on
   Maximum white noise                  ....   0.010
   Pseudo random numbers                .... off
   Inactive MOs                         .... canonical
   Orbital update algorithm             .... Taylor
   Preconditioner                       .... Diag
   Full preconditioner red. dimension   ....   250
 SOSCF                  CNVSOSCF        .... on
   Start iteration      SOSCFMaxIt      ....   150
   Startup grad/error   SOSCFStart      ....  0.003300
   Hessian update       SOSCFHessUp     .... L-BFGS
 Level Shifting         CNVShift        .... on
   Level shift para.    LevelShift      ....    0.2500
   Turn off err/grad.   ShiftErr        ....    0.0010
 Zerner damping         CNVZerner       .... off
 Static damping         CNVDamp         .... on
   Fraction old density DampFac         ....    0.7000
   Max. Damping (<1)    DampMax         ....    0.9800
   Min. Damping (>=0)   DampMin         ....    0.0000
   Turn off err/grad.   DampErr         ....    0.1000

SCF Procedure:
 Maximum # iterations   MaxIter         ....   125
 SCF integral mode      SCFMode         .... Direct
   Integral package                     .... SHARK and LIBINT hybrid scheme
 Reset frequency        DirectResetFreq ....    20
 Integral Threshold     Thresh          ....  1.000e-09 Eh
 Primitive CutOff       TCut            ....  1.000e-10 Eh

Convergence Tolerance:
 Convergence Check Mode ConvCheckMode   .... Total+1el-Energy
 Convergence forced     ConvForced      .... 0
 Energy Change          TolE            ....  1.000e-05 Eh
 1-El. energy change                    ....  1.000e-02 Eh
 Orbital Gradient       TolG            ....  1.000e-04
 Orbital Rotation angle TolX            ....  1.000e-04
 DIIS Error             TolErr          ....  5.000e-04

---------------------
INITIAL GUESS: MOREAD
---------------------
Guess MOs are being read from file: sp.ges
Input Geometry matches current geometry (good)
Input basis set matches current basis set (good)
Occupation numbers will be reassigned to an Aufbau configuration
MOs were renormalized
MOs were reorthogonalized (Cholesky)
                      ------------------
                      INITIAL GUESS DONE (   0.0 sec)
                      ------------------
             **** ENERGY FILE WAS UPDATED (sp.en.tmp) ****
Finished Guess after   0.0 sec
Maximum memory used throughout the entire GUESS-calculation: 6.8 MB

-------------------------------------------------------------------------------------------
                                      ORCA LEAN-SCF
                              memory conserving SCF solver
-------------------------------------------------------------------------------------------

----------------------------------------D-I-I-S--------------------------------------------
Iteration    Energy (Eh)           Delta-E    RMSDP     MaxDP     DIISErr   Damp  Time(sec)
-------------------------------------------------------------------------------------------
               ***  Starting incremental Fock matrix formation  ***
                              *** Initializing SOSCF ***
---------------------------------------S-O-S-C-F--------------------------------------
Iteration    Energy (Eh)           Delta-E    RMSDP     MaxDP     MaxGrad    Time(sec)
--------------------------------------------------------------------------------------
    1    -998.1713034767522004     0.00e+00  3.28e-05  2.54e-04  4.50e-05     0.1
               *** Restarting incremental Fock matrix formation ***
    2    -998.1713035903144373    -1.14e-07  3.54e-05  3.30e-04  9.66e-05     0.1
    3    -998.1713031576457524     4.33e-07  2.37e-05  2.32e-04  2.11e-04     0.1
                 **** Energy Check signals convergence ****

               *****************************************************
               *                     SUCCESS                       *
               *           SCF CONVERGED AFTER   3 CYCLES          *
               *****************************************************

             **** ENERGY FILE WAS UPDATED (sp.en.tmp) ****

----------------
TOTAL SCF ENERGY
----------------

Total Energy       :       -998.17130315764575 Eh          -27161.62203 eV

Components:
Nuclear Repulsion  :        203.72357376118134 Eh            5543.60027 eV
Electronic Energy  :      -1201.89487691882687 Eh          -32705.22230 eV
One Electron Energy:      -1780.98130433892061 Eh          -48462.96510 eV
Two Electron Energy:        579.08642742009363 Eh           15757.74280 eV

Virial components:
Potential Energy   :      -1993.90925165569661 Eh          -54257.02911 eV
Kinetic Energy     :        995.73794849805086 Eh           27095.40708 eV
Virial Ratio       :          2.00244377013376

DFT components:
N(Alpha)           :       24.999864282171 electrons
N(Beta)            :       24.999864282171 electrons
N(Total)           :       49.999728564343 electrons
E(X)               :      -66.486558629246 Eh       
E(C)               :       -1.859293951293 Eh       
E(XC)              :      -68.345852580539 Eh       

---------------
SCF CONVERGENCE
---------------

  Last Energy change         ...   -4.3267e-07  Tolerance :   1.0000e-05
  Last MAX-Density change    ...    2.3246e-04  Tolerance :   1.0000e-03
  Last RMS-Density change    ...    2.3746e-05  Tolerance :   1.0000e-04
  Last DIIS Error            ...    1.2133e-04  Tolerance :   5.0000e-04
  Last Orbital Gradient      ...    2.1130e-04  Tolerance :   1.0000e-04
  Last Orbital Rotation      ...    1.8758e-04  Tolerance :   1.0000e-04


----------------
ORBITAL ENERGIES
----------------

  NO   OCC          E(Eh)            E(eV) 
   0   2.0000    -100.625969     -2738.1718 
   1   2.0000    -100.625952     -2738.1714 
   2   2.0000      -9.958390      -270.9816 
   3   2.0000      -9.958354      -270.9806 
   4   2.0000      -9.161940      -249.3091 
   5   2.0000      -9.161915      -249.3084 
   6   2.0000      -6.993747      -190.3095 
   7   2.0000      -6.993742      -190.3094 
   8   2.0000      -6.981519      -189.9768 
   9   2.0000      -6.981508      -189.9765 
  10   2.0000      -6.981299      -189.9708 
  11   2.0000      -6.981283      -189.9704 
  12   2.0000      -0.806755       -21.9529 
  13   2.0000      -0.759242       -20.6600 
  14   2.0000      -0.653960       -17.7952 
  15   2.0000      -0.556091       -15.1320 
  16   2.0000      -0.444790       -12.1033 
  17   2.0000      -0.437017       -11.8918 
  18   2.0000      -0.396429       -10.7874 
  19   2.0000      -0.361029        -9.8241 
  20   2.0000      -0.356147        -9.6913 
  21   2.0000      -0.262063        -7.1311 
  22   2.0000      -0.258920        -7.0456 
  23   2.0000      -0.251319        -6.8387 
  24   2.0000      -0.247003        -6.7213 
  25   0.0000      -0.008381        -0.2281 
  26   0.0000       0.016850         0.4585 
  27   0.0000       0.038850         1.0572 
  28   0.0000       0.073046         1.9877 
  29   0.0000       0.089688         2.4405 
  30   0.0000       0.097541         2.6542 
  31   0.0000       0.144371         3.9285 
  32   0.0000       0.362729         9.8703 
  33   0.0000       0.365756         9.9527 
  34   0.0000       0.373127        10.1533 
  35   0.0000       0.395132        10.7521 
*Only the first 10 virtual orbitals were printed.

                    ********************************
                    * MULLIKEN POPULATION ANALYSIS *
                    ********************************

-----------------------
MULLIKEN ATOMIC CHARGES
-----------------------
   0 C :   -0.160434
   1 C :   -0.160461
   2 Cl:   -0.134613
   3 Cl:   -0.134638
   4 H :    0.150612
   5 H :    0.144459
   6 H :    0.144457
   7 H :    0.150618
Sum of atomic charges:   -0.0000000

--------------------------------
MULLIKEN REDUCED ORBITAL CHARGES
--------------------------------
  0 C s       :     3.130066  s :     3.130066
      pz      :     0.938785  p :     2.986651
      px      :     0.954561
      py      :     1.093305
      dz2     :     0.009902  d :     0.043718
      dxz     :     0.012843
      dyz     :     0.003988
      dx2y2   :     0.009883
      dxy     :     0.007102

  1 C s       :     3.130061  s :     3.130061
      pz      :     0.938802  p :     2.986678
      px      :     0.954580
      py      :     1.093297
      dz2     :     0.009902  d :     0.043722
      dxz     :     0.012844
      dyz     :     0.003989
      dx2y2   :     0.009884
      dxy     :     0.007102

  2 Cls       :     5.959795  s :     5.959795
      pz      :     3.520412  p :    11.142495
      px      :     3.710769
      py      :     3.911314
      dz2     :     0.008159  d :     0.032323
      dxz     :     0.012769
      dyz     :     0.004874
      dx2y2   :     0.003195
      dxy     :     0.003326

  3 Cls       :     5.959800  s :     5.959800
      pz      :     3.520346  p :    11.142522
      px      :     3.710806
      py      :     3.911370
      dz2     :     0.008158  d :     0.032317
      dxz     :     0.012768
      dyz     :     0.004872
      dx2y2   :     0.003194
      dxy     :     0.003324

  4 H s       :     0.849388  s :     0.849388

  5 H s       :     0.855541  s :     0.855541

  6 H s       :     0.855543  s :     0.855543

  7 H s       :     0.849382  s :     0.849382


------------------------
MULLIKEN OVERLAP CHARGES
------------------------
B(  0-C ,  1-C ) :   0.7071 B(  0-C ,  2-Cl) :  -0.1572 B(  0-C ,  3-Cl) :   0.5635 
B(  0-C ,  4-H ) :   0.7135 B(  0-C ,  5-H ) :   0.6807 B(  1-C ,  2-Cl) :   0.5635 
B(  1-C ,  3-Cl) :  -0.1572 B(  1-C ,  6-H ) :   0.6807 B(  1-C ,  7-H ) :   0.7135 
B(  2-Cl,  6-H ) :  -0.0551 B(  2-Cl,  7-H ) :  -0.0692 B(  3-Cl,  4-H ) :  -0.0692 
B(  3-Cl,  5-H ) :  -0.0551 


                     *******************************
                     * LOEWDIN POPULATION ANALYSIS *
                     *******************************

----------------------
LOEWDIN ATOMIC CHARGES
----------------------
   0 C :   -0.301435
   1 C :   -0.301459
   2 Cl:    0.038723
   3 Cl:    0.038682
   4 H :    0.130939
   5 H :    0.131809
   6 H :    0.131804
   7 H :    0.130937

-------------------------------
LOEWDIN REDUCED ORBITAL CHARGES
-------------------------------
  0 C s       :     2.991359  s :     2.991359
      pz      :     1.022603  p :     3.210084
      px      :     1.052382
      py      :     1.135100
      dz2     :     0.024002  d :     0.099993
      dxz     :     0.027479
      dyz     :     0.007632
      dx2y2   :     0.021922
      dxy     :     0.018957

  1 C s       :     2.991353  s :     2.991353
      pz      :     1.022620  p :     3.210104
      px      :     1.052399
      py      :     1.135085
      dz2     :     0.024003  d :     0.100002
      dxz     :     0.027481
      dyz     :     0.007634
      dx2y2   :     0.021924
      dxy     :     0.018959

  2 Cls       :     5.790909  s :     5.790909
      pz      :     3.532294  p :    11.133945
      px      :     3.699645
      py      :     3.902006
      dz2     :     0.008776  d :     0.036422
      dxz     :     0.015416
      dyz     :     0.005277
      dx2y2   :     0.003481
      dxy     :     0.003472

  3 Cls       :     5.790941  s :     5.790941
      pz      :     3.532226  p :    11.133963
      px      :     3.699679
      py      :     3.902058
      dz2     :     0.008775  d :     0.036414
      dxz     :     0.015415
      dyz     :     0.005275
      dx2y2   :     0.003480
      dxy     :     0.003470

  4 H s       :     0.869061  s :     0.869061

  5 H s       :     0.868191  s :     0.868191

  6 H s       :     0.868196  s :     0.868196

  7 H s       :     0.869063  s :     0.869063


---------------------------------
LOEWDIN BOND ORDERS (THRESH 0.050000)
---------------------------------
B(  0-C ,  1-C ) :   1.1524 B(  0-C ,  2-Cl) :   0.0793 B(  0-C ,  3-Cl) :   1.2098 
B(  0-C ,  4-H ) :   0.9192 B(  0-C ,  5-H ) :   0.9120 B(  1-C ,  2-Cl) :   1.2099 
B(  1-C ,  3-Cl) :   0.0793 B(  1-C ,  6-H ) :   0.9120 B(  1-C ,  7-H ) :   0.9192 


------------------------------------------
LOEWDIN REDUCED ORBITAL POPULATIONS PER MO
-------------------------------------------
THRESHOLD FOR PRINTING IS 0.1%%
                      0         1         2         3         4         5   
                 -100.62597 -100.62595  -9.95839  -9.95835  -9.16194  -9.16191
                   2.00000   2.00000   2.00000   2.00000   2.00000   2.00000
                  --------  --------  --------  --------  --------  --------
 0 C  s               0.0       0.0      48.4      51.3       0.0       0.0
 1 C  s               0.0       0.0      51.4      48.4       0.0       0.0
 2 Cl s              63.3      36.7       0.0       0.0      61.3      38.5
 3 Cl s              36.7      63.3       0.0       0.0      38.5      61.3

                      6         7         8         9        10        11   
                  -6.99375  -6.99374  -6.98152  -6.98151  -6.98130  -6.98128
                   2.00000   2.00000   2.00000   2.00000   2.00000   2.00000
                  --------  --------  --------  --------  --------  --------
 2 Cl pz             59.8       0.1       1.0       0.2      26.3      12.7
 2 Cl px             34.3       0.1      19.1       5.4      27.4      13.8
 2 Cl py              5.7       0.0      56.0      18.4      14.1       5.8
 3 Cl pz              0.1      59.8       0.4       0.8      12.5      26.4
 3 Cl px              0.1      34.3       6.3      18.2      12.7      28.4
 3 Cl py              0.0       5.7      17.2      57.1       7.1      12.8

                     12        13        14        15        16        17   
                  -0.80676  -0.75924  -0.65396  -0.55609  -0.44479  -0.43702
                   2.00000   2.00000   2.00000   2.00000   2.00000   2.00000
                  --------  --------  --------  --------  --------  --------
 0 C  s              18.1       4.8      12.7      12.9       0.1       0.1
 0 C  pz              1.9       2.0       4.3       1.2       1.7      21.4
 0 C  px              0.1       5.4       4.8       1.6       9.2       6.8
 0 C  py              1.1       0.0       0.2       7.1      17.6       0.2
 0 C  dxz             0.0       0.1       0.1       0.1       0.1       0.0
 0 C  dxy             0.0       0.1       0.1       0.1       0.0       0.0
 1 C  s              18.1       4.8      12.7      12.9       0.1       0.1
 1 C  pz              1.9       2.0       4.3       1.2       1.7      21.4
 1 C  px              0.1       5.4       4.8       1.6       9.2       6.8
 1 C  py              1.1       0.0       0.2       7.1      17.6       0.2
 1 C  dxz             0.0       0.1       0.1       0.1       0.1       0.0
 1 C  dxy             0.0       0.1       0.1       0.1       0.0       0.0
 2 Cl s              20.8      34.7      19.8       7.2       1.6       1.8
 2 Cl pz              1.0       0.7       0.8       2.6       4.9       0.3
 2 Cl px              0.7       0.2       0.5       0.9       0.6       8.3
 2 Cl py              0.1       0.1       0.0       0.9       1.1       0.1
 2 Cl dz2             0.0       0.0       0.0       0.0       0.1       0.0
 2 Cl dxz             0.1       0.1       0.0       0.1       0.0       0.1
 3 Cl s              20.8      34.7      19.8       7.2       1.6       1.8
 3 Cl pz              1.0       0.7       0.8       2.6       4.8       0.3
 3 Cl px              0.7       0.2       0.5       0.9       0.6       8.3
 3 Cl py              0.1       0.1       0.0       0.8       1.1       0.1
 3 Cl dz2             0.0       0.0       0.0       0.0       0.1       0.0
 3 Cl dxz             0.1       0.1       0.0       0.1       0.0       0.1
 4 H  s               3.1       0.7       2.8       8.7       7.6       0.2
 5 H  s               2.8       1.0       3.8       6.4       5.3      10.4
 6 H  s               2.8       1.0       3.8       6.4       5.3      10.4
 7 H  s               3.1       0.7       2.8       8.7       7.6       0.2

                     18        19        20        21        22        23   
                  -0.39643  -0.36103  -0.35615  -0.26206  -0.25892  -0.25132
                   2.00000   2.00000   2.00000   2.00000   2.00000   2.00000
                  --------  --------  --------  --------  --------  --------
 0 C  s               0.0       0.0       0.0       0.5       0.1       0.5
 0 C  pz              1.6       0.4      15.2       0.1       0.7       0.1
 0 C  px             14.1       6.0       0.1       0.6       1.2       2.2
 0 C  py             15.4      11.7       0.2       0.2       0.2       2.0
 0 C  dz2             0.0       0.1       0.0       0.0       0.5       0.0
 0 C  dxz             0.0       0.0       0.7       0.0       0.0       0.1
 0 C  dx2y2           0.1       0.6       0.0       0.1       0.0       0.1
 0 C  dxy             0.2       0.0       0.0       0.1       0.0       0.2
 1 C  s               0.0       0.0       0.0       0.5       0.1       0.5
 1 C  pz              1.6       0.4      15.2       0.1       0.7       0.1
 1 C  px             14.1       6.0       0.1       0.6       1.2       2.2
 1 C  py             15.4      11.7       0.2       0.2       0.2       2.0
 1 C  dz2             0.0       0.1       0.0       0.0       0.5       0.0
 1 C  dxz             0.0       0.0       0.7       0.0       0.0       0.1
 1 C  dx2y2           0.1       0.6       0.0       0.1       0.0       0.1
 1 C  dxy             0.2       0.0       0.0       0.1       0.0       0.2
 2 Cl s               1.3       1.0       1.5       0.0       0.0       0.0
 2 Cl pz              5.7      16.1       8.9       1.4      13.2       0.3
 2 Cl px              0.5       1.9      12.7      13.6      20.9       9.3
 2 Cl py              5.8       0.2       2.9      32.2       8.6      33.1
 2 Cl dz2             0.0       0.1       0.0       0.0       0.0       0.0
 2 Cl dxz             0.0       0.1       0.2       0.0       0.0       0.0
 2 Cl dyz             0.1       0.0       0.0       0.0       0.0       0.0
 3 Cl s               1.3       1.0       1.5       0.0       0.0       0.0
 3 Cl pz              5.7      16.1       9.0       1.4      13.2       0.3
 3 Cl px              0.5       1.9      12.7      13.5      20.9       9.3
 3 Cl py              5.8       0.2       2.9      32.2       8.6      33.1
 3 Cl dz2             0.0       0.1       0.0       0.0       0.0       0.0
 3 Cl dxz             0.0       0.1       0.2       0.0       0.0       0.0
 3 Cl dyz             0.1       0.0       0.0       0.0       0.0       0.0
 4 H  s               4.9      10.5       0.0       1.0       1.8       1.4
 5 H  s               0.1       1.1       7.5       0.1       2.6       0.6
 6 H  s               0.1       1.1       7.5       0.1       2.6       0.6
 7 H  s               4.9      10.5       0.0       1.0       1.8       1.4

                     24        25        26        27        28        29   
                  -0.24700  -0.00838   0.01685   0.03885   0.07305   0.08969
                   2.00000   0.00000   0.00000   0.00000   0.00000   0.00000
                  --------  --------  --------  --------  --------  --------
 0 C  s               0.0       8.2       5.1       5.3       7.9       1.9
 0 C  pz              0.5       7.5       9.8       9.2       0.0      11.0
 0 C  px              0.2       6.5       5.3       0.2       0.6       1.5
 0 C  py              0.7       0.1       3.0       1.0       5.9       0.9
 0 C  dz2             0.2       0.1       0.2       0.0       0.3       0.0
 0 C  dxz             0.1       1.2       0.1       1.1       0.0       0.1
 0 C  dyz             0.0       0.0       0.6       0.0       0.0       0.8
 0 C  dx2y2           0.0       0.1       0.8       0.0       0.6       0.1
 0 C  dxy             0.0       0.1       0.0       0.1       0.1       0.0
 1 C  s               0.0       8.2       5.1       5.3       7.9       1.9
 1 C  pz              0.5       7.5       9.8       9.2       0.0      11.0
 1 C  px              0.2       6.5       5.3       0.2       0.6       1.5
 1 C  py              0.7       0.1       3.0       1.0       5.9       0.9
 1 C  dz2             0.2       0.1       0.2       0.0       0.3       0.0
 1 C  dxz             0.1       1.2       0.1       1.1       0.0       0.1
 1 C  dyz             0.0       0.0       0.6       0.0       0.0       0.8
 1 C  dx2y2           0.0       0.1       0.8       0.0       0.6       0.1
 1 C  dxy             0.0       0.1       0.0       0.1       0.1       0.0
 2 Cl s               0.0       1.8       2.4       1.0       0.0       0.4
 2 Cl pz             20.7       9.5       8.6       0.8       0.0       0.4
 2 Cl px             15.0       4.6       5.9       1.2       0.1       0.2
 2 Cl py             10.1       1.2       0.9       0.0       0.1       0.3
 2 Cl dz2             0.0       0.7       0.6       0.1       0.0       0.1
 2 Cl dxz             0.0       2.0       2.8       0.1       0.1       0.0
 2 Cl dyz             0.0       0.6       0.2       0.1       0.1       0.1
 2 Cl dx2y2           0.0       0.3       0.2       0.2       0.0       0.0
 2 Cl dxy             0.0       0.2       0.3       0.0       0.1       0.6
 3 Cl s               0.0       1.8       2.4       1.0       0.0       0.4
 3 Cl pz             20.7       9.5       8.6       0.8       0.0       0.4
 3 Cl px             15.0       4.6       5.9       1.2       0.1       0.2
 3 Cl py             10.1       1.2       0.8       0.0       0.1       0.3
 3 Cl dz2             0.0       0.7       0.6       0.1       0.0       0.1
 3 Cl dxz             0.0       2.0       2.8       0.1       0.1       0.0
 3 Cl dyz             0.0       0.6       0.2       0.1       0.1       0.1
 3 Cl dx2y2           0.0       0.3       0.2       0.2       0.0       0.0
 3 Cl dxy             0.0       0.2       0.3       0.0       0.1       0.6
 4 H  s               0.6       3.9       0.9       4.7      33.0       0.7
 5 H  s               1.7       1.6       2.4      25.0       0.9      30.9
 6 H  s               1.7       1.6       2.4      25.0       0.9      30.9
 7 H  s               0.6       3.9       0.9       4.7      33.0       0.7

                     30        31        32        33        34        35   
                   0.09754   0.14437   0.36273   0.36576   0.37313   0.39513
                   0.00000   0.00000   0.00000   0.00000   0.00000   0.00000
                  --------  --------  --------  --------  --------  --------
 0 C  s               0.2       4.8       1.6       1.4       2.1       1.7
 0 C  pz              0.8       0.2      17.1       8.7       0.9      17.7
 0 C  px              3.9      20.7       6.5       5.2      16.2       3.3
 0 C  py              9.4       9.9       0.4       9.5       9.8       0.7
 0 C  dz2             0.7       1.8       0.0       1.6       1.1       0.2
 0 C  dxz             0.0       0.0       2.7       0.2       0.6       0.9
 0 C  dyz             0.1       0.1       0.1       0.6       0.1       2.5
 0 C  dx2y2           0.0       0.6       0.1       2.9       0.5       0.9
 0 C  dxy             0.3       4.9       0.4       0.0       3.2       0.2
 1 C  s               0.2       4.8       1.6       1.4       2.1       1.7
 1 C  pz              0.8       0.2      17.2       8.5       0.9      17.7
 1 C  px              3.9      20.7       6.5       5.1      16.2       3.3
 1 C  py              9.4       9.9       0.4       9.5       9.8       0.7
 1 C  dz2             0.7       1.8       0.0       1.6       1.1       0.2
 1 C  dxz             0.0       0.0       2.7       0.2       0.6       0.9
 1 C  dyz             0.1       0.1       0.1       0.6       0.1       2.5
 1 C  dx2y2           0.0       0.6       0.1       2.9       0.5       0.9
 1 C  dxy             0.3       4.9       0.4       0.0       3.2       0.2
 2 Cl s               0.5       0.4       8.2       0.7       0.2       5.4
 2 Cl pz              0.8       0.4       0.3       0.1       0.1       0.2
 2 Cl px              0.1       0.2       0.2       0.1       0.9       0.0
 2 Cl py              0.1       0.4       0.0       0.4       0.6       1.6
 2 Cl dz2             0.7       0.2       3.0       0.0       1.6       0.5
 2 Cl dxz             0.1       0.4       4.2       1.3       0.7       0.2
 2 Cl dyz             0.2       1.8       0.0       2.3       2.6       0.7
 2 Cl dx2y2           0.2       0.8       0.0       0.8       2.4       0.4
 2 Cl dxy             0.2       0.1       0.1       0.7       0.4       6.4
 3 Cl s               0.5       0.4       8.2       0.7       0.2       5.4
 3 Cl pz              0.8       0.4       0.3       0.1       0.1       0.2
 3 Cl px              0.1       0.2       0.2       0.1       0.9       0.0
 3 Cl py              0.1       0.4       0.0       0.4       0.6       1.6
 3 Cl dz2             0.7       0.2       3.0       0.0       1.6       0.5
 3 Cl dxz             0.1       0.4       4.1       1.4       0.7       0.2
 3 Cl dyz             0.2       1.8       0.0       2.3       2.6       0.7
 3 Cl dx2y2           0.2       0.8       0.0       0.8       2.4       0.4
 3 Cl dxy             0.2       0.1       0.1       0.7       0.4       6.4
 4 H  s              24.3       1.0       0.5      12.9       1.5       0.8
 5 H  s               7.3       1.4       4.5       0.6       4.5       5.5
 6 H  s               7.3       1.4       4.5       0.6       4.5       5.5
 7 H  s              24.3       1.0       0.4      12.9       1.5       0.8

                     36        37        38        39        40        41   
                   0.45354   0.47720   0.49602   0.57159   0.60388   0.61329
                   0.00000   0.00000   0.00000   0.00000   0.00000   0.00000
                  --------  --------  --------  --------  --------  --------
 0 C  s               0.4       1.2       1.1       5.8      11.3       1.9
 0 C  pz              0.4       0.5       3.7       2.1       0.1       8.0
 0 C  px             10.8       0.6       8.9      13.4       0.6       7.9
 0 C  py              8.8       7.7       3.1       3.7      15.5       1.9
 0 C  dz2             2.9       1.0       0.7       0.0       0.5       0.3
 0 C  dxz             0.6       1.6       0.1       0.0       0.0       1.3
 0 C  dyz             0.1       0.0       0.1       0.1       0.0       0.2
 0 C  dx2y2           0.1       0.0       0.3       0.1       0.7       0.0
 0 C  dxy             0.9       0.3       0.0       0.0       0.2       0.1
 1 C  s               0.4       1.2       1.1       5.8      11.3       2.1
 1 C  pz              0.4       0.5       3.7       2.1       0.1       8.7
 1 C  px             10.8       0.6       8.9      13.4       0.6       8.1
 1 C  py              8.8       7.7       3.1       3.7      15.5       1.9
 1 C  dz2             2.9       1.0       0.7       0.0       0.5       0.3
 1 C  dxz             0.6       1.6       0.1       0.0       0.0       1.3
 1 C  dyz             0.1       0.0       0.1       0.1       0.0       0.2
 1 C  dx2y2           0.1       0.0       0.3       0.1       0.7       0.0
 1 C  dxy             0.9       0.3       0.0       0.0       0.2       0.1
 2 Cl s               7.3      19.0      19.9      14.4       0.3       0.4
 2 Cl pz              1.2       0.7       0.5       1.3       0.0       0.0
 2 Cl px              0.5       0.8       1.6       1.7       0.0       0.6
 2 Cl py              0.1       0.1       0.3       0.2       0.1       0.1
 2 Cl dz2             5.1       3.7       2.1       0.0       0.1       2.4
 2 Cl dxz             0.4       1.1       1.5       0.0       0.1       0.5
 2 Cl dyz             2.1       0.8       0.3       4.3       0.2       0.0
 2 Cl dx2y2           0.1       0.3       0.7       0.1       1.6       0.0
 2 Cl dxy             1.1       0.5       0.4       0.8       1.1       3.3
 3 Cl s               7.3      19.0      19.9      14.4       0.3       0.4
 3 Cl pz              1.2       0.7       0.5       1.3       0.0       0.0
 3 Cl px              0.5       0.8       1.6       1.7       0.0       0.6
 3 Cl py              0.1       0.1       0.3       0.2       0.1       0.1
 3 Cl dz2             5.1       3.7       2.1       0.0       0.1       2.4
 3 Cl dxz             0.4       1.1       1.5       0.0       0.1       0.5
 3 Cl dyz             2.1       0.8       0.3       4.3       0.2       0.0
 3 Cl dx2y2           0.1       0.3       0.7       0.1       1.6       0.0
 3 Cl dxy             1.1       0.5       0.4       0.8       1.1       3.3
 4 H  s               5.9       0.5       4.5       0.2      16.8       0.3
 5 H  s               1.0       9.6       0.3       1.9       0.8      19.7
 6 H  s               1.0       9.6       0.3       1.9       0.8      20.6
 7 H  s               5.9       0.5       4.5       0.2      16.8       0.3

                     42        43        44        45        46        47   
                   0.61423   0.61723   0.66325   0.70182   0.72473   0.73081
                   0.00000   0.00000   0.00000   0.00000   0.00000   0.00000
                  --------  --------  --------  --------  --------  --------
 0 C  s              12.3       8.3       6.0       5.5       0.2       0.0
 0 C  pz             18.0       1.0       0.4       0.4       0.5       0.3
 0 C  px              2.2       0.0       4.0       0.2       2.6       0.1
 0 C  py              0.4      21.1       0.1       1.8       0.0       0.0
 0 C  dz2             0.4       0.0       0.1       0.0       0.1       0.0
 0 C  dxz             0.1       0.0       0.1       0.0       0.5       0.3
 0 C  dyz             0.0       0.0       0.0       0.6       0.0       0.1
 0 C  dx2y2           0.1       0.4       0.9       0.0       0.0       0.1
 0 C  dxy             0.0       0.0       0.5       0.1       0.0       0.0
 1 C  s              12.1       8.3       6.0       5.5       0.2       0.0
 1 C  pz             17.4       0.9       0.4       0.4       0.5       0.3
 1 C  px              2.0       0.0       4.0       0.2       2.6       0.1
 1 C  py              0.4      21.1       0.1       1.8       0.0       0.0
 1 C  dz2             0.4       0.0       0.1       0.0       0.1       0.0
 1 C  dxz             0.1       0.0       0.1       0.0       0.5       0.3
 1 C  dyz             0.0       0.0       0.0       0.6       0.0       0.1
 1 C  dx2y2           0.1       0.4       0.9       0.0       0.0       0.1
 1 C  dxy             0.0       0.0       0.5       0.1       0.0       0.0
 2 Cl s               1.0       0.1       0.4       2.2       0.7       0.0
 2 Cl pz              0.2       0.1       0.5       2.5       1.2       0.2
 2 Cl px              0.1       0.0       0.0       0.3      17.4       0.2
 2 Cl py              0.0       0.7       0.2       0.5       0.0       0.8
 2 Cl dz2             0.9       0.0      27.0       0.6       2.2       5.5
 2 Cl dxz             0.0       0.5       0.1       3.5      21.9      15.4
 2 Cl dyz             0.5       2.0       1.6       0.9       1.0       0.2
 2 Cl dx2y2           2.8       0.4       4.7       0.7       0.7      26.0
 2 Cl dxy             0.0       1.1       1.7      22.9       0.3       0.2
 3 Cl s               1.0       0.1       0.4       2.2       0.7       0.0
 3 Cl pz              0.2       0.1       0.5       2.5       1.2       0.2
 3 Cl px              0.1       0.0       0.0       0.3      17.4       0.2
 3 Cl py              0.0       0.7       0.2       0.5       0.0       0.8
 3 Cl dz2             0.8       0.0      27.0       0.6       2.2       5.5
 3 Cl dxz             0.0       0.5       0.1       3.5      21.9      15.4
 3 Cl dyz             0.5       2.0       1.6       0.9       1.0       0.2
 3 Cl dx2y2           2.8       0.4       4.7       0.7       0.7      26.0
 3 Cl dxy             0.0       1.1       1.7      22.9       0.3       0.2
 4 H  s               0.6      13.2       1.5       5.4       0.4       0.0
 5 H  s              11.2       0.9       0.2       1.8       0.2       0.6
 6 H  s              10.4       0.9       0.2       1.8       0.2       0.6
 7 H  s               0.6      13.2       1.5       5.4       0.4       0.0

                     48        49        50        51        52        53   
                   0.73635   0.74468   0.75149   0.75761   0.75957   0.78809
                   0.00000   0.00000   0.00000   0.00000   0.00000   0.00000
                  --------  --------  --------  --------  --------  --------
 0 C  s               0.4       1.9       8.3       2.9       1.4       0.1
 0 C  pz              0.5       0.9       0.2       2.5       0.7       1.4
 0 C  px              1.3       2.0       0.5       2.8       0.2       0.8
 0 C  py              0.6       0.8       0.2       0.1       3.5       5.3
 0 C  dz2             0.4       0.0       0.0       0.2       0.2       0.1
 0 C  dxz             0.4       0.1       0.0       0.5       0.2       0.2
 0 C  dyz             0.0       0.4       0.0       0.7       1.6       0.0
 0 C  dx2y2           0.2       0.5       0.0       0.0       0.0       0.3
 0 C  dxy             0.0       0.5       0.1       0.0       0.2       0.0
 1 C  s               0.4       1.9       8.3       2.9       1.5       0.1
 1 C  pz              0.5       0.9       0.2       2.5       0.8       1.4
 1 C  px              1.3       2.0       0.5       2.8       0.2       0.8
 1 C  py              0.6       0.8       0.2       0.1       3.5       5.3
 1 C  dz2             0.4       0.0       0.0       0.2       0.2       0.1
 1 C  dxz             0.4       0.1       0.0       0.5       0.2       0.2
 1 C  dyz             0.0       0.4       0.0       0.7       1.6       0.0
 1 C  dx2y2           0.2       0.5       0.0       0.0       0.0       0.3
 1 C  dxy             0.0       0.5       0.1       0.1       0.2       0.0
 2 Cl s               0.1       0.9       1.1       0.3       0.3       0.0
 2 Cl pz              3.6       7.8       8.1       3.5       5.1       0.1
 2 Cl px              1.2       0.3       0.0       6.3       0.5       0.4
 2 Cl py              0.6       0.5       0.3       0.2       7.7      20.2
 2 Cl dz2             5.1       4.3       0.4       0.0       3.0       0.0
 2 Cl dxz             0.0       0.0       0.0      17.6       0.1       1.4
 2 Cl dyz             8.0      15.7       8.3       0.6      18.5       6.1
 2 Cl dx2y2          25.0       1.7       3.3      11.2       3.5       0.0
 2 Cl dxy             1.1       9.0      15.0       0.5       2.2      12.3
 3 Cl s               0.1       0.9       1.1       0.3       0.3       0.0
 3 Cl pz              3.6       7.8       8.1       3.5       5.1       0.1
 3 Cl px              1.2       0.3       0.0       6.3       0.5       0.4
 3 Cl py              0.6       0.5       0.3       0.2       7.7      20.2
 3 Cl dz2             5.1       4.3       0.5       0.0       3.0       0.0
 3 Cl dxz             0.0       0.0       0.0      17.5       0.1       1.4
 3 Cl dyz             8.0      15.7       8.3       0.6      18.5       6.1
 3 Cl dx2y2          25.1       1.7       3.3      11.1       3.5       0.0
 3 Cl dxy             1.1       8.9      15.0       0.5       2.2      12.4
 4 H  s               0.9       1.1       2.0       0.1       0.3       1.1
 5 H  s               0.3       1.6       2.2       0.1       0.7       0.2
 6 H  s               0.3       1.6       2.2       0.1       0.7       0.2
 7 H  s               0.9       1.1       2.0       0.1       0.3       1.1

                     54        55        56        57        58        59   
                   0.79925   0.89307   0.89779   0.94695   1.05977   1.06525
                   0.00000   0.00000   0.00000   0.00000   0.00000   0.00000
                  --------  --------  --------  --------  --------  --------
 0 C  s               2.8      10.4       0.3       7.8       5.8       0.4
 0 C  pz              5.1       0.2       0.4       1.3       4.4       3.7
 0 C  px              0.1       0.6       0.1       0.0       0.2       6.1
 0 C  py              0.1       1.4       2.0       1.6       1.2       2.8
 0 C  dz2             0.0       0.0       0.0       0.2       0.1       1.7
 0 C  dxz             0.1       0.1       0.6       0.5       0.3       0.5
 0 C  dyz             0.0       0.0       3.0       0.1       0.0       0.1
 0 C  dx2y2           0.0       0.2       0.0       2.6       1.1       0.6
 0 C  dxy             0.0       0.3       0.2       0.5       0.0       0.1
 1 C  s               2.8      10.4       0.3       7.8       5.8       0.4
 1 C  pz              5.1       0.2       0.4       1.3       4.4       3.7
 1 C  px              0.1       0.6       0.1       0.0       0.2       6.1
 1 C  py              0.1       1.3       2.0       1.6       1.2       2.8
 1 C  dz2             0.0       0.0       0.0       0.2       0.1       1.7
 1 C  dxz             0.1       0.1       0.6       0.5       0.3       0.5
 1 C  dyz             0.0       0.0       3.0       0.1       0.0       0.1
 1 C  dx2y2           0.0       0.2       0.0       2.6       1.1       0.6
 1 C  dxy             0.0       0.3       0.2       0.5       0.0       0.1
 2 Cl s               1.1       0.0       0.1       0.1       0.3       0.1
 2 Cl pz              6.1      18.5       0.2       5.8       0.0       8.4
 2 Cl px             14.6       6.2       0.0      11.3      10.2       5.8
 2 Cl py              0.7       0.2      38.1       9.0      14.4       0.3
 2 Cl dz2             4.9       0.2       0.1       1.4       0.0      16.4
 2 Cl dxz             6.8       0.0       0.0       0.3       0.1       0.0
 2 Cl dyz             0.0       6.2       3.4       4.9       1.1       0.0
 2 Cl dx2y2           4.3       0.3       0.3       0.2       1.1       1.9
 2 Cl dxy             2.2       3.1       1.0       0.1       7.2       0.0
 3 Cl s               1.1       0.0       0.1       0.1       0.3       0.1
 3 Cl pz              6.1      18.5       0.3       5.8       0.0       8.4
 3 Cl px             14.6       6.1       0.0      11.3      10.2       5.8
 3 Cl py              0.7       0.2      38.1       9.0      14.4       0.3
 3 Cl dz2             4.9       0.2       0.1       1.4       0.0      16.4
 3 Cl dxz             6.8       0.0       0.0       0.3       0.1       0.0
 3 Cl dyz             0.0       6.3       3.3       4.9       1.1       0.0
 3 Cl dx2y2           4.3       0.4       0.3       0.2       1.1       1.9
 3 Cl dxy             2.2       3.1       1.0       0.1       7.2       0.0
 4 H  s               0.2       1.1       0.1       0.4       1.8       0.5
 5 H  s               0.9       1.0       0.1       2.0       0.6       0.6
 6 H  s               0.9       1.0       0.1       2.1       0.6       0.6
 7 H  s               0.2       1.1       0.1       0.4       1.8       0.5

                     60        61        62        63        64        65   
                   1.23690   1.29677   1.47961   1.51867   1.77771   1.83911
                   0.00000   0.00000   0.00000   0.00000   0.00000   0.00000
                  --------  --------  --------  --------  --------  --------
 0 C  s               4.6       4.0       0.4       0.1       2.2       0.0
 0 C  pz              1.5       0.3       0.8       0.8       0.0       0.0
 0 C  px              0.2       2.6       0.1       0.8       2.1       1.0
 0 C  py              0.1       0.0       0.6       0.8       1.1       3.1
 0 C  dz2             0.1       0.7       0.6       8.6       9.1      25.1
 0 C  dxz             1.1       4.9       7.3       0.2       0.0       0.3
 0 C  dyz             0.3       0.3      31.4       0.1       0.1       0.7
 0 C  dx2y2           0.9       0.1       0.0      20.4       4.3       3.3
 0 C  dxy             0.4       0.0       1.6      11.3      28.0      12.1
 1 C  s               4.6       4.0       0.4       0.1       2.2       0.0
 1 C  pz              1.5       0.3       0.8       0.8       0.0       0.0
 1 C  px              0.2       2.6       0.1       0.8       2.1       1.0
 1 C  py              0.1       0.0       0.6       0.8       1.1       3.1
 1 C  dz2             0.1       0.7       0.6       8.6       9.1      25.1
 1 C  dxz             1.1       4.9       7.3       0.2       0.0       0.3
 1 C  dyz             0.3       0.3      31.4       0.1       0.1       0.8
 1 C  dx2y2           0.9       0.1       0.0      20.4       4.3       3.3
 1 C  dxy             0.4       0.0       1.6      11.3      28.0      12.1
 2 Cl s               6.9       7.4       0.8       0.2       0.3       0.2
 2 Cl pz             10.7      12.5       0.2       1.2       0.1       0.0
 2 Cl px             10.7       8.5       0.3       0.3       0.1       0.1
 2 Cl py              1.8       0.0       1.4       0.3       0.0       0.0
 2 Cl dz2             1.5       0.1       0.1       3.3       0.1       0.1
 2 Cl dxz             4.7       5.3       0.3       0.0       0.6       0.2
 2 Cl dyz             0.8       0.1       2.2       0.0       0.0       0.0
 2 Cl dx2y2           0.6       1.3       0.1       0.1       0.1       0.3
 2 Cl dxy             1.2       0.0       1.4       0.5       0.1       0.1
 3 Cl s               6.9       7.4       0.8       0.2       0.3       0.2
 3 Cl pz             10.7      12.5       0.2       1.2       0.1       0.0
 3 Cl px             10.7       8.5       0.3       0.3       0.1       0.1
 3 Cl py              1.8       0.0       1.4       0.3       0.0       0.0
 3 Cl dz2             1.5       0.1       0.1       3.3       0.1       0.1
 3 Cl dxz             4.7       5.3       0.3       0.0       0.6       0.2
 3 Cl dyz             0.8       0.1       2.2       0.0       0.0       0.0
 3 Cl dx2y2           0.6       1.3       0.1       0.1       0.1       0.3
 3 Cl dxy             1.2       0.0       1.4       0.5       0.1       0.1
 4 H  s               0.9       1.0       0.2       0.5       0.9       2.1
 5 H  s               1.0       0.9       0.2       0.6       0.6       1.1
 6 H  s               1.0       0.9       0.2       0.6       0.6       1.1
 7 H  s               0.9       1.0       0.2       0.5       0.9       2.1

                     66        67        68        69        70        71   
                   1.85083   2.05548   2.09476   2.15845   2.17032   2.43205
                   0.00000   0.00000   0.00000   0.00000   0.00000   0.00000
                  --------  --------  --------  --------  --------  --------
 0 C  s               0.1       0.1       0.3       0.0       0.0       1.9
 0 C  pz              3.3       0.1       2.3       0.1       0.1       0.0
 0 C  px              0.0       0.5       0.1       0.2       0.0       3.7
 0 C  py              0.1       1.2       0.0       0.1       0.2       1.5
 0 C  dz2             0.4      22.1       0.0       4.6       2.0      10.6
 0 C  dxz             1.1       2.0      27.0       0.0      39.6       0.2
 0 C  dyz            40.0       0.0      11.5       0.0       3.3       0.0
 0 C  dx2y2           0.0      12.5       0.0      38.9       0.1       3.5
 0 C  dxy             0.1       3.5       0.0       1.3       0.0      27.0
 1 C  s               0.1       0.1       0.3       0.0       0.0       1.9
 1 C  pz              3.3       0.1       2.3       0.1       0.1       0.0
 1 C  px              0.0       0.5       0.1       0.2       0.0       3.7
 1 C  py              0.1       1.2       0.0       0.1       0.2       1.5
 1 C  dz2             0.4      22.1       0.0       4.6       1.9      10.6
 1 C  dxz             1.1       2.0      27.0       0.0      39.6       0.2
 1 C  dyz            40.0       0.0      11.5       0.0       3.3       0.0
 1 C  dx2y2           0.0      12.5       0.0      38.9       0.1       3.5
 1 C  dxy             0.1       3.5       0.0       1.3       0.0      27.0
 2 Cl s               0.8       0.5       1.6       0.1       0.3       0.3
 2 Cl pz              0.3       0.2       0.6       0.2       0.2       0.1
 2 Cl px              0.3       0.2       0.6       0.1       0.1       0.1
 2 Cl py              0.0       0.1       0.0       0.0       0.1       0.0
 2 Cl dz2             0.2       0.0       0.2       0.5       0.4       0.0
 2 Cl dxz             1.2       0.7       2.2       0.1       0.4       0.3
 2 Cl dyz             0.1       0.2       0.1       0.2       0.5       0.0
 2 Cl dx2y2           0.4       0.1       0.4       0.0       0.0       0.1
 2 Cl dxy             0.0       0.1       0.0       0.1       0.2       0.0
 3 Cl s               0.8       0.5       1.6       0.1       0.3       0.3
 3 Cl pz              0.3       0.2       0.6       0.2       0.2       0.1
 3 Cl px              0.3       0.2       0.6       0.1       0.1       0.1
 3 Cl py              0.0       0.1       0.0       0.0       0.1       0.0
 3 Cl dz2             0.2       0.0       0.2       0.5       0.4       0.0
 3 Cl dxz             1.2       0.7       2.2       0.1       0.4       0.3
 3 Cl dyz             0.1       0.2       0.1       0.2       0.5       0.0
 3 Cl dx2y2           0.4       0.1       0.4       0.0       0.0       0.1
 3 Cl dxy             0.0       0.1       0.0       0.1       0.2       0.0
 4 H  s               0.0       4.8       0.0       2.7       0.2       0.3
 5 H  s               1.7       0.9       3.1       0.9       2.2       0.3
 6 H  s               1.7       0.9       3.1       0.9       2.2       0.3
 7 H  s               0.0       4.8       0.0       2.7       0.2       0.3



                      *****************************
                      * MAYER POPULATION ANALYSIS *
                      *****************************

  NA   - Mulliken gross atomic population
  ZA   - Total nuclear charge
  QA   - Mulliken gross atomic charge
  VA   - Mayer's total valence
  BVA  - Mayer's bonded valence
  FA   - Mayer's free valence

  ATOM       NA         ZA         QA         VA         BVA        FA
  0 C      6.1604     6.0000    -0.1604     3.9659     3.9659    -0.0000
  1 C      6.1605     6.0000    -0.1605     3.9659     3.9659     0.0000
  2 Cl    17.1346    17.0000    -0.1346     1.1088     1.1088     0.0000
  3 Cl    17.1346    17.0000    -0.1346     1.1087     1.1087    -0.0000
  4 H      0.8494     1.0000     0.1506     0.9516     0.9516     0.0000
  5 H      0.8555     1.0000     0.1445     0.9419     0.9419    -0.0000
  6 H      0.8555     1.0000     0.1445     0.9419     0.9419    -0.0000
  7 H      0.8494     1.0000     0.1506     0.9516     0.9516     0.0000

  Mayer bond orders larger than 0.100000
B(  0-C ,  1-C ) :   1.0807 B(  0-C ,  3-Cl) :   1.0546 B(  0-C ,  4-H ) :   0.9199 
B(  0-C ,  5-H ) :   0.9154 B(  1-C ,  2-Cl) :   1.0546 B(  1-C ,  6-H ) :   0.9154 
B(  1-C ,  7-H ) :   0.9199 

-------
TIMINGS
-------

Total SCF time: 0 days 0 hours 0 min 0 sec 

Total time                  ....       0.246 sec
Sum of individual times     ....       0.240 sec  ( 97.3%)

SCF preparation             ....       0.022 sec  (  8.8%)
Fock matrix formation       ....       0.201 sec  ( 81.5%)
  Startup                   ....       0.001 sec  (  0.3% of F)
  Split-RI-J                ....       0.066 sec  ( 32.6% of F)
  XC integration            ....       0.133 sec  ( 66.3% of F)
    Basis function eval.    ....       0.065 sec  ( 48.7% of XC)
    Density eval.           ....       0.021 sec  ( 16.1% of XC)
    XC-Functional eval.     ....       0.016 sec  ( 11.8% of XC)
    XC-Potential eval.      ....       0.023 sec  ( 17.1% of XC)
Diagonalization             ....       0.000 sec  (  0.0%)
Density matrix formation    ....       0.001 sec  (  0.3%)
Total Energy calculation    ....       0.000 sec  (  0.0%)
Population analysis         ....       0.014 sec  (  5.6%)
Orbital Transformation      ....       0.001 sec  (  0.3%)
Orbital Orthonormalization  ....       0.000 sec  (  0.0%)
DIIS solution               ....       0.001 sec  (  0.3%)
  MO trafo                  ....       0.000 sec  (  0.0 % of DIIS)
  Orb grad                  ....       0.000 sec  (  0.0 % of DIIS)
  Energy W gradient         ....       0.000 sec  (  0.0 % of DIIS)
  DIIS error                ....       0.000 sec  (  7.0 % of DIIS)
  DIIS work                 ....       0.001 sec  ( 89.4 % of DIIS)
  Form Q                    ....       0.000 sec  (  0.0 % of DIIS)
  Form QpQm                 ....       0.000 sec  (  0.0 % of DIIS)
  Exp/Cayley                ....       0.000 sec  (  0.0 % of DIIS)
  Orb update                ....       0.000 sec  (  0.0 % of DIIS)
  Wake-sleep                ....       0.000 sec  (  3.4 % of DIIS)
SOSCF solution              ....       0.001 sec  (  0.6%)
  MO trafo                  ....       0.001 sec  ( 57.0 % of SOSCF)
  Orb grad                  ....       0.000 sec  (  2.0 % of SOSCF)
  Rot update                ....       0.000 sec  (  6.4 % of SOSCF)
  Step                      ....       0.000 sec  ( 31.9 % of SOSCF)
Finished LeanSCF after   0.2 sec

Maximum memory used throughout the entire LEANSCF-calculation: 7.1 MB


-------------------------------------------------------------------------------
                          DFT DISPERSION CORRECTION                            
                                                                               
                                DFTD4 V3.4.0                                   
-------------------------------------------------------------------------------
The PBE functional is recognized
Active option DFTDOPT                   ...         5   

-------------------------   ----------------
Dispersion correction           -0.006310165
-------------------------   ----------------

------------------   -----------------
gCP correction             0.031705102
------------------   -----------------

-------------------------   --------------------
FINAL SINGLE POINT ENERGY      -998.145908220633
-------------------------   --------------------


------------------------------------------------------------------------------
                              ORCA PROPERTY CALCULATIONS
------------------------------------------------------------------------------

GBWName                                 ... sp.gbw
Number of atoms                         ...      8
Number of basis functions               ...     72
Max core memory                         ...   1024 MB

Electric properties:
Dipole moment                           ... YES
Quadrupole moment                       ...  NO
Static polarizability (Dipole/Dipole)   ...  NO
Static polarizability (Dipole/Quad.)    ...  NO
Static polarizability (Quad./Quad.)     ...  NO
Static polarizability (Velocity)        ...  NO

Atomic electric properties:
Dipole moment                           ...  NO
Quadrupole moment                       ...  NO
Static polarizability                   ...  NO

Choice of electric origin               ... Center of mass
Position of electric origin             ...     0.000000    -0.000000     0.000011

General magnetic properties:
Magnetizability                         ...  NO

EPR properties:
g-Tensor (aka g-matrix)                 ...  NO
Zero-Field splitting spin-orbit         ...  NO
Zero-field splitting spin-spin          ...  NO
Hyperfine couplings                     ...  NO (   0 nuclei)
Quadrupole couplings                    ...  NO (   0 nuclei)
Contact density                         ...  NO (   0 nuclei)

NMR properties:
Chemical shifts                         ...  NO (   0 nuclei)
Spin-rotation constants                 ...  NO (   0 nuclei)
Spin-spin couplings                     ...  NO (   0 nuclei,    0 pairs)

Choice of magnetic origin               ... GIAO
Position of magnetic origin             ...     0.000000     0.000000     0.000000

Properties with geometric perturbations:
SCF Hessian                             ...  NO
IR spectrum                             ...  NO
VCD spectrum                            ...  NO
X-ray spectroscopy properties:
SCF XES/XAS/RIXS spectra                ...  NO


-------------
DIPOLE MOMENT
-------------

Method             : SCF
Type of density    : Electron Density
Multiplicity       :   1
Irrep              :   0
Energy             :  -998.1713031576457524 Eh
Relativity type    : 
Basis              : AO
                                X                 Y                 Z
Electronic contribution:     -0.000029665       0.000386485      -5.314254217
Nuclear contribution   :      0.000092609      -0.000445473       6.288236156
                        -----------------------------------------
Total Dipole Moment    :      0.000062944      -0.000058988       0.973981939
                        -----------------------------------------
Magnitude (a.u.)       :      0.973981943
Magnitude (Debye)      :      2.475665355



--------------------
Rotational spectrum 
--------------------
 
Rotational constants in cm-1:             0.325900             0.076186             0.065840 
Rotational constants in MHz :          9770.221507          2284.011412          1973.844970 

Dipole components along the rotational axes: 
x,y,z [a.u.] :     0.000061    -0.973982     0.000005 
x,y,z [Debye]:     0.000155    -2.475665     0.000013 

 

Dipole moment calculation done in   0.0 sec 

Maximum memory used throughout the entire PROP-calculation: 4.9 MB

--------------------------------
SUGGESTED CITATIONS FOR THIS RUN
--------------------------------

Below you find a list of papers that are relevant to this ORCA run
We neither can nor want to force you to cite these papers, but we appreciate if you do
You receive ORCA, which is the product of decades of hard work by many enthusiastic individuals, for free
The only thing we kindly ask in return is that you cite our papers,
We deeply appreciate it, if you show your appreciation for ORCA by not just citing the generic ORCA reference.

Please note that relegating all ORCA citations to the supporting information does *not* help us.
SI sections are not indexed - citations you put there will not count into any citation statistics
But we need these citations in order to attract the funding resources that allow us to do what we are doing

Therefore, if you are a happy ORCA user, please consider citing a few of the papers listed below in the main body of your paper

In addition to the list printed below, the program has created the file sp.bibtex that contains the list in bibtex format
You can import this file easily into all common literature databanks and citation aid programs


List of essential papers. We consider these as the minimum necessary citations

  1. Neese,F.
     Software update: the ORCA program system, version 5.0
     WIRES Comput. Molec. Sci., 2022 12(1)e1606
     doi.org/10.1002/wcms.1606

List of papers to cite with high priority. The work reported in these papers was absolutely
necessary for this run to complete.
Our perspective: the developers of density functionals and basis sets usually get cited in chemistry papers
Good! But without the algorithms to do something with them, the functionals or basis sets would not do anything.
Hence, in our opinion, the algorithm design and method developments papers are equally worthy of getting cited

  1. Neese,F.
     An improvement of the resolution of the identity approximation for the formation of the Coulomb matrix
     J. Comp. Chem., 2003 24(14)1740-1747
     doi.org/10.1002/jcc.10318
  2. Neese,F.
     The SHARK Integral Generation and Digestion System
     J. Comp. Chem., 2022  1-16
     doi.org/10.1002/jcc.26942
  3. Caldeweyher,E.; Bannwarth,C.; Grimme,S.
     Extension of the D3 dispersion coefficient model
     J. Chem. Phys., 2017 147 034112
     doi.org/10.1063/1.4993215
  4. Caldeweyher,E.; Ehlert,S.; Hansen,A.; Neugebauer,H.; Spicher,S.; Bannwarth,C.; Grimme,S.
     A generally applicable atomic-charge dependent London dispersion correction
     J. Chem. Phys., 2019 150 154122
     doi.org/10.1063/1.5090222
  5. Caldeweyher,E.; Mewes,J.; Ehlert,S.; Grimme,S.
     Extension and evaluation of the D4 London-dispersion model for periodic systems
     Phys. Chem. Chem. Phys., 2020 22(16)8499-8512
     doi.org/10.1039/D0CP00502A
  6. Wittmann,L.; Gordiy,I.; Friede,M.; Helmich-Paris,B.; Grimme,S.; Hansen,A.; Bursch,M.
     Extension of the D3 and D4 London Dispersion Corrections to the full Actinides Series
     Phys. Chem. Chem. Phys., 2024 26(32)21379-21394
     doi.org/https://doi.org/10.1039/D4CP01514B 

List of suggested additional citations. These are papers that are important in the 'surrounding' of 
of this run, or papers that preceded the highly important papers. If you like your results we are grateful for a citation.

  1. Neese,F.
     The ORCA program system
     WIRES Comput. Molec. Sci., 2012 2(1)73-78
     doi.org/10.1002/wcms.81
  2. Neese,F.
     Software update: the ORCA program system, version 4.0
     WIRES Comput. Molec. Sci., 2018 8(1)1-6
     doi.org/10.1002/wcms.1327
  3. Neese,F.; Wennmohs,F.; Becker,U.; Riplinger,C.
     The ORCA quantum chemistry program package
     J. Chem. Phys., 2020 152 Art. No. L224108
     doi.org/10.1063/5.0004608

List of optional additional citations

  1. Neese,F.
     Approximate second-order SCF convergence for spin unrestricted wavefunctions
     Chem. Phys. Lett., 2000 325(1-3)93-98
     doi.org/10.1016/s0009-2614(00)00662-x

Timings for individual modules:

Sum of individual times          ...        0.439 sec (=   0.007 min)
Startup calculation              ...        0.114 sec (=   0.002 min)  26.0 %
SCF iterations                   ...        0.293 sec (=   0.005 min)  66.7 %
Property calculations            ...        0.032 sec (=   0.001 min)   7.3 %
                             ****ORCA TERMINATED NORMALLY****
TOTAL RUN TIME: 0 days 0 hours 0 minutes 0 seconds 502 msec
