      -----------------------------------------------------------      
     |                   =====================                   |     
     |                           x T B                           |     
     |                   =====================                   |     
     |                         S. Grimme                         |     
     |          Mulliken Center for Theoretical Chemistry        |     
     |                    University of Bonn                     |     
      -----------------------------------------------------------      

   * xtb version 6.7.1 (41059b4) compiled by 'michael@archlinux' on 2025-03-24

   xtb is free software: you can redistribute it and/or modify it under
   the terms of the GNU Lesser General Public License as published by
   the Free Software Foundation, either version 3 of the License, or
   (at your option) any later version.
   
   xtb is distributed in the hope that it will be useful,
   but WITHOUT ANY WARRANTY; without even the implied warranty of
   MERCHANTABILITY or FITNESS FOR A PARTICULAR PURPOSE.  See the
   GNU Lesser General Public License for more details.
   
   Cite this work as:
   * C. Bannwarth, E. Caldeweyher, S. Ehlert, A. Hansen, P. Pracht,
     J. Seibert, S. Spicher, S. Grimme, WIREs Comput. Mol. Sci., 2020, 11,
     e01493. DOI: 10.1002/wcms.1493
   
   for GFN2-xTB:
   * C. Bannwarth, S. Ehlert and S. Grimme., J. Chem. Theory Comput., 2019,
     15, 1652-1671. DOI: 10.1021/acs.jctc.8b01176
   for GFN1-xTB:
   * S. Grimme, C. Bannwarth, P. Shushkov, J. Chem. Theory Comput., 2017,
     13, 1989-2009. DOI: 10.1021/acs.jctc.7b00118
   for GFN0-xTB:
   * P. Pracht, E. Caldeweyher, S. Ehlert, S. Grimme, ChemRxiv, 2019, preprint.
     DOI: 10.26434/chemrxiv.8326202.v1
   for GFN-FF:
   * S. Spicher and S. Grimme, Angew. Chem. Int. Ed., 2020, 59, 15665-15673.
     DOI: 10.1002/anie.202004239
   
   for ALPB and GBSA implicit solvation:
   * S. Ehlert, M. Stahn, S. Spicher, S. Grimme, J. Chem. Theory Comput.,
     2021, 17, 4250-4261. DOI: 10.1021/acs.jctc.1c00471
   
   for ddCOSMO and CPCM-X implicit solvation:
   * M. Stahn, S. Ehlert, S. Grimme, J. Phys. Chem. A,
     2023, XX, XXXX-XXXX. DOI: 10.1021/acs.jpca.3c04382
   
   for DFT-D4:
   * E. Caldeweyher, C. Bannwarth and S. Grimme, J. Chem. Phys., 2017,
     147, 034112. DOI: 10.1063/1.4993215
   * E. Caldeweyher, S. Ehlert, A. Hansen, H. Neugebauer, S. Spicher,
     C. Bannwarth and S. Grimme, J. Chem. Phys., 2019, 150, 154122.
     DOI: 10.1063/1.5090222
   * E. Caldeweyher, J.-M. Mewes, S. Ehlert and S. Grimme, Phys. Chem. Chem. Phys.
     2020, 22, 8499-8512. DOI: 10.1039/D0CP00502A
   
   for sTDA-xTB:
   * S. Grimme and C. Bannwarth, J. Chem. Phys., 2016, 145, 054103.
     DOI: 10.1063/1.4959605
   
   in the mass-spec context:
   * V. Asgeirsson, C. Bauer and S. Grimme, Chem. Sci., 2017, 8, 4879.
     DOI: 10.1039/c7sc00601b
   * J. Koopman and S. Grimme, ACS Omega 2019, 4, 12, 15120-15133.
     DOI: 10.1021/acsomega.9b02011
   
   for metadynamics refer to:
   * S. Grimme, J. Chem. Theory Comput., 2019, 155, 2847-2862
     DOI: 10.1021/acs.jctc.9b00143
   
   for SPH calculations refer to:
   * S. Spicher and S. Grimme, J. Chem. Theory Comput., 2021, 17, 1701-1714
     DOI: 10.1021/acs.jctc.0c01306
   
   for ONIOM refer to:
   * C. Plett, A. Katbashev, S. Ehlert, S. Grimme, M. Bursch,
     Phys. Chem. Chem. Phys., 2023, 25, 17860-17868. DOI: 10.1039/D3CP02178E
   
   for DIPRO refer to:
   * J. Kohn, N. Gildemeister, S. Grimme, D. Fazzi, A. Hansen,
     J. Chem. Phys., 2023, just accepted.
   
   for PTB refer to:
   * S. Grimme, M. Mueller, A. Hansen, J. Chem. Phys., 2023, 158, 124111.
     DOI: 10.1063/5.0137838
   
   with help from (in alphabetical order)
   P. Atkinson, C. Bannwarth, F. Bohle, G. Brandenburg, E. Caldeweyher
   M. Checinski, S. Dohm, S. Ehlert, S. Ehrlich, I. Gerasimov, C. Hölzer
   A. Katbashev, J. Kohn, J. Koopman, C. Lavigne, S. Lehtola, F. März, M. Müller,
   F. Musil, H. Neugebauer, J. Pisarek, C. Plett, P. Pracht, F. Pultar,
   J. Seibert, P. Shushkov, S. Spicher, M. Stahn, M. Steiner, T. Strunk,
   J. Stückrath, T. Rose, and J. Unsleber
   
 * started run on 2025/04/09 at 01:16:02.849     
   ID    Z sym.   atoms
    1    6 C      1-5, 8
    2    8 O      6, 7
    3    1 H      9-20

           -------------------------------------------------
          |                Calculation Setup                |
           -------------------------------------------------

          program call               : /usr/bin/xtb xtb_opt.coord --opt normal --orca -I xtb_opt-xcontrol-inp
          coordinate file            : xtb_opt.coord
          omp threads                :                    16

           -------------------------------------------------
          |                   Orca driver                   |
           -------------------------------------------------
orca executable           : /home/michael/Documents/CHEM4561/orca_avx2/orca
orca input file           : xtb_opt.inp
orca input line           : 
orca parallel             : true
orca number of threads    : 16
                         * ORCA takes the control...
  ------------------------------------------------------------------------

                                 *****************
                                 * O   R   C   A *
                                 *****************

                                            #,                                       
                                            ###                                      
                                            ####                                     
                                            #####                                    
                                            ######                                   
                                           ########,                                 
                                     ,,################,,,,,                         
                               ,,#################################,,                 
                          ,,##########################################,,             
                       ,#########################################, ''#####,          
                    ,#############################################,,   '####,        
                  ,##################################################,,,,####,       
                ,###########''''           ''''###############################       
              ,#####''   ,,,,##########,,,,          '''####'''          '####       
            ,##' ,,,,###########################,,,                        '##       
           ' ,,###''''                  '''############,,,                           
         ,,##''                                '''############,,,,        ,,,,,,###''
      ,#''                                            '''#######################'''  
     '                                                          ''''####''''         
             ,#######,   #######,   ,#######,      ##                                
            ,#'     '#,  ##    ##  ,#'     '#,    #''#        ,####,   ,####,        
            ##       ##  ##   ,#'  ##            #'  '#       #'       #'  '#        
            ##       ##  #######   ##           ,######,      #####,   #    #        
            '#,     ,#'  ##    ##  '#,     ,#' ,#      #,     #,   #   #,  ,#        
             '#######'   ##     ##  '#######'  #'      '#     '####' # '####'        



                #########################################################
                #                        -***-                          #
                #          Department of theory and spectroscopy        #
                #                                                       #
                #                      Frank Neese                      #
                #                                                       #
                #     Directorship, Architecture, Infrastructure        #
                #                    SHARK, DRIVERS                     #
                #        Core code/Algorithms in most modules           #
                #                                                       #
                #        Max Planck Institute fuer Kohlenforschung      #
                #                Kaiser Wilhelm Platz 1                 #
                #                 D-45470 Muelheim/Ruhr                 #
                #                      Germany                          #
                #                                                       #
                #                  All rights reserved                  #
                #                        -***-                          #
                #########################################################


                         Program Version 6.0.1  -  RELEASE   -


 With contributions from (in alphabetic order):
[Max-Planck-Institut fuer Kohlenforschung]                               
  Daniel Aravena         : Magnetic Suceptibility                        
  Michael Atanasov       : Ab Initio Ligand Field Theory (pilot matlab implementation)
  Alexander A. Auer      : GIAO ZORA, VPT2 properties, NMR spectrum      
  Ute Becker             : All parallelization in ORCA, NUMFREQ, NUMCALC 
  Giovanni Bistoni       : ED, misc. LED, open-shell LED, HFLD           
  Martin Brehm           : Molecular dynamics                            
  Dmytro Bykov           : pre 5.0 version of the SCF Hessian            
  Marcos Casanova-Páez   : Triplet and SCS-CIS(D). UHF-(DLPNO)-IP/EA/STEOM-CCSD. UHF-CVS-IP/STEOM-CCSD   
  Vijay G. Chilkuri      : MRCI spin determinant printing, contributions to CSF-ICE 
  Pauline Colinet        : FMM embedding                                 
  Dipayan Datta          : RHF DLPNO-CCSD density                        
  Achintya Kumar Dutta   : EOM-CC, STEOM-CC                              
  Nicolas Foglia         : Exact transition moments, OPA infrastructure, MCD improvements    
  Dmitry Ganyushin       : Spin-Orbit,Spin-Spin,Magnetic field MRCI      
  Miquel Garcia-Rates    : C-PCM and meta-GGA Hessian, CCSD/C-PCM, Gaussian charge scheme 
  Tiago L. C. Gouveia    : GS-ROHF, GS-ROCIS                             
  Yang Guo               : DLPNO-NEVPT2, F12-NEVPT2, CIM, IAO-localization        
  Andreas Hansen         : Spin unrestricted coupled pair/coupled cluster methods 
  Ingolf Harden          : AUTO-CI MPn and infrastructure                
  Benjamin Helmich-Paris : MC-RPA, TRAH-(SCF,CASSCF), AVAS, COSX integrals, SCF dyn. polar. 
  Lee Huntington         : MR-EOM, pCC                                   
  Robert Izsak           : Overlap fitted RIJCOSX, COSX-SCS-MP3, EOM     
  Riya Kayal             : Wick's Theorem for AUTO-CI, AUTO-CI UHF-CCSDT 
  Emily Kempfer          : AUTO-CI, RHF CISDT and CCSDT                  
  Christian Kollmar      : KDIIS, OOCD, Brueckner-CCSD(T), CCSD density, CASPT2, CASPT2-K, improved NEVPT2 
  Axel Koslowski         : Symmetry handling                             
  Simone Kossmann        : meta-GGA functionals, TD-DFT gradient, OOMP2, (MP2 Hessian; deprecated post 5.0) 
  Lucas Lang             : DCDCAS                                        
  Marvin Lechner         : AUTO-CI (C++ implementation), FIC-MRCC        
  Spencer Leger          : CASSCF response                               
  Dagmar Lenk            : GEPOL surface, SMD, ORCA-2-JSON               
  Dimitrios Liakos       : Extrapolation schemes; Compound Job, initial MDCI parallelization 
  Dimitrios Manganas     : Further ROCIS development; embedding schemes. LFT, Crystal Embedding 
  Dimitrios Pantazis     : SARC Basis sets                               
  Anastasios Papadopoulos: AUTO-CI, single reference methods and gradients 
  Taras Petrenko         : pre 6.0 DFT Hessian and TD-DFT gradient, (ASA, deprecated), ECA, 1-Electron XAS/XES, NRVS 
  Peter Pinski           : DLPNO-MP2, DLPNO-MP2 Gradient                 
  Christoph Reimann      : Effective Core Potentials                     
  Marius Retegan         : Local ZFS, SOC                                
  Christoph Riplinger    : Optimizer, TS searches, QM/MM, DLPNO-CCSD(T), (RO)-DLPNO pert. Triples 
  Michael Roemelt        : Original ROCIS implementation                 
  Masaaki Saitow         : Open-shell DLPNO-CCSD energy and density      
  Barbara Sandhoefer     : DKH picture change effects                    
  Kantharuban Sivalingam : CASSCF convergence/infrastructure, NEVPT2 and variants, FIC-MRCI 
  Bernardo de Souza      : ESD, SOC TD-DFT                               
  Georgi L. Stoychev     : AutoAux, RI-MP2 NMR, DLPNO-MP2 response, X2C  
  Van Anh Tran           : RI-MP2 g-tensors                              
  Willem Van den Heuvel  : Paramagnetic NMR                              
  Zikuan Wang            : NOTCH, Electric field optimization            
  Frank Wennmohs         : Technical directorship and infrastructure     
  Hang Xu                : AUTO-CI-Response properties                   
                                                                         
[FACCTs GmbH]                                                            
  Markus Bursch, Miquel Garcia-Rates, Christoph Riplinger, Bernardo de Souza, Georgi L. Stoychev 
                                                                 
  APM, Basis sets (HGBS, AHGBS, def-TZVP (Ac-Lr), def2-XVPD (La-Lu)), CI-OPT, improved COSX, DLPNO-Multilevel,           
  DOCKER, DRACO, updates on ESD, GOAT, IRC, LR-CPCM, MBIS, meta-GGA TD-DFT gradient, ML-optimized integration grids, 
  MM, NACMEs, nearIR, NEB, NEB-TS, NL-DFT gradient (VV10), 2- and 3-layer-ONIOM, interface openCOSMO-RS, QMMM,   
  Crystal-QMMM, SF, symmetry and pop. for TD-DFT, r2SCAN hybrids, SOLVATOR                                   
                                                                         
[Other institutions]                                                     
  V. Asgeirsson          : NEB                                           
  Christoph Bannwarth    : sTDA-DFT, sTD-DFT, PBEh-3c, B97-3c, D3        
  Sebastian Ehlert       : rSCAN, r2SCAN, r2SCAN-3c, D4, dhf basis sets  
  Marvin Friede          : D4 for Fr, Ra, Ac-Lr                          
  Lars Goerigk           : TD-DFT with DH, B97 family of functionals     
  Stefan Grimme          : VdW corrections, initial TS optimization, DFT functionals, gCP, sTDA/sTD-DF 
  Waldemar Hujo          : DFT-NL                                        
  H. Jonsson             : NEB                                           
  Holger Kruse           : gCP                                           
  Marcel Mueller         : wB97X-3c, vDZP basis set                      
  Hagen Neugebauer       : wr2SCAN                                       
  Tobias Risthaus        : range-separated hybrid DFT                    
  Lukas Wittmann         : regularized MP2, r2SCAN double-hybrids, wr2SCAN        
                                                                         
We gratefully acknowledge several colleagues who have allowed us to      
interface, adapt or use parts of their codes:                            
  Ed Valeev, F. Pavosevic, A. Kumar             : LibInt (2-el integral package), F12 methods 
  Garnet Chan, S. Sharma, J. Yang, R. Olivares  : DMRG                   
  Ulf Ekstrom                                   : XCFun DFT Library      
  Mihaly Kallay                                 : mrcc  (arbitrary order and MRCC methods)
  Frank Weinhold                                : gennbo (NPA and NBO analysis)           
  Simon Mueller                                 : openCOSMO-RS                            
  Christopher J. Cramer and Donald G. Truhlar   : smd solvation model                     
  S Lehtola, MJT Oliveira, MAL Marques          : LibXC Library                           
  Liviu Ungur et al                             : ANISO software                          


 Your calculation uses the libint2 library for the computation of 2-el integrals
 For citations please refer to: http://libint.valeyev.net

 Your ORCA version has been built with support for libXC version: 6.2.2
 For citations please refer to: https://libxc.gitlab.io

 This ORCA versions uses:
   CBLAS   interface :  Fast vector & matrix operations
   LAPACKE interface :  Fast linear algebra routines
   SCALAPACK package :  Parallel linear algebra routines
   Shared memory     :  Shared parallel matrices
   BLAS/LAPACK       :  OpenBLAS 0.3.27  USE64BITINT DYNAMIC_ARCH NO_AFFINITY Zen SINGLE_THREADED
        Core in use  :  Zen
   Copyright (c) 2011-2014, The OpenBLAS Project




***************************************
The coordinates will be read from file: xtb_opt.xyz
***************************************


Your calculation utilizes the geometrical counterpoise correction gCP
Please cite in your paper:
H.Kruse, S. Grimme J.Chem.Phys., 136, (2012), 154101 
   

Your calculation utilizes the atom-pairwise dispersion correction
based on EEQ partial charges (D4)


================================================================================

----- Orbital basis set information -----
Your calculation utilizes the basis: def2-mTZVPP
   Stefan Grimme, Andreas Hansen, Sebastian Ehlert, and Jan-Michael Mewes 
   J. Chem. Phys. 154, 064103 (2021). DOI: 10.1063/5.0040021

----- AuxJ basis set information -----
Your calculation utilizes the auxiliary basis: def2/J
   F. Weigend, Phys. Chem. Chem. Phys. 8, 1057 (2006).

================================================================================
                                        WARNINGS
                       Please study these warnings very carefully!
================================================================================

WARNING: Old DensityContainer found on disk!
         Will remove this file - 
         If you want to keep old densities, please start your calculation with a different basename. 



WARNING: SCAN, rSCAN, or r2SCAN functional requested.
  ===> : libXC variant has now been activated.



================================================================================
                                       INPUT FILE
================================================================================
NAME = xtb_opt.inp
|  1> ! r2scan-3c def2/J RI DEFGRID2 scfconv7 ENGRAD tightSCF miniprint
|  2> * xyzfile 0 1 xtb_opt.xyz
|  3> 
|  4>                          ****END OF INPUT****
================================================================================

                     *******************************
                     * Energy+Gradient Calculation *
                     *******************************

---------------------------------
CARTESIAN COORDINATES (ANGSTROEM)
---------------------------------
  C     -1.419743   -1.062315    1.110612
  C     -1.012115   -0.080783   -0.004358
  C     -1.475753    1.334735    0.347762
  C     -1.630772   -0.528201   -1.336891
  C      0.505224   -0.198544   -0.137606
  O      1.074591   -1.166343   -0.589067
  O      1.160058    0.886905    0.333163
  C      2.596979    0.801335    0.269769
  H     -2.508071   -1.052679    1.228317
  H     -1.100803   -2.078289    0.863696
  H     -0.970402   -0.777666    2.067867
  H     -2.568935    1.352744    0.402969
  H     -1.160682    2.057500   -0.410342
  H     -1.078220    1.660832    1.311906
  H     -1.348930    0.152472   -2.146729
  H     -1.293492   -1.533066   -1.599482
  H     -2.722119   -0.528646   -1.254300
  H      2.925425    0.646368   -0.761828
  H      2.955145   -0.029097    0.884629
  H      2.962561    1.753859    0.654456

----------------------------
CARTESIAN COORDINATES (A.U.)
----------------------------
  NO LB      ZA    FRAG     MASS         X           Y           Z
   0 C     6.0000    0    12.011   -2.682926   -2.007484    2.098753
   1 C     6.0000    0    12.011   -1.912620   -0.152659   -0.008236
   2 C     6.0000    0    12.011   -2.788770    2.522284    0.657176
   3 C     6.0000    0    12.011   -3.081712   -0.998155   -2.526358
   4 C     6.0000    0    12.011    0.954734   -0.375194   -0.260037
   5 O     8.0000    0    15.999    2.030682   -2.204068   -1.113176
   6 O     8.0000    0    15.999    2.192192    1.676008    0.629587
   7 C     6.0000    0    12.011    4.907580    1.514304    0.509790
   8 H     1.0000    0     1.008   -4.739567   -1.989275    2.321183
   9 H     1.0000    0     1.008   -2.080217   -3.927396    1.632148
  10 H     1.0000    0     1.008   -1.833795   -1.469575    3.907703
  11 H     1.0000    0     1.008   -4.854583    2.556315    0.761501
  12 H     1.0000    0     1.008   -2.193371    3.888112   -0.775435
  13 H     1.0000    0     1.008   -2.037541    3.138518    2.479144
  14 H     1.0000    0     1.008   -2.549108    0.288130   -4.056729
  15 H     1.0000    0     1.008   -2.444345   -2.897075   -3.022582
  16 H     1.0000    0     1.008   -5.144059   -0.998996   -2.370283
  17 H     1.0000    0     1.008    5.528252    1.221458   -1.439647
  18 H     1.0000    0     1.008    5.584414   -0.054985    1.671707
  19 H     1.0000    0     1.008    5.598429    3.314313    1.236742

------------------------------------------------------------------------------
                   ___                                                        
                  /   \      - P O W E R E D   B Y -                         
                 /     \                                                     
                 |  |  |   _    _      __       _____    __    __             
                 |  |  |  | |  | |    /  \     |  _  \  |  |  /  |          
                  \  \/   | |  | |   /    \    | | | |  |  | /  /          
                 / \  \   | |__| |  /  /\  \   | |_| |  |  |/  /          
                |  |  |   |  __  | /  /__\  \  |    /   |      \           
                |  |  |   | |  | | |   __   |  |    \   |  |\   \          
                \     /   | |  | | |  |  |  |  | |\  \  |  | \   \       
                 \___/    |_|  |_| |__|  |__|  |_| \__\ |__|  \__/        
                                                                              
                      - O R C A' S   B I G   F R I E N D -                    
                                      &                                       
                       - I N T E G R A L  F E E D E R -                       
                                                                              
 v1 FN, 2020, v2 2021, v3 2022-2024                                           
------------------------------------------------------------------------------


----------------------
SHARK INTEGRAL PACKAGE
----------------------

Number of atoms                             ...     20
Number of basis functions                   ...    222
Number of shells                            ...    110
Maximum angular momentum                    ...      2
Integral batch strategy                     ... SHARK/LIBINT Hybrid
RI-J (if used) integral strategy            ... SPLIT-RIJ (Revised 2003 algorithm where possible)
Printlevel                                  ...      1
Contraction scheme used                     ... SEGMENTED contraction
Prescreening option                         ... SCHWARTZ
   Thresh                                   ... 3.000e-11
   Tcut                                     ... 1.000e-12
   Tpresel                                  ... 1.000e-12 
Coulomb Range Separation                    ... NOT USED
Exchange Range Separation                   ... NOT USED
Multipole approximations                    ... NOT USED
Finite Nucleus Model                        ... NOT USED
CABS basis                                  ... NOT available
Auxiliary Coulomb fitting basis             ... AVAILABLE
   # of basis functions in Aux-J            ...    524
   # of shells in Aux-J                     ...    180
   Maximum angular momentum in Aux-J        ...      4
Auxiliary J/K fitting basis                 ... NOT available
Auxiliary Correlation fitting basis         ... NOT available
Auxiliary 'external' fitting basis          ... NOT available

Checking pre-screening integrals            ... done (  0.0 sec) Dimension = 110
Check shell pair data                       ... done (  0.0 sec)
Shell pair information
Shell pair cut-off parameter TPreSel        ...   1.0e-12
Total number of shell pairs                 ...      6105
Shell pairs after pre-screening             ...      5595
Total number of primitive shell pairs       ...     21533
Primitive shell pairs kept                  ...     14154
          la=0 lb=0:   1865 shell pairs
          la=1 lb=0:   2114 shell pairs
          la=1 lb=1:    613 shell pairs
          la=2 lb=0:    604 shell pairs
          la=2 lb=1:    344 shell pairs
          la=2 lb=2:     55 shell pairs

Calculating one electron integrals          ... done (  0.0 sec)
Calculating RI/J V-Matrix + Cholesky decomp.... done (  0.0 sec)
Calculating Nuclear repulsion               ... done (  0.0 sec) ENN=    410.785282907804 Eh

Diagonalization of the overlap matrix:
Smallest eigenvalue                        ... 1.330e-04
Time for diagonalization                   ...    0.004 sec
Threshold for overlap eigenvalues          ... 1.000e-07
Number of eigenvalues below threshold      ... 0
Time for construction of square roots      ...    0.001 sec
Total time needed                          ...    0.006 sec

-------------------
DFT GRID GENERATION
-------------------

General Integration Accuracy     IntAcc      ... 4.388
Radial Grid Type                 RadialGrid  ... OptM3 with GC (2021)
Angular Grid (max. ang.)         AngularGrid ... 4 (Lebedev-302)
Angular grid pruning method      GridPruning ... 4 (adaptive)
Weight generation scheme         WeightScheme... mBecke (2022)
Basis function cutoff            BFCut       ... 1.0000e-11
Integration weight cutoff        WCut        ... 1.0000e-14
Partially contracted basis set               ... off
Rotationally invariant grid construction     ... off
Angular grids for H and He will be reduced by one unit
Diffuse basis detected: some atoms will have their outermost
                        angular grid increased by 1.

Total number of grid points                  ...    87172
Total number of batches                      ...     1372
Average number of points per batch           ...       63
Average number of grid points per atom       ...     4359
Initializing property integral containers    ... done (  0.0 sec)

SHARK setup successfully completed in   0.7 seconds

Maximum memory used throughout the entire STARTUP-calculation: 40.8 MB
Occupation numbers will be reassigned to an Aufbau configuration
             **** ENERGY FILE WAS UPDATED (xtb_opt.en.tmp) ****
Finished Guess after   0.1 sec
Maximum memory used throughout the entire GUESS-calculation: 16.5 MB
----------------------------------------D-I-I-S--------------------------------------------
Iteration    Energy (Eh)           Delta-E    RMSDP     MaxDP     DIISErr   Damp  Time(sec)
-------------------------------------------------------------------------------------------
               ***  Starting incremental Fock matrix formation  ***
                              *** Initializing SOSCF ***
---------------------------------------S-O-S-C-F--------------------------------------
Iteration    Energy (Eh)           Delta-E    RMSDP     MaxDP     MaxGrad    Time(sec)
--------------------------------------------------------------------------------------
    1    -386.2422181862609705     0.00e+00  3.67e-06  1.27e-04  2.06e-05     1.7
               *** Restarting incremental Fock matrix formation ***
    2    -386.2422181494565621     3.68e-08  7.22e-06  2.59e-04  5.91e-05     1.6
    3    -386.2422177504298588     3.99e-07  5.49e-06  1.91e-04  1.89e-04     1.3
    4    -386.2422182280888592    -4.78e-07  2.59e-06  9.25e-05  2.40e-05     1.2
                  *** Gradient check signals convergence ***

               *****************************************************
               *                     SUCCESS                       *
               *           SCF CONVERGED AFTER   4 CYCLES          *
               *****************************************************

             **** ENERGY FILE WAS UPDATED (xtb_opt.en.tmp) ****

----------------
TOTAL SCF ENERGY
----------------

Total Energy       :       -386.24221822808886 Eh          -10510.18509 eV

Components:
Nuclear Repulsion  :        410.78528290780434 Eh           11178.03583 eV
Electronic Energy  :       -797.02750113589320 Eh          -21688.22091 eV
One Electron Energy:      -1338.78126226465474 Eh          -36430.09022 eV
Two Electron Energy:        541.75376112876154 Eh           14741.86930 eV

Virial components:
Potential Energy   :       -770.71382215050801 Eh          -20972.18931 eV
Kinetic Energy     :        384.47160392241915 Eh           10462.00422 eV
Virial Ratio       :          2.00460531880015

DFT components:
N(Alpha)           :       31.999991579303 electrons
N(Beta)            :       31.999991579303 electrons
N(Total)           :       63.999983158607 electrons
E(X)               :      -52.032033313038 Eh       
E(C)               :       -2.038460430520 Eh       
E(XC)              :      -54.070493743558 Eh       

---------------
SCF CONVERGENCE
---------------

  Last Energy change         ...    4.7766e-07  Tolerance :   1.0000e-07
  Last MAX-Density change    ...    9.2456e-05  Tolerance :   1.0000e-07
  Last RMS-Density change    ...    2.5871e-06  Tolerance :   5.0000e-09
  Last DIIS Error            ...    1.5993e-04  Tolerance :   1.0000e-07
  Last Orbital Gradient      ...    2.4013e-05  Tolerance :   1.0000e-04
  Last Orbital Rotation      ...    7.5255e-05  Tolerance :   1.0000e-04


----------------
ORBITAL ENERGIES
----------------

  NO   OCC          E(Eh)            E(eV) 
   0   2.0000     -18.999737      -517.0091 
   1   2.0000     -18.932771      -515.1869 
   2   2.0000     -10.151451      -276.2350 
   3   2.0000     -10.086701      -274.4731 
   4   2.0000     -10.061196      -273.7790 
   5   2.0000     -10.028155      -272.8800 
   6   2.0000     -10.023335      -272.7488 
   7   2.0000     -10.023013      -272.7400 
   8   2.0000      -1.066669       -29.0256 
   9   2.0000      -0.977951       -26.6114 
  10   2.0000      -0.792621       -21.5683 
  11   2.0000      -0.694131       -18.8883 
  12   2.0000      -0.657957       -17.9039 
  13   2.0000      -0.653812       -17.7911 
  14   2.0000      -0.579597       -15.7716 
  15   2.0000      -0.515510       -14.0277 
  16   2.0000      -0.461819       -12.5667 
  17   2.0000      -0.450840       -12.2680 
  18   2.0000      -0.438555       -11.9337 
  19   2.0000      -0.408552       -11.1173 
  20   2.0000      -0.405144       -11.0245 
  21   2.0000      -0.403688       -10.9849 
  22   2.0000      -0.375654       -10.2221 
  23   2.0000      -0.357096        -9.7171 
  24   2.0000      -0.342669        -9.3245 
  25   2.0000      -0.340785        -9.2732 
  26   2.0000      -0.335679        -9.1343 
  27   2.0000      -0.316278        -8.6064 
  28   2.0000      -0.305009        -8.2997 
  29   2.0000      -0.304457        -8.2847 
  30   2.0000      -0.274639        -7.4733 
  31   2.0000      -0.236777        -6.4430 
  32   0.0000      -0.018523        -0.5040 
  33   0.0000       0.055249         1.5034 
  34   0.0000       0.089499         2.4354 
  35   0.0000       0.104042         2.8311 
  36   0.0000       0.128779         3.5043 
  37   0.0000       0.131191         3.5699 
  38   0.0000       0.137720         3.7475 
  39   0.0000       0.139844         3.8054 
  40   0.0000       0.141051         3.8382 
  41   0.0000       0.151169         4.1135 
  42   0.0000       0.161791         4.4026 
*Only the first 10 virtual orbitals were printed.
Total SCF time: 0 days 0 hours 0 min 5 sec 
Finished LeanSCF after   5.9 sec

Maximum memory used throughout the entire LEANSCF-calculation: 26.0 MB


-------------------------------------------------------------------------------
                          DFT DISPERSION CORRECTION                            
                                                                               
                                DFTD4 V3.4.0                                   
-------------------------------------------------------------------------------
-------------------------   ----------------
Dispersion correction           -0.005634185
-------------------------   ----------------

------------------   -----------------
gCP correction             0.012342038
------------------   -----------------

-------------------------   --------------------
FINAL SINGLE POINT ENERGY      -386.235510374928
-------------------------   --------------------

------------------------------------------------------------------------------
                         ORCA SCF GRADIENT CALCULATION
------------------------------------------------------------------------------

Nuc. rep. gradient        (SHARK) ... done (  0.0 sec)
HCore & Overlap gradient  (SHARK) ... done (  0.3 sec)
Split-RIJ-J gradient      (SHARK) ... done (  1.3 sec)
XC gradient                       ... done (  5.5 sec)
Dispersion correction             ... done (  0.0 sec)

-------------------
DISPERSION GRADIENT
-------------------

   1   C   :   -0.000052979   -0.000052489    0.000054214
   2   C   :   -0.000043485   -0.000007650   -0.000002027
   3   C   :   -0.000065306    0.000069380    0.000017204
   4   C   :   -0.000058723   -0.000024921   -0.000065529
   5   C   :    0.000046718   -0.000008251   -0.000006244
   6   O   :    0.000069550   -0.000062351   -0.000032955
   7   O   :    0.000079257    0.000039211    0.000012591
   8   C   :    0.000110792    0.000020337    0.000004086
   9   H   :   -0.000027581   -0.000020294    0.000025413
  10   H   :   -0.000012769   -0.000036912    0.000019409
  11   H   :   -0.000017664   -0.000021064    0.000040950
  12   H   :   -0.000030335    0.000029657    0.000007509
  13   H   :   -0.000021631    0.000042774   -0.000003875
  14   H   :   -0.000020446    0.000036075    0.000021877
  15   H   :   -0.000020914   -0.000001679   -0.000043196
  16   H   :   -0.000013591   -0.000023767   -0.000031590
  17   H   :   -0.000030777   -0.000008421   -0.000026829
  18   H   :    0.000036433    0.000008270   -0.000000272
  19   H   :    0.000038139    0.000007123    0.000003929
  20   H   :    0.000035312    0.000014974    0.000005335

Difference to translation invariance:
           :    0.0000000000    0.0000000000   -0.0000000000

Difference to rotation invariance:
           :    0.0000000000   -0.0000000000   -0.0000000000

Norm of the Dispersion gradient    ...    0.0002893158
RMS gradient                       ...    0.0000373505
MAX gradient                       ...    0.0001107923
gCP correction                   ... done

------------------
CARTESIAN GRADIENT
------------------

   1   C   :   -0.000112644    0.000075626   -0.000261623
   2   C   :    0.000079529    0.000085869    0.000045993
   3   C   :   -0.000376903   -0.000232497   -0.000045424
   4   C   :   -0.000108804    0.000030282    0.000032059
   5   C   :    0.000302626   -0.000187857    0.000485903
   6   O   :   -0.000162820    0.000300802   -0.000102824
   7   O   :    0.000748027   -0.000604843   -0.000367633
   8   C   :   -0.001320980    0.000215622    0.000238983
   9   H   :    0.000102637   -0.000010366    0.000099752
  10   H   :    0.000062506    0.000103727   -0.000037031
  11   H   :    0.000113021    0.000039670   -0.000008266
  12   H   :    0.000192838    0.000115779    0.000021870
  13   H   :    0.000106561    0.000035228   -0.000046401
  14   H   :    0.000119438   -0.000011652    0.000065975
  15   H   :    0.000115152   -0.000013318    0.000062903
  16   H   :    0.000085710    0.000106280    0.000131263
  17   H   :    0.000072430   -0.000006870   -0.000095563
  18   H   :    0.000111630   -0.000172505   -0.000387837
  19   H   :   -0.000073215   -0.000171144    0.000118077
  20   H   :   -0.000056741    0.000302168    0.000049822

Difference to translation invariance:
           :    0.0000000000   -0.0000000000    0.0000000000

Difference to rotation invariance:
           :   -0.0001674788    0.0000322032   -0.0001133578

Norm of the Cartesian gradient     ...    0.0020629689
RMS gradient                       ...    0.0002663281
MAX gradient                       ...    0.0013209802

-------
TIMINGS
-------

Total SCF gradient time     ....        7.124 sec

Densities                   ....       0.000 sec  (  0.0%)
One electron gradient       ....       0.275 sec  (  3.9%)
RI-J Coulomb gradient       ....       1.280 sec  ( 18.0%)
XC gradient                 ....       5.544 sec  ( 77.8%)

Maximum memory used throughout the entire SCFGRAD-calculation: 36.7 MB

------------------------------------------------------------------------------
                              ORCA PROPERTY CALCULATIONS
------------------------------------------------------------------------------

GBWName                                 ... xtb_opt.gbw
Number of atoms                         ...     20
Number of basis functions               ...    222
Max core memory                         ...   1024 MB

Electric properties:
Dipole moment                           ... YES
Quadrupole moment                       ...  NO
Static polarizability (Dipole/Dipole)   ...  NO
Static polarizability (Dipole/Quad.)    ...  NO
Static polarizability (Quad./Quad.)     ...  NO
Static polarizability (Velocity)        ...  NO

Atomic electric properties:
Dipole moment                           ...  NO
Quadrupole moment                       ...  NO
Static polarizability                   ...  NO

Choice of electric origin               ... Center of mass
Position of electric origin             ...     0.008710     0.005926     0.002458

General magnetic properties:
Magnetizability                         ...  NO

EPR properties:
g-Tensor (aka g-matrix)                 ...  NO
Zero-Field splitting spin-orbit         ...  NO
Zero-field splitting spin-spin          ...  NO
Hyperfine couplings                     ...  NO (   0 nuclei)
Quadrupole couplings                    ...  NO (   0 nuclei)
Contact density                         ...  NO (   0 nuclei)

NMR properties:
Chemical shifts                         ...  NO (   0 nuclei)
Spin-rotation constants                 ...  NO (   0 nuclei)
Spin-spin couplings                     ...  NO (   0 nuclei,    0 pairs)

Choice of magnetic origin               ... GIAO
Position of magnetic origin             ...     0.000000     0.000000     0.000000

Properties with geometric perturbations:
SCF Hessian                             ...  NO
IR spectrum                             ...  NO
VCD spectrum                            ...  NO
X-ray spectroscopy properties:
SCF XES/XAS/RIXS spectra                ...  NO


-------------
DIPOLE MOMENT
-------------

Method             : SCF
Type of density    : Electron Density
Multiplicity       :   1
Irrep              :   0
Energy             :  -386.2422182280888592 Eh
Relativity type    : 
Basis              : AO
                                X                 Y                 Z
Electronic contribution:      5.472515531      -0.902151946      -0.838517807
Nuclear contribution   :     -5.562214988       1.484381224       1.145960631
                        -----------------------------------------
Total Dipole Moment    :     -0.089699457       0.582229279       0.307442825
                        -----------------------------------------
Magnitude (a.u.)       :      0.664498319
Magnitude (Debye)      :      1.689020498



--------------------
Rotational spectrum 
--------------------
 
Rotational constants in cm-1:             0.105129             0.049897             0.043885 
Rotational constants in MHz :          3151.683203          1495.879931          1315.650412 

Dipole components along the rotational axes: 
x,y,z [a.u.] :     0.040521     0.662248     0.036647 
x,y,z [Debye]:     0.102997     1.683302     0.093150 

 

Dipole moment calculation done in   0.0 sec 

Maximum memory used throughout the entire PROP-calculation: 15.3 MB

--------------------------------
SUGGESTED CITATIONS FOR THIS RUN
--------------------------------

Below you find a list of papers that are relevant to this ORCA run
We neither can nor want to force you to cite these papers, but we appreciate if you do
You receive ORCA, which is the product of decades of hard work by many enthusiastic individuals, for free
The only thing we kindly ask in return is that you cite our papers,
We deeply appreciate it, if you show your appreciation for ORCA by not just citing the generic ORCA reference.

Please note that relegating all ORCA citations to the supporting information does *not* help us.
SI sections are not indexed - citations you put there will not count into any citation statistics
But we need these citations in order to attract the funding resources that allow us to do what we are doing

Therefore, if you are a happy ORCA user, please consider citing a few of the papers listed below in the main body of your paper

In addition to the list printed below, the program has created the file xtb_opt.bibtex that contains the list in bibtex format
You can import this file easily into all common literature databanks and citation aid programs


List of essential papers. We consider these as the minimum necessary citations

  1. Neese,F.
     Software update: the ORCA program system, version 5.0
     WIRES Comput. Molec. Sci., 2022 12(1)e1606
     doi.org/10.1002/wcms.1606
  2. Grimme,S.; Hansen,A.; Ehlert,S.; Mewes,J.
     r2SCAN-3c: A 'Swiss army knife' composite electronic-structure method
     J. Chem. Phys., 2021 154 064103
     doi.org/10.1063/5.0040021

List of papers to cite with high priority. The work reported in these papers was absolutely
necessary for this run to complete.
Our perspective: the developers of density functionals and basis sets usually get cited in chemistry papers
Good! But without the algorithms to do something with them, the functionals or basis sets would not do anything.
Hence, in our opinion, the algorithm design and method developments papers are equally worthy of getting cited

  1. Neese,F.
     An improvement of the resolution of the identity approximation for the formation of the Coulomb matrix
     J. Comp. Chem., 2003 24(14)1740-1747
     doi.org/10.1002/jcc.10318
  2. Neese,F.
     The SHARK Integral Generation and Digestion System
     J. Comp. Chem., 2022  1-16
     doi.org/10.1002/jcc.26942
  3. Lehtola,S.; Steigemann,C.; Oliveira,M.; Marques,M.
     Recent developments in Libxc - A comprehensive library of functionals for density functional theory
     Software X, 2018 7 
     doi.org/10.1016/j.softx.2017.11.002
  4. Caldeweyher,E.; Bannwarth,C.; Grimme,S.
     Extension of the D3 dispersion coefficient model
     J. Chem. Phys., 2017 147 034112
     doi.org/10.1063/1.4993215
  5. Caldeweyher,E.; Ehlert,S.; Hansen,A.; Neugebauer,H.; Spicher,S.; Bannwarth,C.; Grimme,S.
     A generally applicable atomic-charge dependent London dispersion correction
     J. Chem. Phys., 2019 150 154122
     doi.org/10.1063/1.5090222
  6. Caldeweyher,E.; Mewes,J.; Ehlert,S.; Grimme,S.
     Extension and evaluation of the D4 London-dispersion model for periodic systems
     Phys. Chem. Chem. Phys., 2020 22(16)8499-8512
     doi.org/10.1039/D0CP00502A
  7. Wittmann,L.; Gordiy,I.; Friede,M.; Helmich-Paris,B.; Grimme,S.; Hansen,A.; Bursch,M.
     Extension of the D3 and D4 London Dispersion Corrections to the full Actinides Series
     Phys. Chem. Chem. Phys., 2024 26(32)21379-21394
     doi.org/https://doi.org/10.1039/D4CP01514B 

List of suggested additional citations. These are papers that are important in the 'surrounding' of 
of this run, or papers that preceded the highly important papers. If you like your results we are grateful for a citation.

  1. Neese,F.
     The ORCA program system
     WIRES Comput. Molec. Sci., 2012 2(1)73-78
     doi.org/10.1002/wcms.81
  2. Neese,F.
     Software update: the ORCA program system, version 4.0
     WIRES Comput. Molec. Sci., 2018 8(1)1-6
     doi.org/10.1002/wcms.1327
  3. Neese,F.; Wennmohs,F.; Becker,U.; Riplinger,C.
     The ORCA quantum chemistry program package
     J. Chem. Phys., 2020 152 Art. No. L224108
     doi.org/10.1063/5.0004608

List of optional additional citations

  1. Neese,F.
     Approximate second-order SCF convergence for spin unrestricted wavefunctions
     Chem. Phys. Lett., 2000 325(1-3)93-98
     doi.org/10.1016/s0009-2614(00)00662-x

Timings for individual modules:

Sum of individual times          ...       13.931 sec (=   0.232 min)
Startup calculation              ...        0.672 sec (=   0.011 min)   4.8 %
SCF iterations                   ...        6.033 sec (=   0.101 min)  43.3 %
Property calculations            ...        0.049 sec (=   0.001 min)   0.4 %
SCF Gradient evaluation          ...        7.177 sec (=   0.120 min)  51.5 %
                             ****ORCA TERMINATED NORMALLY****
TOTAL RUN TIME: 0 days 0 hours 0 minutes 14 seconds 18 msec
  ------------------------------------------------------------------------
          * successful ORCA run, taking over control again...

         :::::::::::::::::::::::::::::::::::::::::::::::::::::
         ::                  ORCA SUMMARY                   ::
         :::::::::::::::::::::::::::::::::::::::::::::::::::::
         :: total energy            -386.235510374928 Eh    ::
         :: gradient norm              0.002062968885 Eh/a0 ::
         :: HOMO-LUMO gap              0.000000000000 eV    ::
         :::::::::::::::::::::::::::::::::::::::::::::::::::::

      ----------------------------------------------------------- 
     |                       L-ANC optimizer                     |
      ----------------------------------------------------------- 
          low memory version by Sebastian Ehlert

          ...................................................
          :                      SETUP                      :
          :.................................................:
          :   energy convergence        0.5000000E-05 Eh    :
          :   grad. convergence         0.1000000E-02 Eh/a0 :
          :   optimization log               true           :
          :   writing optlog all                1     steps :
          :   Hessian reset                     8     steps :
          :   maximium step len.        1.0000000     a0    :
          :   LBFGS images                      8           :
          ...................................................
 * calculating model hessian...
Using Lindh-Hessian (1995)
 Shifting diagonal of input Hessian by    1.0000000000000000E-002
 Lowest  eigenvalues of input Hessian
    0.000000    0.000000    0.000000    0.000000    0.000000    0.000000
    0.011731    0.014607    0.014671    0.019344    0.019722    0.020105
    0.021171    0.021462    0.023356    0.028089    0.032541    0.037273
 Highest eigenvalues
    1.162709    1.216920    1.245635    1.276267    1.711229    2.287038


........................................................................
.............................. CYCLE    1 ..............................
........................................................................
                         * ORCA takes the control...
  ------------------------------------------------------------------------

                                 *****************
                                 * O   R   C   A *
                                 *****************

                                            #,                                       
                                            ###                                      
                                            ####                                     
                                            #####                                    
                                            ######                                   
                                           ########,                                 
                                     ,,################,,,,,                         
                               ,,#################################,,                 
                          ,,##########################################,,             
                       ,#########################################, ''#####,          
                    ,#############################################,,   '####,        
                  ,##################################################,,,,####,       
                ,###########''''           ''''###############################       
              ,#####''   ,,,,##########,,,,          '''####'''          '####       
            ,##' ,,,,###########################,,,                        '##       
           ' ,,###''''                  '''############,,,                           
         ,,##''                                '''############,,,,        ,,,,,,###''
      ,#''                                            '''#######################'''  
     '                                                          ''''####''''         
             ,#######,   #######,   ,#######,      ##                                
            ,#'     '#,  ##    ##  ,#'     '#,    #''#        ,####,   ,####,        
            ##       ##  ##   ,#'  ##            #'  '#       #'       #'  '#        
            ##       ##  #######   ##           ,######,      #####,   #    #        
            '#,     ,#'  ##    ##  '#,     ,#' ,#      #,     #,   #   #,  ,#        
             '#######'   ##     ##  '#######'  #'      '#     '####' # '####'        



                #########################################################
                #                        -***-                          #
                #          Department of theory and spectroscopy        #
                #                                                       #
                #                      Frank Neese                      #
                #                                                       #
                #     Directorship, Architecture, Infrastructure        #
                #                    SHARK, DRIVERS                     #
                #        Core code/Algorithms in most modules           #
                #                                                       #
                #        Max Planck Institute fuer Kohlenforschung      #
                #                Kaiser Wilhelm Platz 1                 #
                #                 D-45470 Muelheim/Ruhr                 #
                #                      Germany                          #
                #                                                       #
                #                  All rights reserved                  #
                #                        -***-                          #
                #########################################################


                         Program Version 6.0.1  -  RELEASE   -


 With contributions from (in alphabetic order):
[Max-Planck-Institut fuer Kohlenforschung]                               
  Daniel Aravena         : Magnetic Suceptibility                        
  Michael Atanasov       : Ab Initio Ligand Field Theory (pilot matlab implementation)
  Alexander A. Auer      : GIAO ZORA, VPT2 properties, NMR spectrum      
  Ute Becker             : All parallelization in ORCA, NUMFREQ, NUMCALC 
  Giovanni Bistoni       : ED, misc. LED, open-shell LED, HFLD           
  Martin Brehm           : Molecular dynamics                            
  Dmytro Bykov           : pre 5.0 version of the SCF Hessian            
  Marcos Casanova-Páez   : Triplet and SCS-CIS(D). UHF-(DLPNO)-IP/EA/STEOM-CCSD. UHF-CVS-IP/STEOM-CCSD   
  Vijay G. Chilkuri      : MRCI spin determinant printing, contributions to CSF-ICE 
  Pauline Colinet        : FMM embedding                                 
  Dipayan Datta          : RHF DLPNO-CCSD density                        
  Achintya Kumar Dutta   : EOM-CC, STEOM-CC                              
  Nicolas Foglia         : Exact transition moments, OPA infrastructure, MCD improvements    
  Dmitry Ganyushin       : Spin-Orbit,Spin-Spin,Magnetic field MRCI      
  Miquel Garcia-Rates    : C-PCM and meta-GGA Hessian, CCSD/C-PCM, Gaussian charge scheme 
  Tiago L. C. Gouveia    : GS-ROHF, GS-ROCIS                             
  Yang Guo               : DLPNO-NEVPT2, F12-NEVPT2, CIM, IAO-localization        
  Andreas Hansen         : Spin unrestricted coupled pair/coupled cluster methods 
  Ingolf Harden          : AUTO-CI MPn and infrastructure                
  Benjamin Helmich-Paris : MC-RPA, TRAH-(SCF,CASSCF), AVAS, COSX integrals, SCF dyn. polar. 
  Lee Huntington         : MR-EOM, pCC                                   
  Robert Izsak           : Overlap fitted RIJCOSX, COSX-SCS-MP3, EOM     
  Riya Kayal             : Wick's Theorem for AUTO-CI, AUTO-CI UHF-CCSDT 
  Emily Kempfer          : AUTO-CI, RHF CISDT and CCSDT                  
  Christian Kollmar      : KDIIS, OOCD, Brueckner-CCSD(T), CCSD density, CASPT2, CASPT2-K, improved NEVPT2 
  Axel Koslowski         : Symmetry handling                             
  Simone Kossmann        : meta-GGA functionals, TD-DFT gradient, OOMP2, (MP2 Hessian; deprecated post 5.0) 
  Lucas Lang             : DCDCAS                                        
  Marvin Lechner         : AUTO-CI (C++ implementation), FIC-MRCC        
  Spencer Leger          : CASSCF response                               
  Dagmar Lenk            : GEPOL surface, SMD, ORCA-2-JSON               
  Dimitrios Liakos       : Extrapolation schemes; Compound Job, initial MDCI parallelization 
  Dimitrios Manganas     : Further ROCIS development; embedding schemes. LFT, Crystal Embedding 
  Dimitrios Pantazis     : SARC Basis sets                               
  Anastasios Papadopoulos: AUTO-CI, single reference methods and gradients 
  Taras Petrenko         : pre 6.0 DFT Hessian and TD-DFT gradient, (ASA, deprecated), ECA, 1-Electron XAS/XES, NRVS 
  Peter Pinski           : DLPNO-MP2, DLPNO-MP2 Gradient                 
  Christoph Reimann      : Effective Core Potentials                     
  Marius Retegan         : Local ZFS, SOC                                
  Christoph Riplinger    : Optimizer, TS searches, QM/MM, DLPNO-CCSD(T), (RO)-DLPNO pert. Triples 
  Michael Roemelt        : Original ROCIS implementation                 
  Masaaki Saitow         : Open-shell DLPNO-CCSD energy and density      
  Barbara Sandhoefer     : DKH picture change effects                    
  Kantharuban Sivalingam : CASSCF convergence/infrastructure, NEVPT2 and variants, FIC-MRCI 
  Bernardo de Souza      : ESD, SOC TD-DFT                               
  Georgi L. Stoychev     : AutoAux, RI-MP2 NMR, DLPNO-MP2 response, X2C  
  Van Anh Tran           : RI-MP2 g-tensors                              
  Willem Van den Heuvel  : Paramagnetic NMR                              
  Zikuan Wang            : NOTCH, Electric field optimization            
  Frank Wennmohs         : Technical directorship and infrastructure     
  Hang Xu                : AUTO-CI-Response properties                   
                                                                         
[FACCTs GmbH]                                                            
  Markus Bursch, Miquel Garcia-Rates, Christoph Riplinger, Bernardo de Souza, Georgi L. Stoychev 
                                                                 
  APM, Basis sets (HGBS, AHGBS, def-TZVP (Ac-Lr), def2-XVPD (La-Lu)), CI-OPT, improved COSX, DLPNO-Multilevel,           
  DOCKER, DRACO, updates on ESD, GOAT, IRC, LR-CPCM, MBIS, meta-GGA TD-DFT gradient, ML-optimized integration grids, 
  MM, NACMEs, nearIR, NEB, NEB-TS, NL-DFT gradient (VV10), 2- and 3-layer-ONIOM, interface openCOSMO-RS, QMMM,   
  Crystal-QMMM, SF, symmetry and pop. for TD-DFT, r2SCAN hybrids, SOLVATOR                                   
                                                                         
[Other institutions]                                                     
  V. Asgeirsson          : NEB                                           
  Christoph Bannwarth    : sTDA-DFT, sTD-DFT, PBEh-3c, B97-3c, D3        
  Sebastian Ehlert       : rSCAN, r2SCAN, r2SCAN-3c, D4, dhf basis sets  
  Marvin Friede          : D4 for Fr, Ra, Ac-Lr                          
  Lars Goerigk           : TD-DFT with DH, B97 family of functionals     
  Stefan Grimme          : VdW corrections, initial TS optimization, DFT functionals, gCP, sTDA/sTD-DF 
  Waldemar Hujo          : DFT-NL                                        
  H. Jonsson             : NEB                                           
  Holger Kruse           : gCP                                           
  Marcel Mueller         : wB97X-3c, vDZP basis set                      
  Hagen Neugebauer       : wr2SCAN                                       
  Tobias Risthaus        : range-separated hybrid DFT                    
  Lukas Wittmann         : regularized MP2, r2SCAN double-hybrids, wr2SCAN        
                                                                         
We gratefully acknowledge several colleagues who have allowed us to      
interface, adapt or use parts of their codes:                            
  Ed Valeev, F. Pavosevic, A. Kumar             : LibInt (2-el integral package), F12 methods 
  Garnet Chan, S. Sharma, J. Yang, R. Olivares  : DMRG                   
  Ulf Ekstrom                                   : XCFun DFT Library      
  Mihaly Kallay                                 : mrcc  (arbitrary order and MRCC methods)
  Frank Weinhold                                : gennbo (NPA and NBO analysis)           
  Simon Mueller                                 : openCOSMO-RS                            
  Christopher J. Cramer and Donald G. Truhlar   : smd solvation model                     
  S Lehtola, MJT Oliveira, MAL Marques          : LibXC Library                           
  Liviu Ungur et al                             : ANISO software                          


 Your calculation uses the libint2 library for the computation of 2-el integrals
 For citations please refer to: http://libint.valeyev.net

 Your ORCA version has been built with support for libXC version: 6.2.2
 For citations please refer to: https://libxc.gitlab.io

 This ORCA versions uses:
   CBLAS   interface :  Fast vector & matrix operations
   LAPACKE interface :  Fast linear algebra routines
   SCALAPACK package :  Parallel linear algebra routines
   Shared memory     :  Shared parallel matrices
   BLAS/LAPACK       :  OpenBLAS 0.3.27  USE64BITINT DYNAMIC_ARCH NO_AFFINITY Zen SINGLE_THREADED
        Core in use  :  Zen
   Copyright (c) 2011-2014, The OpenBLAS Project




***************************************
The coordinates will be read from file: xtb_opt.xyz
***************************************


Your calculation utilizes the geometrical counterpoise correction gCP
Please cite in your paper:
H.Kruse, S. Grimme J.Chem.Phys., 136, (2012), 154101 
   

Your calculation utilizes the atom-pairwise dispersion correction
based on EEQ partial charges (D4)


================================================================================

----- Orbital basis set information -----
Your calculation utilizes the basis: def2-mTZVPP
   Stefan Grimme, Andreas Hansen, Sebastian Ehlert, and Jan-Michael Mewes 
   J. Chem. Phys. 154, 064103 (2021). DOI: 10.1063/5.0040021

----- AuxJ basis set information -----
Your calculation utilizes the auxiliary basis: def2/J
   F. Weigend, Phys. Chem. Chem. Phys. 8, 1057 (2006).

================================================================================
                                        WARNINGS
                       Please study these warnings very carefully!
================================================================================

WARNING: Old DensityContainer found on disk!
         Will remove this file - 
         If you want to keep old densities, please start your calculation with a different basename. 



WARNING: SCAN, rSCAN, or r2SCAN functional requested.
  ===> : libXC variant has now been activated.



================================================================================
                                       INPUT FILE
================================================================================
NAME = xtb_opt.inp
|  1> ! r2scan-3c def2/J RI DEFGRID2 scfconv7 ENGRAD tightSCF miniprint
|  2> * xyzfile 0 1 xtb_opt.xyz
|  3> 
|  4>                          ****END OF INPUT****
================================================================================

                     *******************************
                     * Energy+Gradient Calculation *
                     *******************************

---------------------------------
CARTESIAN COORDINATES (ANGSTROEM)
---------------------------------
  C     -1.419644   -1.062216    1.110654
  C     -1.011756   -0.080635   -0.004717
  C     -1.476247    1.334784    0.347271
  C     -1.631509   -0.528726   -1.336767
  C      0.505786   -0.196537   -0.139243
  O      1.075512   -1.165637   -0.587864
  O      1.161120    0.888248    0.333694
  C      2.599092    0.801004    0.270257
  H     -2.508263   -1.052431    1.226704
  H     -1.101087   -2.078596    0.864560
  H     -0.971903   -0.777481    2.068568
  H     -2.569686    1.350900    0.402324
  H     -1.162514    2.057827   -0.410972
  H     -1.079657    1.661643    1.311427
  H     -1.351787    0.152143   -2.147231
  H     -1.294984   -1.533670   -1.600517
  H     -2.722783   -0.529317   -1.252141
  H      2.927032    0.648281   -0.761280
  H      2.957198   -0.030438    0.883343
  H      2.966024    1.751975    0.656474

----------------------------
CARTESIAN COORDINATES (A.U.)
----------------------------
  NO LB      ZA    FRAG     MASS         X           Y           Z
   0 C     6.0000    0    12.011   -2.682738   -2.007297    2.098831
   1 C     6.0000    0    12.011   -1.911941   -0.152379   -0.008914
   2 C     6.0000    0    12.011   -2.789702    2.522375    0.656248
   3 C     6.0000    0    12.011   -3.083105   -0.999148   -2.526124
   4 C     6.0000    0    12.011    0.955796   -0.371401   -0.263131
   5 O     8.0000    0    15.999    2.032423   -2.202735   -1.110902
   6 O     8.0000    0    15.999    2.194199    1.678545    0.630591
   7 C     6.0000    0    12.011    4.911572    1.513678    0.510711
   8 H     1.0000    0     1.008   -4.739929   -1.988806    2.318134
   9 H     1.0000    0     1.008   -2.080754   -3.927977    1.633782
  10 H     1.0000    0     1.008   -1.836631   -1.469225    3.909026
  11 H     1.0000    0     1.008   -4.856002    2.552832    0.760281
  12 H     1.0000    0     1.008   -2.196833    3.888730   -0.776624
  13 H     1.0000    0     1.008   -2.040256    3.140050    2.478238
  14 H     1.0000    0     1.008   -2.554508    0.287508   -4.057679
  15 H     1.0000    0     1.008   -2.447164   -2.898217   -3.024538
  16 H     1.0000    0     1.008   -5.145314   -1.000264   -2.366203
  17 H     1.0000    0     1.008    5.531289    1.225073   -1.438610
  18 H     1.0000    0     1.008    5.588294   -0.057520    1.669277
  19 H     1.0000    0     1.008    5.604973    3.310754    1.240556

------------------------------------------------------------------------------
                   ___                                                        
                  /   \      - P O W E R E D   B Y -                         
                 /     \                                                     
                 |  |  |   _    _      __       _____    __    __             
                 |  |  |  | |  | |    /  \     |  _  \  |  |  /  |          
                  \  \/   | |  | |   /    \    | | | |  |  | /  /          
                 / \  \   | |__| |  /  /\  \   | |_| |  |  |/  /          
                |  |  |   |  __  | /  /__\  \  |    /   |      \           
                |  |  |   | |  | | |   __   |  |    \   |  |\   \          
                \     /   | |  | | |  |  |  |  | |\  \  |  | \   \       
                 \___/    |_|  |_| |__|  |__|  |_| \__\ |__|  \__/        
                                                                              
                      - O R C A' S   B I G   F R I E N D -                    
                                      &                                       
                       - I N T E G R A L  F E E D E R -                       
                                                                              
 v1 FN, 2020, v2 2021, v3 2022-2024                                           
------------------------------------------------------------------------------


----------------------
SHARK INTEGRAL PACKAGE
----------------------

Number of atoms                             ...     20
Number of basis functions                   ...    222
Number of shells                            ...    110
Maximum angular momentum                    ...      2
Integral batch strategy                     ... SHARK/LIBINT Hybrid
RI-J (if used) integral strategy            ... SPLIT-RIJ (Revised 2003 algorithm where possible)
Printlevel                                  ...      1
Contraction scheme used                     ... SEGMENTED contraction
Prescreening option                         ... SCHWARTZ
   Thresh                                   ... 3.000e-11
   Tcut                                     ... 1.000e-12
   Tpresel                                  ... 1.000e-12 
Coulomb Range Separation                    ... NOT USED
Exchange Range Separation                   ... NOT USED
Multipole approximations                    ... NOT USED
Finite Nucleus Model                        ... NOT USED
CABS basis                                  ... NOT available
Auxiliary Coulomb fitting basis             ... AVAILABLE
   # of basis functions in Aux-J            ...    524
   # of shells in Aux-J                     ...    180
   Maximum angular momentum in Aux-J        ...      4
Auxiliary J/K fitting basis                 ... NOT available
Auxiliary Correlation fitting basis         ... NOT available
Auxiliary 'external' fitting basis          ... NOT available

Checking pre-screening integrals            ... done (  0.0 sec) Dimension = 110
Check shell pair data                       ... done (  0.0 sec)
Shell pair information
Shell pair cut-off parameter TPreSel        ...   1.0e-12
Total number of shell pairs                 ...      6105
Shell pairs after pre-screening             ...      5595
Total number of primitive shell pairs       ...     21533
Primitive shell pairs kept                  ...     14152
          la=0 lb=0:   1865 shell pairs
          la=1 lb=0:   2114 shell pairs
          la=1 lb=1:    613 shell pairs
          la=2 lb=0:    604 shell pairs
          la=2 lb=1:    344 shell pairs
          la=2 lb=2:     55 shell pairs

Calculating one electron integrals          ... done (  0.0 sec)
Calculating RI/J V-Matrix + Cholesky decomp.... done (  0.0 sec)
Calculating Nuclear repulsion               ... done (  0.0 sec) ENN=    410.683863147449 Eh

Diagonalization of the overlap matrix:
Smallest eigenvalue                        ... 1.330e-04
Time for diagonalization                   ...    0.003 sec
Threshold for overlap eigenvalues          ... 1.000e-07
Number of eigenvalues below threshold      ... 0
Time for construction of square roots      ...    0.001 sec
Total time needed                          ...    0.006 sec

-------------------
DFT GRID GENERATION
-------------------

General Integration Accuracy     IntAcc      ... 4.388
Radial Grid Type                 RadialGrid  ... OptM3 with GC (2021)
Angular Grid (max. ang.)         AngularGrid ... 4 (Lebedev-302)
Angular grid pruning method      GridPruning ... 4 (adaptive)
Weight generation scheme         WeightScheme... mBecke (2022)
Basis function cutoff            BFCut       ... 1.0000e-11
Integration weight cutoff        WCut        ... 1.0000e-14
Partially contracted basis set               ... off
Rotationally invariant grid construction     ... off
Angular grids for H and He will be reduced by one unit
Diffuse basis detected: some atoms will have their outermost
                        angular grid increased by 1.

Total number of grid points                  ...    87172
Total number of batches                      ...     1372
Average number of points per batch           ...       63
Average number of grid points per atom       ...     4359
Initializing property integral containers    ... done (  0.0 sec)

SHARK setup successfully completed in   0.7 seconds

Maximum memory used throughout the entire STARTUP-calculation: 40.8 MB
Occupation numbers will be reassigned to an Aufbau configuration
             **** ENERGY FILE WAS UPDATED (xtb_opt.en.tmp) ****
Finished Guess after   0.0 sec
Maximum memory used throughout the entire GUESS-calculation: 16.5 MB
----------------------------------------D-I-I-S--------------------------------------------
Iteration    Energy (Eh)           Delta-E    RMSDP     MaxDP     DIISErr   Damp  Time(sec)
-------------------------------------------------------------------------------------------
               ***  Starting incremental Fock matrix formation  ***
                              *** Initializing SOSCF ***
---------------------------------------S-O-S-C-F--------------------------------------
Iteration    Energy (Eh)           Delta-E    RMSDP     MaxDP     MaxGrad    Time(sec)
--------------------------------------------------------------------------------------
    1    -386.2422109195668440     0.00e+00  3.48e-05  5.17e-04  9.24e-05     1.6
               *** Restarting incremental Fock matrix formation ***
    2    -386.2422204731324769    -9.55e-06  1.36e-05  2.68e-04  8.48e-05     1.6
    3    -386.2422209444347914    -4.71e-07  9.02e-06  1.77e-04  1.26e-04     1.2
    4    -386.2422208757365638     6.87e-08  6.26e-06  1.11e-04  1.60e-04     1.2
                 **** Energy Check signals convergence ****

               *****************************************************
               *                     SUCCESS                       *
               *           SCF CONVERGED AFTER   4 CYCLES          *
               *****************************************************

             **** ENERGY FILE WAS UPDATED (xtb_opt.en.tmp) ****

----------------
TOTAL SCF ENERGY
----------------

Total Energy       :       -386.24222087573656 Eh          -10510.18516 eV

Components:
Nuclear Repulsion  :        410.68386314744879 Eh           11175.27606 eV
Electronic Energy  :       -796.92608402318535 Eh          -21685.46121 eV
One Electron Energy:      -1338.58181622438701 Eh          -36424.66301 eV
Two Electron Energy:        541.65573220120166 Eh           14739.20180 eV

Virial components:
Potential Energy   :       -770.71008998215893 Eh          -20972.08775 eV
Kinetic Energy     :        384.46786910642237 Eh           10461.90259 eV
Virial Ratio       :          2.00461508467128

DFT components:
N(Alpha)           :       31.999990715363 electrons
N(Beta)            :       31.999990715363 electrons
N(Total)           :       63.999981430726 electrons
E(X)               :      -52.031006591265 Eh       
E(C)               :       -2.038357521034 Eh       
E(XC)              :      -54.069364112299 Eh       

---------------
SCF CONVERGENCE
---------------

  Last Energy change         ...   -6.8698e-08  Tolerance :   1.0000e-07
  Last MAX-Density change    ...    1.1056e-04  Tolerance :   1.0000e-07
  Last RMS-Density change    ...    6.2609e-06  Tolerance :   5.0000e-09
  Last DIIS Error            ...    1.2867e-03  Tolerance :   1.0000e-07
  Last Orbital Gradient      ...    1.6050e-04  Tolerance :   1.0000e-04
  Last Orbital Rotation      ...    2.0416e-04  Tolerance :   1.0000e-04


----------------
ORBITAL ENERGIES
----------------

  NO   OCC          E(Eh)            E(eV) 
   0   2.0000     -18.999299      -516.9972 
   1   2.0000     -18.933095      -515.1957 
   2   2.0000     -10.151500      -276.2364 
   3   2.0000     -10.086578      -274.4697 
   4   2.0000     -10.061391      -273.7844 
   5   2.0000     -10.028240      -272.8823 
   6   2.0000     -10.023439      -272.7516 
   7   2.0000     -10.022993      -272.7395 
   8   2.0000      -1.066234       -29.0137 
   9   2.0000      -0.977767       -26.6064 
  10   2.0000      -0.792528       -21.5658 
  11   2.0000      -0.693936       -18.8830 
  12   2.0000      -0.657906       -17.9025 
  13   2.0000      -0.653784       -17.7904 
  14   2.0000      -0.579695       -15.7743 
  15   2.0000      -0.515306       -14.0222 
  16   2.0000      -0.461764       -12.5652 
  17   2.0000      -0.450586       -12.2611 
  18   2.0000      -0.438482       -11.9317 
  19   2.0000      -0.408542       -11.1170 
  20   2.0000      -0.405121       -11.0239 
  21   2.0000      -0.403639       -10.9836 
  22   2.0000      -0.375599       -10.2206 
  23   2.0000      -0.356989        -9.7142 
  24   2.0000      -0.342709        -9.3256 
  25   2.0000      -0.340784        -9.2732 
  26   2.0000      -0.335723        -9.1355 
  27   2.0000      -0.316278        -8.6064 
  28   2.0000      -0.305104        -8.3023 
  29   2.0000      -0.304482        -8.2854 
  30   2.0000      -0.274581        -7.4717 
  31   2.0000      -0.236815        -6.4441 
  32   0.0000      -0.018681        -0.5083 
  33   0.0000       0.055208         1.5023 
  34   0.0000       0.089280         2.4294 
  35   0.0000       0.104046         2.8312 
  36   0.0000       0.128670         3.5013 
  37   0.0000       0.131182         3.5696 
  38   0.0000       0.137654         3.7458 
  39   0.0000       0.139838         3.8052 
  40   0.0000       0.141062         3.8385 
  41   0.0000       0.151170         4.1135 
  42   0.0000       0.161934         4.4064 
*Only the first 10 virtual orbitals were printed.
Total SCF time: 0 days 0 hours 0 min 5 sec 
Finished LeanSCF after   5.8 sec

Maximum memory used throughout the entire LEANSCF-calculation: 25.9 MB


-------------------------------------------------------------------------------
                          DFT DISPERSION CORRECTION                            
                                                                               
                                DFTD4 V3.4.0                                   
-------------------------------------------------------------------------------
-------------------------   ----------------
Dispersion correction           -0.005632495
-------------------------   ----------------

------------------   -----------------
gCP correction             0.012335311
------------------   -----------------

-------------------------   --------------------
FINAL SINGLE POINT ENERGY      -386.235518059655
-------------------------   --------------------

------------------------------------------------------------------------------
                         ORCA SCF GRADIENT CALCULATION
------------------------------------------------------------------------------

Nuc. rep. gradient        (SHARK) ... done (  0.0 sec)
HCore & Overlap gradient  (SHARK) ... done (  0.2 sec)
Split-RIJ-J gradient      (SHARK) ... done (  1.2 sec)
XC gradient                       ... done (  5.3 sec)
Dispersion correction             ... done (  0.0 sec)

-------------------
DISPERSION GRADIENT
-------------------

   1   C   :   -0.000053023   -0.000052480    0.000054201
   2   C   :   -0.000043489   -0.000007650   -0.000002034
   3   C   :   -0.000065323    0.000069345    0.000017168
   4   C   :   -0.000058748   -0.000024928   -0.000065485
   5   C   :    0.000046761   -0.000008189   -0.000006313
   6   O   :    0.000069632   -0.000062309   -0.000032890
   7   O   :    0.000079423    0.000039230    0.000012579
   8   C   :    0.000110611    0.000020325    0.000004103
   9   H   :   -0.000027548   -0.000020285    0.000025382
  10   H   :   -0.000012756   -0.000036908    0.000019433
  11   H   :   -0.000017658   -0.000021059    0.000040964
  12   H   :   -0.000030299    0.000029614    0.000007495
  13   H   :   -0.000021615    0.000042772   -0.000003887
  14   H   :   -0.000020433    0.000036088    0.000021867
  15   H   :   -0.000020920   -0.000001679   -0.000043186
  16   H   :   -0.000013600   -0.000023764   -0.000031602
  17   H   :   -0.000030745   -0.000008435   -0.000026780
  18   H   :    0.000036394    0.000008262   -0.000000295
  19   H   :    0.000038086    0.000007096    0.000003927
  20   H   :    0.000035251    0.000014954    0.000005351

Difference to translation invariance:
           :   -0.0000000000    0.0000000000    0.0000000000

Difference to rotation invariance:
           :   -0.0000000000   -0.0000000000    0.0000000000

Norm of the Dispersion gradient    ...    0.0002892548
RMS gradient                       ...    0.0000373426
MAX gradient                       ...    0.0001106111
gCP correction                   ... done

------------------
CARTESIAN GRADIENT
------------------

   1   C   :   -0.000116681    0.000041228   -0.000108704
   2   C   :   -0.000030402   -0.000057150    0.000196864
   3   C   :   -0.000038565   -0.000090103   -0.000002326
   4   C   :    0.000006205   -0.000023555    0.000023249
   5   C   :    0.000047699    0.000264768   -0.000433663
   6   O   :   -0.000053944    0.000022337    0.000178413
   7   O   :    0.000399834   -0.000343725   -0.000019750
   8   C   :   -0.000713092    0.000123318    0.000133041
   9   H   :    0.000036071   -0.000023110    0.000078258
  10   H   :    0.000005630    0.000019836   -0.000004021
  11   H   :    0.000048453   -0.000002258    0.000014077
  12   H   :    0.000069337    0.000029819    0.000010709
  13   H   :    0.000055603    0.000019716   -0.000004409
  14   H   :    0.000048668    0.000010275    0.000030801
  15   H   :    0.000072234   -0.000007037    0.000018985
  16   H   :    0.000029100    0.000030420    0.000026502
  17   H   :    0.000042616    0.000014930   -0.000048647
  18   H   :    0.000049621   -0.000075718   -0.000088574
  19   H   :    0.000046168   -0.000005141    0.000045114
  20   H   :   -0.000004553    0.000051150   -0.000045921

Difference to translation invariance:
           :    0.0000000000    0.0000000000   -0.0000000000

Difference to rotation invariance:
           :   -0.0001510575    0.0000237372   -0.0001043111

Norm of the Cartesian gradient     ...    0.0011213775
RMS gradient                       ...    0.0001447692
MAX gradient                       ...    0.0007130923

-------
TIMINGS
-------

Total SCF gradient time     ....        6.751 sec

Densities                   ....       0.000 sec  (  0.0%)
One electron gradient       ....       0.243 sec  (  3.6%)
RI-J Coulomb gradient       ....       1.198 sec  ( 17.8%)
XC gradient                 ....       5.285 sec  ( 78.3%)

Maximum memory used throughout the entire SCFGRAD-calculation: 36.7 MB

------------------------------------------------------------------------------
                              ORCA PROPERTY CALCULATIONS
------------------------------------------------------------------------------

[...]
E(C)               :       -2.038252794001 Eh       
E(XC)              :      -54.067897904161 Eh       

---------------
SCF CONVERGENCE
---------------

  Last Energy change         ...    1.6532e-07  Tolerance :   1.0000e-07
  Last MAX-Density change    ...    3.0245e-05  Tolerance :   1.0000e-07
  Last RMS-Density change    ...    1.2335e-06  Tolerance :   5.0000e-09
  Last DIIS Error            ...    7.2034e-05  Tolerance :   1.0000e-07
  Last Orbital Gradient      ...    8.1293e-06  Tolerance :   1.0000e-04
  Last Orbital Rotation      ...    2.3663e-05  Tolerance :   1.0000e-04


----------------
ORBITAL ENERGIES
----------------

  NO   OCC          E(Eh)            E(eV) 
   0   2.0000     -18.999760      -517.0098 
   1   2.0000     -18.932771      -515.1869 
   2   2.0000     -10.151524      -276.2370 
   3   2.0000     -10.086632      -274.4712 
   4   2.0000     -10.061439      -273.7857 
   5   2.0000     -10.028253      -272.8826 
   6   2.0000     -10.023447      -272.7519 
   7   2.0000     -10.023075      -272.7417 
   8   2.0000      -1.065887       -29.0043 
   9   2.0000      -0.977538       -26.6002 
  10   2.0000      -0.792437       -21.5633 
  11   2.0000      -0.693762       -18.8782 
  12   2.0000      -0.657842       -17.9008 
  13   2.0000      -0.653739       -17.7892 
  14   2.0000      -0.579762       -15.7761 
  15   2.0000      -0.515134       -14.0175 
  16   2.0000      -0.461707       -12.5637 
  17   2.0000      -0.450416       -12.2564 
  18   2.0000      -0.438317       -11.9272 
  19   2.0000      -0.408537       -11.1169 
  20   2.0000      -0.405093       -11.0231 
  21   2.0000      -0.403629       -10.9833 
  22   2.0000      -0.375543       -10.2190 
  23   2.0000      -0.356937        -9.7127 
  24   2.0000      -0.342748        -9.3267 
  25   2.0000      -0.340843        -9.2748 
  26   2.0000      -0.335766        -9.1366 
  27   2.0000      -0.316414        -8.6100 
  28   2.0000      -0.305090        -8.3019 
  29   2.0000      -0.304447        -8.2844 
  30   2.0000      -0.274636        -7.4732 
  31   2.0000      -0.236733        -6.4418 
  32   0.0000      -0.018688        -0.5085 
  33   0.0000       0.054983         1.4962 
  34   0.0000       0.088920         2.4196 
  35   0.0000       0.103971         2.8292 
  36   0.0000       0.128589         3.4991 
  37   0.0000       0.131183         3.5697 
  38   0.0000       0.137641         3.7454 
  39   0.0000       0.139793         3.8040 
  40   0.0000       0.141112         3.8399 
  41   0.0000       0.151107         4.1118 
  42   0.0000       0.162043         4.4094 
*Only the first 10 virtual orbitals were printed.
Total SCF time: 0 days 0 hours 0 min 5 sec 
Finished LeanSCF after   5.7 sec

Maximum memory used throughout the entire LEANSCF-calculation: 25.9 MB


-------------------------------------------------------------------------------
                          DFT DISPERSION CORRECTION                            
                                                                               
                                DFTD4 V3.4.0                                   
-------------------------------------------------------------------------------
-------------------------   ----------------
Dispersion correction           -0.005630665
-------------------------   ----------------

------------------   -----------------
gCP correction             0.012328448
------------------   -----------------

-------------------------   --------------------
FINAL SINGLE POINT ENERGY      -386.235523139064
-------------------------   --------------------

------------------------------------------------------------------------------
                         ORCA SCF GRADIENT CALCULATION
------------------------------------------------------------------------------

Nuc. rep. gradient        (SHARK) ... done (  0.0 sec)
HCore & Overlap gradient  (SHARK) ... done (  0.2 sec)
Split-RIJ-J gradient      (SHARK) ... done (  1.2 sec)
XC gradient                       ... done (  5.1 sec)
Dispersion correction             ... done (  0.0 sec)

-------------------
DISPERSION GRADIENT
-------------------

   1   C   :   -0.000053056   -0.000052421    0.000054145
   2   C   :   -0.000043496   -0.000007636   -0.000002032
   3   C   :   -0.000065383    0.000069285    0.000017088
   4   C   :   -0.000058803   -0.000024938   -0.000065380
   5   C   :    0.000046868   -0.000008192   -0.000006269
   6   O   :    0.000069735   -0.000062226   -0.000032878
   7   O   :    0.000079706    0.000039211    0.000012612
   8   C   :    0.000110340    0.000020292    0.000004121
   9   H   :   -0.000027508   -0.000020266    0.000025312
  10   H   :   -0.000012738   -0.000036894    0.000019457
  11   H   :   -0.000017661   -0.000021010    0.000040985
  12   H   :   -0.000030264    0.000029556    0.000007454
  13   H   :   -0.000021626    0.000042774   -0.000003924
  14   H   :   -0.000020434    0.000036113    0.000021841
  15   H   :   -0.000020932   -0.000001663   -0.000043174
  16   H   :   -0.000013585   -0.000023763   -0.000031605
  17   H   :   -0.000030695   -0.000008460   -0.000026697
  18   H   :    0.000036356    0.000008275   -0.000000295
  19   H   :    0.000038015    0.000007074    0.000003879
  20   H   :    0.000035163    0.000014890    0.000005361

Difference to translation invariance:
           :   -0.0000000000   -0.0000000000    0.0000000000

Difference to rotation invariance:
           :   -0.0000000000   -0.0000000000    0.0000000000

Norm of the Dispersion gradient    ...    0.0002891531
RMS gradient                       ...    0.0000373295
MAX gradient                       ...    0.0001103395
gCP correction                   ... done

------------------
CARTESIAN GRADIENT
------------------

   1   C   :   -0.000003998   -0.000009918    0.000035248
   2   C   :    0.000071307   -0.000010570    0.000001176
   3   C   :   -0.000032043    0.000021713    0.000014876
   4   C   :    0.000045904    0.000014101   -0.000008356
   5   C   :   -0.000034766   -0.000006294   -0.000090904
   6   O   :    0.000018488   -0.000025078    0.000035456
   7   O   :   -0.000010842    0.000037850    0.000051341
   8   C   :    0.000142864   -0.000021549   -0.000068750
   9   H   :   -0.000030786    0.000010043    0.000003733
  10   H   :   -0.000024768   -0.000007443   -0.000012623
  11   H   :   -0.000003564   -0.000014219   -0.000005358
  12   H   :   -0.000028289    0.000010616    0.000000840
  13   H   :   -0.000007672   -0.000016012    0.000009489
  14   H   :   -0.000013402   -0.000016563   -0.000007292
  15   H   :   -0.000009897   -0.000001869   -0.000017520
  16   H   :   -0.000034374   -0.000019042   -0.000011435
  17   H   :   -0.000018451    0.000020231    0.000017531
  18   H   :   -0.000029494   -0.000032840    0.000023020
  19   H   :    0.000003911    0.000030594    0.000054935
  20   H   :   -0.000000129    0.000036250   -0.000025407

Difference to translation invariance:
           :    0.0000000000   -0.0000000000   -0.0000000000

Difference to rotation invariance:
           :   -0.0001658407    0.0000407931   -0.0001237684

Norm of the Cartesian gradient     ...    0.0002601622
RMS gradient                       ...    0.0000335868
MAX gradient                       ...    0.0001428640

-------
TIMINGS
-------

Total SCF gradient time     ....        6.590 sec

Densities                   ....       0.000 sec  (  0.0%)
One electron gradient       ....       0.245 sec  (  3.7%)
RI-J Coulomb gradient       ....       1.176 sec  ( 17.8%)
XC gradient                 ....       5.145 sec  ( 78.1%)

Maximum memory used throughout the entire SCFGRAD-calculation: 36.7 MB

------------------------------------------------------------------------------
                              ORCA PROPERTY CALCULATIONS
------------------------------------------------------------------------------

GBWName                                 ... xtb_opt.gbw
Number of atoms                         ...     20
Number of basis functions               ...    222
Max core memory                         ...   1024 MB

Electric properties:
Dipole moment                           ... YES
Quadrupole moment                       ...  NO
Static polarizability (Dipole/Dipole)   ...  NO
Static polarizability (Dipole/Quad.)    ...  NO
Static polarizability (Quad./Quad.)     ...  NO
Static polarizability (Velocity)        ...  NO

Atomic electric properties:
Dipole moment                           ...  NO
Quadrupole moment                       ...  NO
Static polarizability                   ...  NO

Choice of electric origin               ... Center of mass
Position of electric origin             ...     0.010984     0.007477     0.003060

General magnetic properties:
Magnetizability                         ...  NO

EPR properties:
g-Tensor (aka g-matrix)                 ...  NO
Zero-Field splitting spin-orbit         ...  NO
Zero-field splitting spin-spin          ...  NO
Hyperfine couplings                     ...  NO (   0 nuclei)
Quadrupole couplings                    ...  NO (   0 nuclei)
Contact density                         ...  NO (   0 nuclei)

NMR properties:
Chemical shifts                         ...  NO (   0 nuclei)
Spin-rotation constants                 ...  NO (   0 nuclei)
Spin-spin couplings                     ...  NO (   0 nuclei,    0 pairs)

Choice of magnetic origin               ... GIAO
Position of magnetic origin             ...     0.000000     0.000000     0.000000

Properties with geometric perturbations:
SCF Hessian                             ...  NO
IR spectrum                             ...  NO
VCD spectrum                            ...  NO
X-ray spectroscopy properties:
SCF XES/XAS/RIXS spectra                ...  NO


-------------
DIPOLE MOMENT
-------------

Method             : SCF
Type of density    : Electron Density
Multiplicity       :   1
Irrep              :   0
Energy             :  -386.2422209217242539 Eh
Relativity type    : 
Basis              : AO
                                X                 Y                 Z
Electronic contribution:      5.496383378      -0.889691306      -0.834862991
Nuclear contribution   :     -5.585900776       1.468619463       1.140344422
                        -----------------------------------------
Total Dipole Moment    :     -0.089517398       0.578928157       0.305481431
                        -----------------------------------------
Magnitude (a.u.)       :      0.660673959
Magnitude (Debye)      :      1.679299748



--------------------
Rotational spectrum 
--------------------
 
Rotational constants in cm-1:             0.105199             0.049787             0.043805 
Rotational constants in MHz :          3153.782253          1492.581868          1313.248308 

Dipole components along the rotational axes: 
x,y,z [a.u.] :     0.039752     0.658476     0.036323 
x,y,z [Debye]:     0.101041     1.673713     0.092326 

 

Dipole moment calculation done in   0.0 sec 

Maximum memory used throughout the entire PROP-calculation: 15.3 MB

--------------------------------
SUGGESTED CITATIONS FOR THIS RUN
--------------------------------

Below you find a list of papers that are relevant to this ORCA run
We neither can nor want to force you to cite these papers, but we appreciate if you do
You receive ORCA, which is the product of decades of hard work by many enthusiastic individuals, for free
The only thing we kindly ask in return is that you cite our papers,
We deeply appreciate it, if you show your appreciation for ORCA by not just citing the generic ORCA reference.

Please note that relegating all ORCA citations to the supporting information does *not* help us.
SI sections are not indexed - citations you put there will not count into any citation statistics
But we need these citations in order to attract the funding resources that allow us to do what we are doing

Therefore, if you are a happy ORCA user, please consider citing a few of the papers listed below in the main body of your paper

In addition to the list printed below, the program has created the file xtb_opt.bibtex that contains the list in bibtex format
You can import this file easily into all common literature databanks and citation aid programs


List of essential papers. We consider these as the minimum necessary citations

  1. Neese,F.
     Software update: the ORCA program system, version 5.0
     WIRES Comput. Molec. Sci., 2022 12(1)e1606
     doi.org/10.1002/wcms.1606
  2. Grimme,S.; Hansen,A.; Ehlert,S.; Mewes,J.
     r2SCAN-3c: A 'Swiss army knife' composite electronic-structure method
     J. Chem. Phys., 2021 154 064103
     doi.org/10.1063/5.0040021

List of papers to cite with high priority. The work reported in these papers was absolutely
necessary for this run to complete.
Our perspective: the developers of density functionals and basis sets usually get cited in chemistry papers
Good! But without the algorithms to do something with them, the functionals or basis sets would not do anything.
Hence, in our opinion, the algorithm design and method developments papers are equally worthy of getting cited

  1. Neese,F.
     An improvement of the resolution of the identity approximation for the formation of the Coulomb matrix
     J. Comp. Chem., 2003 24(14)1740-1747
     doi.org/10.1002/jcc.10318
  2. Neese,F.
     The SHARK Integral Generation and Digestion System
     J. Comp. Chem., 2022  1-16
     doi.org/10.1002/jcc.26942
  3. Lehtola,S.; Steigemann,C.; Oliveira,M.; Marques,M.
     Recent developments in Libxc - A comprehensive library of functionals for density functional theory
     Software X, 2018 7 
     doi.org/10.1016/j.softx.2017.11.002
  4. Caldeweyher,E.; Bannwarth,C.; Grimme,S.
     Extension of the D3 dispersion coefficient model
     J. Chem. Phys., 2017 147 034112
     doi.org/10.1063/1.4993215
  5. Caldeweyher,E.; Ehlert,S.; Hansen,A.; Neugebauer,H.; Spicher,S.; Bannwarth,C.; Grimme,S.
     A generally applicable atomic-charge dependent London dispersion correction
     J. Chem. Phys., 2019 150 154122
     doi.org/10.1063/1.5090222
  6. Caldeweyher,E.; Mewes,J.; Ehlert,S.; Grimme,S.
     Extension and evaluation of the D4 London-dispersion model for periodic systems
     Phys. Chem. Chem. Phys., 2020 22(16)8499-8512
     doi.org/10.1039/D0CP00502A
  7. Wittmann,L.; Gordiy,I.; Friede,M.; Helmich-Paris,B.; Grimme,S.; Hansen,A.; Bursch,M.
     Extension of the D3 and D4 London Dispersion Corrections to the full Actinides Series
     Phys. Chem. Chem. Phys., 2024 26(32)21379-21394
     doi.org/https://doi.org/10.1039/D4CP01514B 

List of suggested additional citations. These are papers that are important in the 'surrounding' of 
of this run, or papers that preceded the highly important papers. If you like your results we are grateful for a citation.

  1. Neese,F.
     The ORCA program system
     WIRES Comput. Molec. Sci., 2012 2(1)73-78
     doi.org/10.1002/wcms.81
  2. Neese,F.
     Software update: the ORCA program system, version 4.0
     WIRES Comput. Molec. Sci., 2018 8(1)1-6
     doi.org/10.1002/wcms.1327
  3. Neese,F.; Wennmohs,F.; Becker,U.; Riplinger,C.
     The ORCA quantum chemistry program package
     J. Chem. Phys., 2020 152 Art. No. L224108
     doi.org/10.1063/5.0004608

List of optional additional citations

  1. Neese,F.
     Approximate second-order SCF convergence for spin unrestricted wavefunctions
     Chem. Phys. Lett., 2000 325(1-3)93-98
     doi.org/10.1016/s0009-2614(00)00662-x

Timings for individual modules:

Sum of individual times          ...       13.079 sec (=   0.218 min)
Startup calculation              ...        0.636 sec (=   0.011 min)   4.9 %
SCF iterations                   ...        5.753 sec (=   0.096 min)  44.0 %
Property calculations            ...        0.049 sec (=   0.001 min)   0.4 %
SCF Gradient evaluation          ...        6.640 sec (=   0.111 min)  50.8 %
                             ****ORCA TERMINATED NORMALLY****
TOTAL RUN TIME: 0 days 0 hours 0 minutes 13 seconds 161 msec
  ------------------------------------------------------------------------
          * successful ORCA run, taking over control again...

         :::::::::::::::::::::::::::::::::::::::::::::::::::::
         ::                  ORCA SUMMARY                   ::
         :::::::::::::::::::::::::::::::::::::::::::::::::::::
         :: total energy            -386.235523139064 Eh    ::
         :: gradient norm              0.000260162244 Eh/a0 ::
         :: HOMO-LUMO gap              0.000000000000 eV    ::
         :::::::::::::::::::::::::::::::::::::::::::::::::::::

           -------------------------------------------------
          |                Property Printout                |
           -------------------------------------------------
           -------------------------------------------------
          |                Geometry Summary                 |
           -------------------------------------------------

      molecular mass/u    :      116.1585142
   center of mass at/Å    :        0.0058292       0.0039545       0.0016173
  moments of inertia/u·Å² :        0.1602427E+03   0.3385858E+03   0.3848243E+03
rotational constants/cm⁻¹ :        0.1052006E+00   0.4978837E-01   0.4380605E-01

 * 17 selected distances

     #   Z          #   Z                                           value/Å
     2   6          3   6                                         1.5308675
     2   6          4   6                                         1.5360975 (max)
     5   6          6   8                                         1.2103659
     5   6          7   8                                         1.3533842
     7   8          8   6                                         1.4436865
     1   6          9   1                                         1.0949271
     1   6         10   1                                         1.0932078
     1   6         11   1                                         1.0949542
     3   6         12   1                                         1.0950986
     3   6         13   1                                         1.0936278
     3   6         14   1                                         1.0924988
     4   6         15   1                                         1.0948391
     4   6         16   1                                         1.0921612
     4   6         17   1                                         1.0946738
     8   6         18   1                                         1.0928429
     8   6         19   1                                         1.0931916
     8   6         20   1                                         1.0899977 (min)

 * 3 distinct bonds (by element types)

   Z      Z             #   av. dist./Å        max./Å        min./Å
   1 H    6 C          12     1.0935017     1.0950986     1.0899977
   6 C    6 C           2     1.5334825     1.5360975     1.5308675
   6 C    8 O           3     1.3358122     1.4436865     1.2103659


optimized geometry written to: xtbopt.coord


           -------------------------------------------------
          | TOTAL ENERGY             -386.235523139064 Eh   |
          | GRADIENT NORM               0.000260162244 Eh/α |
           -------------------------------------------------

------------------------------------------------------------------------
 * finished run on 2025/04/09 at 01:17:09.152     
------------------------------------------------------------------------
 total:
 * wall-time:     0 d,  0 h,  1 min,  6.303 sec
 *  cpu-time:     0 d,  0 h,  0 min,  0.446 sec
 * ratio c/w:     0.007 speedup
 SCF:
 * wall-time:     0 d,  0 h,  0 min, 14.048 sec
 *  cpu-time:     0 d,  0 h,  0 min,  0.071 sec
 * ratio c/w:     0.005 speedup
 ANC optimizer:
 * wall-time:     0 d,  0 h,  0 min, 52.174 sec
 *  cpu-time:     0 d,  0 h,  0 min,  0.011 sec
 * ratio c/w:     0.000 speedup

