
                                 *****************
                                 * O   R   C   A *
                                 *****************

                                            #,                                       
                                            ###                                      
                                            ####                                     
                                            #####                                    
                                            ######                                   
                                           ########,                                 
                                     ,,################,,,,,                         
                               ,,#################################,,                 
                          ,,##########################################,,             
                       ,#########################################, ''#####,          
                    ,#############################################,,   '####,        
                  ,##################################################,,,,####,       
                ,###########''''           ''''###############################       
              ,#####''   ,,,,##########,,,,          '''####'''          '####       
            ,##' ,,,,###########################,,,                        '##       
           ' ,,###''''                  '''############,,,                           
         ,,##''                                '''############,,,,        ,,,,,,###''
      ,#''                                            '''#######################'''  
     '                                                          ''''####''''         
             ,#######,   #######,   ,#######,      ##                                
            ,#'     '#,  ##    ##  ,#'     '#,    #''#        ,####,   ,####,        
            ##       ##  ##   ,#'  ##            #'  '#       #'       #'  '#        
            ##       ##  #######   ##           ,######,      #####,   #    #        
            '#,     ,#'  ##    ##  '#,     ,#' ,#      #,     #,   #   #,  ,#        
             '#######'   ##     ##  '#######'  #'      '#     '####' # '####'        



                #########################################################
                #                        -***-                          #
                #          Department of theory and spectroscopy        #
                #                                                       #
                #                      Frank Neese                      #
                #                                                       #
                #     Directorship, Architecture, Infrastructure        #
                #                    SHARK, DRIVERS                     #
                #        Core code/Algorithms in most modules           #
                #                                                       #
                #        Max Planck Institute fuer Kohlenforschung      #
                #                Kaiser Wilhelm Platz 1                 #
                #                 D-45470 Muelheim/Ruhr                 #
                #                      Germany                          #
                #                                                       #
                #                  All rights reserved                  #
                #                        -***-                          #
                #########################################################


                         Program Version 6.0.1  -  RELEASE   -


 With contributions from (in alphabetic order):
[Max-Planck-Institut fuer Kohlenforschung]                               
  Daniel Aravena         : Magnetic Suceptibility                        
  Michael Atanasov       : Ab Initio Ligand Field Theory (pilot matlab implementation)
  Alexander A. Auer      : GIAO ZORA, VPT2 properties, NMR spectrum      
  Ute Becker             : All parallelization in ORCA, NUMFREQ, NUMCALC 
  Giovanni Bistoni       : ED, misc. LED, open-shell LED, HFLD           
  Martin Brehm           : Molecular dynamics                            
  Dmytro Bykov           : pre 5.0 version of the SCF Hessian            
  Marcos Casanova-Páez   : Triplet and SCS-CIS(D). UHF-(DLPNO)-IP/EA/STEOM-CCSD. UHF-CVS-IP/STEOM-CCSD   
  Vijay G. Chilkuri      : MRCI spin determinant printing, contributions to CSF-ICE 
  Pauline Colinet        : FMM embedding                                 
  Dipayan Datta          : RHF DLPNO-CCSD density                        
  Achintya Kumar Dutta   : EOM-CC, STEOM-CC                              
  Nicolas Foglia         : Exact transition moments, OPA infrastructure, MCD improvements    
  Dmitry Ganyushin       : Spin-Orbit,Spin-Spin,Magnetic field MRCI      
  Miquel Garcia-Rates    : C-PCM and meta-GGA Hessian, CCSD/C-PCM, Gaussian charge scheme 
  Tiago L. C. Gouveia    : GS-ROHF, GS-ROCIS                             
  Yang Guo               : DLPNO-NEVPT2, F12-NEVPT2, CIM, IAO-localization        
  Andreas Hansen         : Spin unrestricted coupled pair/coupled cluster methods 
  Ingolf Harden          : AUTO-CI MPn and infrastructure                
  Benjamin Helmich-Paris : MC-RPA, TRAH-(SCF,CASSCF), AVAS, COSX integrals, SCF dyn. polar. 
  Lee Huntington         : MR-EOM, pCC                                   
  Robert Izsak           : Overlap fitted RIJCOSX, COSX-SCS-MP3, EOM     
  Riya Kayal             : Wick's Theorem for AUTO-CI, AUTO-CI UHF-CCSDT 
  Emily Kempfer          : AUTO-CI, RHF CISDT and CCSDT                  
  Christian Kollmar      : KDIIS, OOCD, Brueckner-CCSD(T), CCSD density, CASPT2, CASPT2-K, improved NEVPT2 
  Axel Koslowski         : Symmetry handling                             
  Simone Kossmann        : meta-GGA functionals, TD-DFT gradient, OOMP2, (MP2 Hessian; deprecated post 5.0) 
  Lucas Lang             : DCDCAS                                        
  Marvin Lechner         : AUTO-CI (C++ implementation), FIC-MRCC        
  Spencer Leger          : CASSCF response                               
  Dagmar Lenk            : GEPOL surface, SMD, ORCA-2-JSON               
  Dimitrios Liakos       : Extrapolation schemes; Compound Job, initial MDCI parallelization 
  Dimitrios Manganas     : Further ROCIS development; embedding schemes. LFT, Crystal Embedding 
  Dimitrios Pantazis     : SARC Basis sets                               
  Anastasios Papadopoulos: AUTO-CI, single reference methods and gradients 
  Taras Petrenko         : pre 6.0 DFT Hessian and TD-DFT gradient, (ASA, deprecated), ECA, 1-Electron XAS/XES, NRVS 
  Peter Pinski           : DLPNO-MP2, DLPNO-MP2 Gradient                 
  Christoph Reimann      : Effective Core Potentials                     
  Marius Retegan         : Local ZFS, SOC                                
  Christoph Riplinger    : Optimizer, TS searches, QM/MM, DLPNO-CCSD(T), (RO)-DLPNO pert. Triples 
  Michael Roemelt        : Original ROCIS implementation                 
  Masaaki Saitow         : Open-shell DLPNO-CCSD energy and density      
  Barbara Sandhoefer     : DKH picture change effects                    
  Kantharuban Sivalingam : CASSCF convergence/infrastructure, NEVPT2 and variants, FIC-MRCI 
  Bernardo de Souza      : ESD, SOC TD-DFT                               
  Georgi L. Stoychev     : AutoAux, RI-MP2 NMR, DLPNO-MP2 response, X2C  
  Van Anh Tran           : RI-MP2 g-tensors                              
  Willem Van den Heuvel  : Paramagnetic NMR                              
  Zikuan Wang            : NOTCH, Electric field optimization            
  Frank Wennmohs         : Technical directorship and infrastructure     
  Hang Xu                : AUTO-CI-Response properties                   
                                                                         
[FACCTs GmbH]                                                            
  Markus Bursch, Miquel Garcia-Rates, Christoph Riplinger, Bernardo de Souza, Georgi L. Stoychev 
                                                                 
  APM, Basis sets (HGBS, AHGBS, def-TZVP (Ac-Lr), def2-XVPD (La-Lu)), CI-OPT, improved COSX, DLPNO-Multilevel,           
  DOCKER, DRACO, updates on ESD, GOAT, IRC, LR-CPCM, MBIS, meta-GGA TD-DFT gradient, ML-optimized integration grids, 
  MM, NACMEs, nearIR, NEB, NEB-TS, NL-DFT gradient (VV10), 2- and 3-layer-ONIOM, interface openCOSMO-RS, QMMM,   
  Crystal-QMMM, SF, symmetry and pop. for TD-DFT, r2SCAN hybrids, SOLVATOR                                   
                                                                         
[Other institutions]                                                     
  V. Asgeirsson          : NEB                                           
  Christoph Bannwarth    : sTDA-DFT, sTD-DFT, PBEh-3c, B97-3c, D3        
  Sebastian Ehlert       : rSCAN, r2SCAN, r2SCAN-3c, D4, dhf basis sets  
  Marvin Friede          : D4 for Fr, Ra, Ac-Lr                          
  Lars Goerigk           : TD-DFT with DH, B97 family of functionals     
  Stefan Grimme          : VdW corrections, initial TS optimization, DFT functionals, gCP, sTDA/sTD-DF 
  Waldemar Hujo          : DFT-NL                                        
  H. Jonsson             : NEB                                           
  Holger Kruse           : gCP                                           
  Marcel Mueller         : wB97X-3c, vDZP basis set                      
  Hagen Neugebauer       : wr2SCAN                                       
  Tobias Risthaus        : range-separated hybrid DFT                    
  Lukas Wittmann         : regularized MP2, r2SCAN double-hybrids, wr2SCAN        
                                                                         
We gratefully acknowledge several colleagues who have allowed us to      
interface, adapt or use parts of their codes:                            
  Ed Valeev, F. Pavosevic, A. Kumar             : LibInt (2-el integral package), F12 methods 
  Garnet Chan, S. Sharma, J. Yang, R. Olivares  : DMRG                   
  Ulf Ekstrom                                   : XCFun DFT Library      
  Mihaly Kallay                                 : mrcc  (arbitrary order and MRCC methods)
  Frank Weinhold                                : gennbo (NPA and NBO analysis)           
  Simon Mueller                                 : openCOSMO-RS                            
  Christopher J. Cramer and Donald G. Truhlar   : smd solvation model                     
  S Lehtola, MJT Oliveira, MAL Marques          : LibXC Library                           
  Liviu Ungur et al                             : ANISO software                          


 Your calculation uses the libint2 library for the computation of 2-el integrals
 For citations please refer to: http://libint.valeyev.net

 Your ORCA version has been built with support for libXC version: 6.2.2
 For citations please refer to: https://libxc.gitlab.io

 This ORCA versions uses:
   CBLAS   interface :  Fast vector & matrix operations
   LAPACKE interface :  Fast linear algebra routines
   SCALAPACK package :  Parallel linear algebra routines
   Shared memory     :  Shared parallel matrices
   BLAS/LAPACK       :  OpenBLAS 0.3.27  USE64BITINT DYNAMIC_ARCH NO_AFFINITY Zen SINGLE_THREADED
        Core in use  :  Zen
   Copyright (c) 2011-2014, The OpenBLAS Project


Your calculation utilizes the geometrical counterpoise correction gCP
Please cite in your paper:
H.Kruse, S. Grimme J.Chem.Phys., 136, (2012), 154101 
   

Your calculation utilizes the DFT-NL dispersion correction.
Cite in your paper:
Vydrov, O. A.; Van Voorhis, T. J. Chem. Phys. 2010, 133, 244103
Hujo, W.; Grimme, S. J. Chem. Theory Comput. 2011, 7, 3866 
   

================================================================================

----- Orbital basis set information -----
Your calculation utilizes the basis: def2-TZVP
   F. Weigend and R. Ahlrichs, Phys. Chem. Chem. Phys. 7, 3297 (2005).

----- AuxJ basis set information -----
Your calculation utilizes the auxiliary basis: def2/J
   F. Weigend, Phys. Chem. Chem. Phys. 8, 1057 (2006).

================================================================================
                                        WARNINGS
                       Please study these warnings very carefully!
================================================================================

WARNING: Old DensityContainer found on disk!
         Will remove this file - 
         If you want to keep old densities, please start your calculation with a different basename. 


================================================================================
                                       INPUT FILE
================================================================================
NAME = sp.inp
|  1> ! wb97x-v def2-tzvp def2/J RIJCOSX DEFGRID2 scfconv7 GCP(DFT/TZ) printgap
|  2> %output
|  3>     printlevel normal
|  4> end
|  5> * xyz 0 1
|  6> C -1.7795256161642805 0.6785947803968578 0.0003777208750696976
|  7> C -0.4768658224687016 -0.09701965329488772 -0.000730849271301362
|  8> O -0.4581526656342251 -1.3195230316327056 0.00016728076574768958
|  9> N 0.6572673664160803 0.6656885983081643 -0.0013022917808599244
| 10> C 1.9895348640485906 0.08685106786341176 0.0004019330780199611
| 11> H -2.344489166990289 0.4006490350872942 0.8939321257083234
| 12> H -1.655655664235686 1.7644630364964706 -0.021901866372833634
| 13> H -2.366827289393763 0.36595713432988314 -0.8666103642428722
| 14> H 0.5642309536413163 1.6670342591340874 -0.0022777151516001812
| 15> H 2.553247965245642 0.38473173676098116 -0.8911304525198409
| 16> H 1.8755261568752675 -0.998842666685074 0.0016129870885610628
| 17> H 2.5518609606172458 0.3868486900995666 0.8921054759220937
| 18> *
| 19> 
| 20>                          ****END OF INPUT****
================================================================================

                       ****************************
                       * Single Point Calculation *
                       ****************************

---------------------------------
CARTESIAN COORDINATES (ANGSTROEM)
---------------------------------
  C     -1.779526    0.678595    0.000378
  C     -0.476866   -0.097020   -0.000731
  O     -0.458153   -1.319523    0.000167
  N      0.657267    0.665689   -0.001302
  C      1.989535    0.086851    0.000402
  H     -2.344489    0.400649    0.893932
  H     -1.655656    1.764463   -0.021902
  H     -2.366827    0.365957   -0.866610
  H      0.564231    1.667034   -0.002278
  H      2.553248    0.384732   -0.891130
  H      1.875526   -0.998843    0.001613
  H      2.551861    0.386849    0.892105

----------------------------
CARTESIAN COORDINATES (A.U.)
----------------------------
  NO LB      ZA    FRAG     MASS         X           Y           Z
   0 C     6.0000    0    12.011   -3.362816    1.282358    0.000714
   1 C     6.0000    0    12.011   -0.901146   -0.183341   -0.001381
   2 O     8.0000    0    15.999   -0.865783   -2.493537    0.000316
   3 N     7.0000    0    14.007    1.242055    1.257969   -0.002461
   4 C     6.0000    0    12.011    3.759676    0.164125    0.000760
   5 H     1.0000    0     1.008   -4.430442    0.757117    1.689287
   6 H     1.0000    0     1.008   -3.128736    3.334352   -0.041389
   7 H     1.0000    0     1.008   -4.472655    0.691559   -1.637656
   8 H     1.0000    0     1.008    1.066242    3.150238   -0.004304
   9 H     1.0000    0     1.008    4.824939    0.727038   -1.683993
  10 H     1.0000    0     1.008    3.544231   -1.887539    0.003048
  11 H     1.0000    0     1.008    4.822318    0.731038    1.685835

--------------------------------
INTERNAL COORDINATES (ANGSTROEM)
--------------------------------
 C      0   0   0     0.000000000000     0.00000000     0.00000000
 C      1   0   0     1.516080973032     0.00000000     0.00000000
 O      2   1   0     1.222646923246   121.64683593     0.00000000
 N      2   1   3     1.366741487532   115.30913079   180.06857404
 C      4   2   1     1.452581314860   122.59521496   179.86987898
 H      1   2   3     1.093104352518   108.33670787    59.34604902
 H      1   2   3     1.093137692427   114.25575185   181.22456245
 H      1   2   3     1.092855842668   108.34976076   303.19776880
 H      4   2   1     1.005658917331   118.61277801   359.91474895
 H      5   4   2     1.096054445698   111.25124274   119.23813466
 H      5   4   2     1.091664022124   107.48915796     0.02595465
 H      5   4   2     1.096058584452   111.24983812   240.81587274

---------------------------
INTERNAL COORDINATES (A.U.)
---------------------------
 C      0   0   0     0.000000000000     0.00000000     0.00000000
 C      1   0   0     2.864977835879     0.00000000     0.00000000
 O      2   1   0     2.310467843417   121.64683593     0.00000000
 N      2   1   3     2.582767107303   115.30913079   180.06857404
 C      4   2   1     2.744980872338   122.59521496   179.86987898
 H      1   2   3     2.065667862057   108.33670787    59.34604902
 H      1   2   3     2.065730865353   114.25575185   181.22456245
 H      1   2   3     2.065198246498   108.34976076   303.19776880
 H      4   2   1     1.900419937892   118.61277801   359.91474895
 H      5   4   2     2.071242730236   111.25124274   119.23813466
 H      5   4   2     2.062946032070   107.48915796     0.02595465
 H      5   4   2     2.071250551347   111.24983812   240.81587274

---------------------
BASIS SET INFORMATION
---------------------
There are 4 groups of distinct atoms

 Group   1 Type C   : 11s6p2d1f contracted to 5s3p2d1f pattern {62111/411/11/1}
 Group   2 Type O   : 11s6p2d1f contracted to 5s3p2d1f pattern {62111/411/11/1}
 Group   3 Type N   : 11s6p2d1f contracted to 5s3p2d1f pattern {62111/411/11/1}
 Group   4 Type H   : 5s1p contracted to 3s1p pattern {311/1}

Atom   0C    basis set group =>   1
Atom   1C    basis set group =>   1
Atom   2O    basis set group =>   2
Atom   3N    basis set group =>   3
Atom   4C    basis set group =>   1
Atom   5H    basis set group =>   4
Atom   6H    basis set group =>   4
Atom   7H    basis set group =>   4
Atom   8H    basis set group =>   4
Atom   9H    basis set group =>   4
Atom  10H    basis set group =>   4
Atom  11H    basis set group =>   4
---------------------------------
AUXILIARY/J BASIS SET INFORMATION
---------------------------------
There are 4 groups of distinct atoms

 Group   1 Type C   : 12s5p4d2f1g contracted to 6s4p3d1f1g pattern {711111/2111/211/2/1}
 Group   2 Type O   : 12s5p4d2f1g contracted to 6s4p3d1f1g pattern {711111/2111/211/2/1}
 Group   3 Type N   : 12s5p4d2f1g contracted to 6s4p3d1f1g pattern {711111/2111/211/2/1}
 Group   4 Type H   : 5s2p1d contracted to 3s1p1d pattern {311/2/1}

Atom   0C    basis set group =>   1
Atom   1C    basis set group =>   1
Atom   2O    basis set group =>   2
Atom   3N    basis set group =>   3
Atom   4C    basis set group =>   1
Atom   5H    basis set group =>   4
Atom   6H    basis set group =>   4
Atom   7H    basis set group =>   4
Atom   8H    basis set group =>   4
Atom   9H    basis set group =>   4
Atom  10H    basis set group =>   4
Atom  11H    basis set group =>   4

Checking for AutoStart:
The File: sp.gbw exists
Trying to determine its content:
     ... Fine, the file contains calculation information
     ... Fine, the calculation information was read
     ... Fine, the file contains a basis set
     ... Fine, the basis set was read
     ... Fine, the file contains a geometry
     ... Fine, the geometry was read
     ... Fine, the file contains a set of orbitals
     ... Fine, the orbitals can be read
     => possible old guess file was deleted
     => GBW file was renamed to GES file
     => GES file is set as startup file
     => Guess is set to MORead
     ... now leaving AutoStart

------------------------------------------------------------------------------
                             ORCA STARTUP CALCULATIONS
                           -- RI-GTO INTEGRALS CHOSEN --
------------------------------------------------------------------------------
------------------------------------------------------------------------------
                   ___                                                        
                  /   \      - P O W E R E D   B Y -                         
                 /     \                                                     
                 |  |  |   _    _      __       _____    __    __             
                 |  |  |  | |  | |    /  \     |  _  \  |  |  /  |          
                  \  \/   | |  | |   /    \    | | | |  |  | /  /          
                 / \  \   | |__| |  /  /\  \   | |_| |  |  |/  /          
                |  |  |   |  __  | /  /__\  \  |    /   |      \           
                |  |  |   | |  | | |   __   |  |    \   |  |\   \          
                \     /   | |  | | |  |  |  |  | |\  \  |  | \   \       
                 \___/    |_|  |_| |__|  |__|  |_| \__\ |__|  \__/        
                                                                              
                      - O R C A' S   B I G   F R I E N D -                    
                                      &                                       
                       - I N T E G R A L  F E E D E R -                       
                                                                              
 v1 FN, 2020, v2 2021, v3 2022-2024                                           
------------------------------------------------------------------------------


----------------------
SHARK INTEGRAL PACKAGE
----------------------

Number of atoms                             ...     12
Number of basis functions                   ...    197
Number of shells                            ...     83
Maximum angular momentum                    ...      3
Integral batch strategy                     ... SHARK/LIBINT Hybrid
RI-J (if used) integral strategy            ... SPLIT-RIJ (Revised 2003 algorithm where possible)
Printlevel                                  ...      1
Contraction scheme used                     ... SEGMENTED contraction
Prescreening option                         ... SCHWARTZ
   Thresh                                   ... 3.000e-11
   Tcut                                     ... 1.000e-12
   Tpresel                                  ... 1.000e-12 
Coulomb Range Separation                    ... NOT USED
Exchange Range Separation                   ... Long Range
   Mu parameter                             ... 3.000e-01
   Scaling (regular/separated)              ... 1.670e-01 8.330e-01
Multipole approximations                    ... NOT USED
Finite Nucleus Model                        ... NOT USED
CABS basis                                  ... NOT available
Auxiliary Coulomb fitting basis             ... AVAILABLE
   # of basis functions in Aux-J            ...    322
   # of shells in Aux-J                     ...    110
   Maximum angular momentum in Aux-J        ...      4
Auxiliary J/K fitting basis                 ... NOT available
Auxiliary Correlation fitting basis         ... NOT available
Auxiliary 'external' fitting basis          ... NOT available

Checking pre-screening integrals            ... done (  0.0 sec) Dimension = 83
Check shell pair data                       ... done (  0.0 sec)
Shell pair information
Shell pair cut-off parameter TPreSel        ...   1.0e-12
Total number of shell pairs                 ...      3486
Shell pairs after pre-screening             ...      3345
Total number of primitive shell pairs       ...     10284
Primitive shell pairs kept                  ...      7853
          la=0 lb=0:   1011 shell pairs
          la=1 lb=0:    966 shell pairs
          la=1 lb=1:    249 shell pairs
          la=2 lb=0:    443 shell pairs
          la=2 lb=1:    220 shell pairs
          la=2 lb=2:     55 shell pairs
          la=3 lb=0:    226 shell pairs
          la=3 lb=1:    110 shell pairs
          la=3 lb=2:     50 shell pairs
          la=3 lb=3:     15 shell pairs

Calculating one electron integrals          ... done (  0.0 sec)
Calculating RI/J V-Matrix + Cholesky decomp.... done (  0.0 sec)
Calculating Nuclear repulsion               ... done (  0.0 sec) ENN=    179.807386701591 Eh

Diagonalization of the overlap matrix:
Smallest eigenvalue                        ... 4.077e-04
Time for diagonalization                   ...    0.003 sec
Threshold for overlap eigenvalues          ... 1.000e-07
Number of eigenvalues below threshold      ... 0
Time for construction of square roots      ...    0.001 sec
Total time needed                          ...    0.004 sec

-------------------
DFT GRID GENERATION
-------------------

General Integration Accuracy     IntAcc      ... 4.388
Radial Grid Type                 RadialGrid  ... OptM3 with GC (2021)
Angular Grid (max. ang.)         AngularGrid ... 4 (Lebedev-302)
Angular grid pruning method      GridPruning ... 4 (adaptive)
Weight generation scheme         WeightScheme... mBecke (2022)
Basis function cutoff            BFCut       ... 1.0000e-11
Integration weight cutoff        WCut        ... 1.0000e-14
Partially contracted basis set               ... off
Rotationally invariant grid construction     ... off
Angular grids for H and He will be reduced by one unit

Total number of grid points                  ...    52950
Total number of batches                      ...      831
Average number of points per batch           ...       63
Average number of grid points per atom       ...     4412

--------------------
COSX GRID GENERATION
--------------------

GRIDX 1
-------
General Integration Accuracy     IntAcc      ... 3.816
Radial Grid Type                 RadialGrid  ... OptM3 with GC (2021)
Angular Grid (max. ang.)         AngularGrid ... 1 (Lebedev-50)
Angular grid pruning method      GridPruning ... 4 (adaptive)
Weight generation scheme         WeightScheme... mBecke (2022)
Basis function cutoff            BFCut       ... 1.0000e-11
Integration weight cutoff        WCut        ... 1.0000e-14
Partially contracted basis set               ... on
Rotationally invariant grid construction     ... off
Angular grids for H and He will be reduced by one unit

Total number of grid points                  ...     6804
Total number of batches                      ...       60
Average number of points per batch           ...      113
Average number of grid points per atom       ...      567
UseSFitting                                  ... on

GRIDX 2
-------
General Integration Accuracy     IntAcc      ... 4.020
Radial Grid Type                 RadialGrid  ... OptM3 with GC (2021)
Angular Grid (max. ang.)         AngularGrid ... 2 (Lebedev-110)
Angular grid pruning method      GridPruning ... 4 (adaptive)
Weight generation scheme         WeightScheme... mBecke (2022)
Basis function cutoff            BFCut       ... 1.0000e-11
Integration weight cutoff        WCut        ... 1.0000e-14
Partially contracted basis set               ... on
Rotationally invariant grid construction     ... off
Angular grids for H and He will be reduced by one unit

Total number of grid points                  ...    14568
Total number of batches                      ...      121
Average number of points per batch           ...      120
Average number of grid points per atom       ...     1214
UseSFitting                                  ... on

GRIDX 3
-------
General Integration Accuracy     IntAcc      ... 4.338
Radial Grid Type                 RadialGrid  ... OptM3 with GC (2021)
Angular Grid (max. ang.)         AngularGrid ... 3 (Lebedev-194)
Angular grid pruning method      GridPruning ... 4 (adaptive)
Weight generation scheme         WeightScheme... mBecke (2022)
Basis function cutoff            BFCut       ... 1.0000e-11
Integration weight cutoff        WCut        ... 1.0000e-14
Partially contracted basis set               ... on
Rotationally invariant grid construction     ... off
Angular grids for H and He will be reduced by one unit

Total number of grid points                  ...    32020
Total number of batches                      ...      256
Average number of points per batch           ...      125
Average number of grid points per atom       ...     2668
UseSFitting                                  ... on
Initializing property integral containers    ... done (  0.0 sec)

SHARK setup successfully completed in   0.6 seconds

Maximum memory used throughout the entire STARTUP-calculation: 28.7 MB
-------------------------------------------------------------------------------
                                 ORCA GUESS
                   Start orbitals & Density for SCF / CASSCF
-------------------------------------------------------------------------------

------------
SCF SETTINGS
------------
Hamiltonian:
 Density Functional     Method          .... DFT(GTOs)
 Exchange Functional    Exchange        .... WB97X-V
 Correlation Functional Correlation     .... WB97X-V
 Gradients option       PostSCFGGA      .... off
 Hybrid DFT is turned on
   Fraction HF Exchange ScalHFX         ....  0.167000
   Scaling of DF-GGA-X  ScalDFX         ....  0.000000
   Scaling of DF-GGA-C  ScalDFC         ....  1.000000
   Scaling of DF-LDA-C  ScalLDAC        ....  1.000000
   Perturbative correction              ....  0.000000
 Long-range corrected/Screened/Range-Separated Hybrid DFT is turned on
   Amount of maximum screened exact exchange              ....  0.833000
   Range separation parameter mu (erf(mu*r12)/r12)        ....  0.300000
   NL short-range parameter             ....  6.000000
   NL long-range parameter              ....  0.010000
 RI-approximation to the Coulomb term is turned on
   Number of AuxJ basis functions       .... 322
   RIJ-COSX (HFX calculated with COS-X)).... on


General Settings:
 Integral files         IntName         .... sp
 Hartree-Fock type      HFTyp           .... RHF
 Total Charge           Charge          ....    0
 Multiplicity           Mult            ....    1
 Number of Electrons    NEL             ....   40
 Basis Dimension        Dim             ....  197
 Nuclear Repulsion      ENuc            ....    179.8073867016 Eh

Convergence Acceleration:
 AO-DIIS                CNVDIIS         .... on
   Start iteration      DIISMaxIt       ....    12
   Startup error        DIISStart       ....  0.200000
   # of expansion vecs  DIISMaxEq       ....     5
   Bias factor          DIISBfac        ....   1.050
   Max. coefficient     DIISMaxC        ....  10.000
 MO-DIIS                CNVKDIIS        .... off
 Trust-Rad. Augm. Hess. CNVTRAH         .... auto
   Auto Start mean grad. ratio tolernc. ....  1.125000
   Auto Start start iteration           ....     1
   Auto Start num. interpolation iter.  ....    10
   Max. Number of Micro iterations      ....    24
   Max. Number of Macro iterations      .... Maxiter - #DIIS iter
   Number of Davidson start vectors     ....     2
   Converg. threshold    (grad. norm)   ....   1.000e-04
   Grad. Scal. Fac. for Micro threshold ....   0.100
   Minimum threshold for Micro iter.    ....   1.000e-02
   NR start threshold (gradient norm)   ....   1.000e-04
   Initial trust radius                 ....   0.400
   Minimum AH scaling param. (alpha)    ....   1.000
   Maximum AH scaling param. (alpha)    .... 1000.000
   Quad. conv. algorithm                .... NR
   White noise on init. David. guess    .... on
   Maximum white noise                  ....   0.010
   Pseudo random numbers                .... off
   Inactive MOs                         .... canonical
   Orbital update algorithm             .... Taylor
   Preconditioner                       .... Diag
   Full preconditioner red. dimension   ....   250
 SOSCF                  CNVSOSCF        .... on
   Start iteration      SOSCFMaxIt      ....   150
   Startup grad/error   SOSCFStart      ....  0.003300
   Hessian update       SOSCFHessUp     .... L-BFGS
 Level Shifting         CNVShift        .... on
   Level shift para.    LevelShift      ....    0.2500
   Turn off err/grad.   ShiftErr        ....    0.0010
 Zerner damping         CNVZerner       .... off
 Static damping         CNVDamp         .... on
   Fraction old density DampFac         ....    0.7000
   Max. Damping (<1)    DampMax         ....    0.9800
   Min. Damping (>=0)   DampMin         ....    0.0000
   Turn off err/grad.   DampErr         ....    0.1000

SCF Procedure:
 Maximum # iterations   MaxIter         ....   125
 SCF integral mode      SCFMode         .... Direct
   Integral package                     .... SHARK and LIBINT hybrid scheme
 Reset frequency        DirectResetFreq ....    20
 Integral Threshold     Thresh          ....  3.000e-11 Eh
 Primitive CutOff       TCut            ....  1.000e-12 Eh

Convergence Tolerance:
 Convergence Check Mode ConvCheckMode   .... Total+1el-Energy
 Convergence forced     ConvForced      .... 0
 Energy Change          TolE            ....  1.000e-07 Eh
 1-El. energy change                    ....  1.000e-04 Eh
 Orbital Gradient       TolG            ....  1.000e-04
 Orbital Rotation angle TolX            ....  1.000e-04
 DIIS Error             TolErr          ....  1.000e-07

---------------------
INITIAL GUESS: MOREAD
---------------------
Guess MOs are being read from file: sp.ges
Input Geometry matches current geometry (good)
Atom 0: N(Shells)= 11 and 9 - projection required
Input basis set needs projection
NBasis(read)= 140
NBasis(calc)= 197
Basis set overlap was calculated
Using GuessMode=FMatrix for the initial guess
C*T matrix was formed
Effective Fockian was calculated
Effective Fockian was diagonalized
Initial density was built
                      ------------------
                      INITIAL GUESS DONE (   0.0 sec)
                      ------------------
             **** ENERGY FILE WAS UPDATED (sp.en.tmp) ****
Finished Guess after   0.0 sec
Maximum memory used throughout the entire GUESS-calculation: 16.1 MB

-------------------------------------------------------------------------------------------
                                      ORCA LEAN-SCF
                              memory conserving SCF solver
-------------------------------------------------------------------------------------------

----------------------------------------D-I-I-S--------------------------------------------
Iteration    Energy (Eh)           Delta-E    RMSDP     MaxDP     DIISErr   Damp  Time(sec)
-------------------------------------------------------------------------------------------
               ***  Starting incremental Fock matrix formation  ***
    1    -248.6902213440093590     0.00e+00  8.70e-04  2.32e-02  6.04e-02  0.700   4.0
    2    -248.6937392997200220    -3.52e-03  7.65e-04  2.24e-02  4.43e-02  0.700   2.0
                               ***Turning on AO-DIIS***
    3    -248.6964007695460452    -2.66e-03  6.47e-04  1.99e-02  3.19e-02  0.700   2.0
    4    -248.6983658081207125    -1.97e-03  1.63e-03  5.19e-02  2.24e-02  0.000   1.9
                              *** Initializing SOSCF ***
---------------------------------------S-O-S-C-F--------------------------------------
Iteration    Energy (Eh)           Delta-E    RMSDP     MaxDP     MaxGrad    Time(sec)
--------------------------------------------------------------------------------------
    5    -248.7033983437184759    -5.03e-03  8.76e-05  3.31e-03  1.72e-03     1.9
               *** Restarting incremental Fock matrix formation ***
    6    -248.7034278077775582    -2.95e-05  4.47e-05  1.47e-03  5.73e-04     3.9
    7    -248.7034341133939677    -6.31e-06  2.57e-05  7.52e-04  1.85e-04     3.1
    8    -248.7034351182081480    -1.00e-06  5.02e-06  1.91e-04  1.17e-04     3.1
    9    -248.7034352648213087    -1.47e-07  3.34e-06  1.05e-04  7.05e-05     2.7
   10    -248.7034353095208701    -4.47e-08  7.87e-07  2.73e-05  1.67e-05     2.6
                 **** Energy Check signals convergence ****

               *****************************************************
               *                     SUCCESS                       *
               *           SCF CONVERGED AFTER  10 CYCLES          *
               *****************************************************


------------------
NL GRID GENERATION
------------------

General Integration Accuracy     IntAcc      ... 4.004
Radial Grid Type                 RadialGrid  ... OptM3 with GC (2021)
Angular Grid (max. ang.)         AngularGrid ... 2 (Lebedev-110)
Angular grid pruning method      GridPruning ... 4 (adaptive)
Weight generation scheme         WeightScheme... mBecke (2022)
Basis function cutoff            BFCut       ... 1.0000e-10
Integration weight cutoff        WCut        ... 1.0000e-14
Partially contracted basis set               ... off
Rotationally invariant grid construction     ... off
Angular grids for H and He will be reduced by one unit

Total number of grid points                  ...    16256
Total number of batches                      ...      260
Average number of points per batch           ...       62
Average number of grid points per atom       ...     1355
Final grid set up in    0.1 sec

-------------------------------------------------------------------------------
                    post-SCF DFT-NL dispersion correction                      
-------------------------------------------------------------------------------

SCF Energy:     -248.703435310 
NL    Energy:      0.157042782 
SC+NL Energy:   -248.546392527 
NL done in  :              0.8 sec
-------------------------------------------------------------------------------
Recomputing exchange energy using gridx3       ... done (    7.278 sec)
Old exchange energy                            :    -10.722404560 Eh
New exchange energy                            :    -10.722411611 Eh
Exchange energy change after final integration :     -0.000007051 Eh
Total energy after final integration           :   -248.546399578 Eh
             **** ENERGY FILE WAS UPDATED (sp.en.tmp) ****

----------------
TOTAL SCF ENERGY
----------------

Total Energy       :       -248.54639957817639 Eh           -6763.29137 eV

Components:
Nuclear Repulsion  :        179.80738670159101 Eh            4892.80774 eV
Electronic Energy  :       -428.51082201111188 Eh          -11660.37227 eV
One Electron Energy:       -692.63492476362967 Eh          -18847.55449 eV
Two Electron Energy:        264.12410275251779 Eh            7187.18223 eV

Virial components:
Potential Energy   :       -496.10222962168348 Eh          -13499.62798 eV
Kinetic Energy     :        247.55583004350711 Eh            6736.33660 eV
Virial Ratio       :          2.00400139853097

DFT components:
N(Alpha)           :       19.999996925500 electrons
N(Beta)            :       19.999996925500 electrons
N(Total)           :       39.999993851000 electrons
E(X)               :      -22.155228677358 Eh       
E(C)               :       -1.648844195533 Eh       
NL Energy, E(C,NL) :        0.157042782298 Eh       
E(XC)              :      -23.647030090592 Eh       

---------------
SCF CONVERGENCE
---------------

  Last Energy change         ...    4.4700e-08  Tolerance :   1.0000e-07
  Last MAX-Density change    ...    2.7276e-05  Tolerance :   1.0000e-05
  Last RMS-Density change    ...    7.8706e-07  Tolerance :   1.0000e-06
  Last DIIS Error            ...    1.7192e-03  Tolerance :   1.0000e-07
  Last Orbital Gradient      ...    1.6741e-05  Tolerance :   1.0000e-04
  Last Orbital Rotation      ...    2.2704e-05  Tolerance :   1.0000e-04


----------------
ORBITAL ENERGIES
----------------

  NO   OCC          E(Eh)            E(eV) 
   0   2.0000     -19.168965      -521.6141 
   1   2.0000     -14.437323      -392.8595 
   2   2.0000     -10.372850      -282.2596 
   3   2.0000     -10.302015      -280.3321 
   4   2.0000     -10.277355      -279.6611 
   5   2.0000      -1.163513       -31.6608 
   6   2.0000      -1.053510       -28.6675 
   7   2.0000      -0.886652       -24.1270 
   8   2.0000      -0.817895       -22.2561 
   9   2.0000      -0.705100       -19.1868 
  10   2.0000      -0.622563       -16.9408 
  11   2.0000      -0.583756       -15.8848 
  12   2.0000      -0.578818       -15.7505 
  13   2.0000      -0.538579       -14.6555 
  14   2.0000      -0.517717       -14.0878 
  15   2.0000      -0.505390       -13.7524 
  16   2.0000      -0.496018       -13.4973 
  17   2.0000      -0.463460       -12.6114 
  18   2.0000      -0.359872        -9.7926 
  19   2.0000      -0.359290        -9.7768 
  20   0.0000       0.098735         2.6867 
  21   0.0000       0.115036         3.1303 
  22   0.0000       0.136139         3.7045 
  23   0.0000       0.151386         4.1194 
  24   0.0000       0.188072         5.1177 
  25   0.0000       0.194881         5.3030 
  26   0.0000       0.205841         5.6012 
  27   0.0000       0.209104         5.6900 
  28   0.0000       0.218370         5.9421 
  29   0.0000       0.235992         6.4217 
  30   0.0000       0.275435         7.4950 
*Only the first 10 virtual orbitals were printed.

                    ********************************
                    * MULLIKEN POPULATION ANALYSIS *
                    ********************************

-----------------------
MULLIKEN ATOMIC CHARGES
-----------------------
   0 C :   -0.341034
   1 C :    0.305452
   2 O :   -0.398034
   3 N :   -0.307898
   4 C :   -0.238278
   5 H :    0.135322
   6 H :    0.094516
   7 H :    0.135740
   8 H :    0.217456
   9 H :    0.116076
  10 H :    0.164627
  11 H :    0.116054
Sum of atomic charges:    0.0000000

--------------------------------
MULLIKEN REDUCED ORBITAL CHARGES
--------------------------------
  0 C s       :     3.221641  s :     3.221641
      pz      :     1.090956  p :     3.071393
      px      :     0.995492
      py      :     0.984945
      dz2     :     0.008908  d :     0.044895
      dxz     :     0.013032
      dyz     :     0.002798
      dx2y2   :     0.012521
      dxy     :     0.007636
      f0      :     0.000222  f :     0.003105
      f+1     :     0.000782
      f-1     :     0.000279
      f+2     :     0.000031
      f-2     :     0.000184
      f+3     :     0.000728
      f-3     :     0.000881

  1 C s       :     3.074351  s :     3.074351
      pz      :     0.734677  p :     2.342157
      px      :     0.845172
      py      :     0.762308
      dz2     :     0.006793  d :     0.256798
      dxz     :     0.031216
      dyz     :     0.065669
      dx2y2   :     0.048845
      dxy     :     0.104275
      f0      :     0.002722  f :     0.021241
      f+1     :     0.001026
      f-1     :     0.001379
      f+2     :     0.003098
      f-2     :     0.001918
      f+3     :     0.007983
      f-3     :     0.003115

  2 O s       :     3.799348  s :     3.799348
      pz      :     1.444138  p :     4.565240
      px      :     1.790090
      py      :     1.331013
      dz2     :     0.002888  d :     0.031582
      dxz     :     0.000045
      dyz     :     0.011086
      dx2y2   :     0.009563
      dxy     :     0.008000
      f0      :     0.000191  f :     0.001864
      f+1     :     0.000023
      f-1     :     0.000193
      f+2     :     0.000444
      f-2     :     0.000011
      f+3     :     0.000539
      f-3     :     0.000464

  3 N s       :     3.411650  s :     3.411650
      pz      :     1.668861  p :     3.835342
      px      :     1.090373
      py      :     1.076107
      dz2     :     0.004306  d :     0.056732
      dxz     :     0.012929
      dyz     :     0.001898
      dx2y2   :     0.022691
      dxy     :     0.014908
      f0      :     0.000715  f :     0.004174
      f+1     :     0.000705
      f-1     :     0.000647
      f+2     :     0.000141
      f-2     :     0.000310
      f+3     :     0.000883
      f-3     :     0.000773

  4 C s       :     3.227802  s :     3.227802
      pz      :     1.044705  p :     2.933243
      px      :     0.814729
      py      :     1.073810
      dz2     :     0.006788  d :     0.071530
      dxz     :     0.030809
      dyz     :     0.004699
      dx2y2   :     0.018535
      dxy     :     0.010699
      f0      :     0.000807  f :     0.005702
      f+1     :     0.001059
      f-1     :     0.000364
      f+2     :     0.000500
      f-2     :     0.000738
      f+3     :     0.001080
      f-3     :     0.001154

  5 H s       :     0.843007  s :     0.843007
      pz      :     0.010000  p :     0.021671
      px      :     0.007062
      py      :     0.004609

  6 H s       :     0.884143  s :     0.884143
      pz      :     0.004200  p :     0.021342
      px      :     0.004138
      py      :     0.013004

  7 H s       :     0.842610  s :     0.842610
      pz      :     0.009663  p :     0.021650
      px      :     0.007239
      py      :     0.004747

  8 H s       :     0.743580  s :     0.743580
      pz      :     0.012815  p :     0.038963
      px      :     0.005867
      py      :     0.020282

  9 H s       :     0.863520  s :     0.863520
      pz      :     0.009874  p :     0.020404
      px      :     0.005959
      py      :     0.004570

 10 H s       :     0.813044  s :     0.813044
      pz      :     0.004125  p :     0.022329
      px      :     0.004021
      py      :     0.014182

 11 H s       :     0.863542  s :     0.863542
      pz      :     0.009879  p :     0.020404
      px      :     0.005948
      py      :     0.004577


------------------------
MULLIKEN OVERLAP CHARGES
------------------------
B(  0-C ,  1-C ) :   0.6038 B(  0-C ,  2-O ) :  -0.1572 B(  0-C ,  3-N ) :  -0.1763 
B(  0-C ,  5-H ) :   0.7847 B(  0-C ,  6-H ) :   0.7840 B(  0-C ,  7-H ) :   0.7886 
B(  1-C ,  2-O ) :   1.4210 B(  1-C ,  3-N ) :   0.7194 B(  1-C ,  4-C ) :  -0.0764 
B(  1-C ,  6-H ) :  -0.1111 B(  1-C ,  8-H ) :  -0.0641 B(  2-O ,  3-N ) :  -0.2501 
B(  3-N ,  4-C ) :   0.4880 B(  3-N ,  8-H ) :   0.7347 B(  3-N ,  9-H ) :  -0.0845 
B(  3-N , 10-H ) :  -0.0747 B(  3-N , 11-H ) :  -0.0853 B(  4-C ,  8-H ) :  -0.0682 
B(  4-C ,  9-H ) :   0.8260 B(  4-C , 10-H ) :   0.8252 B(  4-C , 11-H ) :   0.8263 
B(  9-H , 11-H ) :  -0.0748 


                     *******************************
                     * LOEWDIN POPULATION ANALYSIS *
                     *******************************

----------------------
LOEWDIN ATOMIC CHARGES
----------------------
   0 C :   -0.261854
   1 C :   -0.472661
   2 O :    0.046211
   3 N :    0.080623
   4 C :   -0.303994
   5 H :    0.135682
   6 H :    0.114484
   7 H :    0.135621
   8 H :    0.174900
   9 H :    0.109779
  10 H :    0.131437
  11 H :    0.109771

-------------------------------
LOEWDIN REDUCED ORBITAL CHARGES
-------------------------------
  0 C s       :     2.830427  s :     2.830427
      pz      :     1.084421  p :     3.182211
      px      :     1.047295
      py      :     1.050495
      dz2     :     0.037952  d :     0.226187
      dxz     :     0.062454
      dyz     :     0.012842
      dx2y2   :     0.069599
      dxy     :     0.043340
      f0      :     0.001506  f :     0.023030
      f+1     :     0.003892
      f-1     :     0.003101
      f+2     :     0.001225
      f-2     :     0.003972
      f+3     :     0.004511
      f-3     :     0.004823

  1 C s       :     2.752482  s :     2.752482
      pz      :     0.726215  p :     2.684203
      px      :     0.967087
      py      :     0.990901
      dz2     :     0.052866  d :     0.905454
      dxz     :     0.100612
      dyz     :     0.185506
      dx2y2   :     0.217738
      dxy     :     0.348732
      f0      :     0.008342  f :     0.130521
      f+1     :     0.005422
      f-1     :     0.010415
      f+2     :     0.021406
      f-2     :     0.012430
      f+3     :     0.052503
      f-3     :     0.020003

  2 O s       :     3.401384  s :     3.401384
      pz      :     1.362964  p :     4.480422
      px      :     1.637815
      py      :     1.479643
      dz2     :     0.007891  d :     0.066191
      dxz     :     0.000059
      dyz     :     0.013901
      dx2y2   :     0.025130
      dxy     :     0.019210
      f0      :     0.000415  f :     0.005791
      f+1     :     0.000113
      f-1     :     0.000925
      f+2     :     0.000764
      f-2     :     0.000028
      f+3     :     0.001785
      f-3     :     0.001761

  3 N s       :     2.932765  s :     2.932765
      pz      :     1.457434  p :     3.754995
      px      :     1.169086
      py      :     1.128475
      dz2     :     0.014242  d :     0.217320
      dxz     :     0.036964
      dyz     :     0.009475
      dx2y2   :     0.092948
      dxy     :     0.063690
      f0      :     0.001378  f :     0.014297
      f+1     :     0.001852
      f-1     :     0.001647
      f+2     :     0.000708
      f-2     :     0.001780
      f+3     :     0.004610
      f-3     :     0.002322

  4 C s       :     2.835761  s :     2.835761
      pz      :     1.088074  p :     3.104715
      px      :     0.927759
      py      :     1.088883
      dz2     :     0.039835  d :     0.323642
      dxz     :     0.129572
      dyz     :     0.016390
      dx2y2   :     0.081355
      dxy     :     0.056489
      f0      :     0.004872  f :     0.039876
      f+1     :     0.005183
      f-1     :     0.003369
      f+2     :     0.003079
      f-2     :     0.007513
      f+3     :     0.007680
      f-3     :     0.008180

  5 H s       :     0.802888  s :     0.802888
      pz      :     0.028497  p :     0.061430
      px      :     0.018734
      py      :     0.014200

  6 H s       :     0.825024  s :     0.825024
      pz      :     0.013530  p :     0.060492
      px      :     0.012487
      py      :     0.034475

  7 H s       :     0.802945  s :     0.802945
      pz      :     0.027638  p :     0.061433
      px      :     0.019189
      py      :     0.014606

  8 H s       :     0.717230  s :     0.717230
      pz      :     0.036183  p :     0.107870
      px      :     0.016805
      py      :     0.054883

  9 H s       :     0.830066  s :     0.830066
      pz      :     0.028994  p :     0.060155
      px      :     0.016304
      py      :     0.014858

 10 H s       :     0.803831  s :     0.803831
      pz      :     0.012978  p :     0.064732
      px      :     0.011363
      py      :     0.040390

 11 H s       :     0.830074  s :     0.830074
      pz      :     0.029002  p :     0.060155
      px      :     0.016273
      py      :     0.014880


---------------------------------
LOEWDIN BOND ORDERS (THRESH 0.050000)
---------------------------------
B(  0-C ,  1-C ) :   1.2228 B(  0-C ,  2-O ) :   0.1666 B(  0-C ,  3-N ) :   0.1531 
B(  0-C ,  5-H ) :   0.8910 B(  0-C ,  6-H ) :   0.9068 B(  0-C ,  7-H ) :   0.8914 
B(  1-C ,  2-O ) :   2.5845 B(  1-C ,  3-N ) :   1.5897 B(  1-C ,  4-C ) :   0.1813 
B(  1-C ,  5-H ) :   0.0883 B(  1-C ,  6-H ) :   0.0761 B(  1-C ,  7-H ) :   0.0881 
B(  1-C ,  8-H ) :   0.0963 B(  2-O ,  3-N ) :   0.2024 B(  3-N ,  4-C ) :   1.3253 
B(  3-N ,  8-H ) :   0.8783 B(  3-N ,  9-H ) :   0.0594 B(  3-N , 10-H ) :   0.0602 
B(  3-N , 11-H ) :   0.0594 B(  4-C ,  8-H ) :   0.0744 B(  4-C ,  9-H ) :   0.9295 
B(  4-C , 10-H ) :   0.9052 B(  4-C , 11-H ) :   0.9295 

------------------------------------------
LOEWDIN REDUCED ORBITAL POPULATIONS PER MO
-------------------------------------------
THRESHOLD FOR PRINTING IS 0.1%%
                      0         1         2         3         4         5   
                 -19.16897 -14.43732 -10.37285 -10.30201 -10.27736  -1.16351
                   2.00000   2.00000   2.00000   2.00000   2.00000   2.00000
                  --------  --------  --------  --------  --------  --------
 0 C  s               0.0       0.0       0.0       0.0      99.4       1.6
 0 C  px              0.0       0.0       0.1       0.0       0.0       1.7
 0 C  py              0.0       0.0       0.0       0.0       0.0       1.1
 0 C  dz2             0.0       0.0       0.0       0.0       0.0       0.1
 0 C  dxy             0.0       0.0       0.1       0.0       0.0       0.4
 1 C  s               0.0       0.0      98.9       0.0       0.0      21.6
 1 C  px              0.0       0.1       0.0       0.0       0.1       0.6
 1 C  py              0.1       0.0       0.0       0.0       0.0       6.9
 1 C  dz2             0.0       0.0       0.0       0.0       0.0       1.6
 1 C  dx2y2           0.1       0.0       0.0       0.0       0.0       1.7
 1 C  dxy             0.0       0.1       0.0       0.0       0.1       0.1
 1 C  f-1             0.0       0.0       0.0       0.0       0.0       0.1
 1 C  f-3             0.1       0.0       0.0       0.0       0.0       0.8
 2 O  s              99.6       0.0       0.0       0.0       0.0      39.0
 2 O  py              0.0       0.0       0.2       0.0       0.0       5.6
 2 O  dz2             0.0       0.0       0.1       0.0       0.0       0.1
 2 O  dx2y2           0.0       0.0       0.2       0.0       0.0       0.4
 3 N  s               0.0      99.4       0.0       0.0       0.0       7.4
 3 N  px              0.0       0.0       0.1       0.1       0.0       0.9
 3 N  py              0.0       0.0       0.0       0.0       0.0       1.6
 3 N  dz2             0.0       0.0       0.0       0.0       0.0       0.2
 3 N  dxy             0.0       0.0       0.1       0.0       0.0       0.2
 4 C  s               0.0       0.0       0.0      99.5       0.0       1.1
 4 C  px              0.0       0.0       0.0       0.0       0.0       1.6
 4 C  dz2             0.0       0.0       0.0       0.0       0.0       0.1
 4 C  dx2y2           0.0       0.0       0.0       0.0       0.0       0.2
 5 H  s               0.0       0.0       0.0       0.0       0.1       0.3
 6 H  s               0.0       0.0       0.0       0.0       0.1       0.2
 7 H  s               0.0       0.0       0.0       0.0       0.1       0.3
 8 H  s               0.0       0.0       0.0       0.0       0.0       1.2
 8 H  py              0.0       0.1       0.0       0.0       0.0       0.1
 9 H  s               0.0       0.0       0.0       0.1       0.0       0.1
10 H  s               0.0       0.0       0.0       0.1       0.0       0.4
11 H  s               0.0       0.0       0.0       0.1       0.0       0.1

                      6         7         8         9        10        11   
                  -1.05351  -0.88665  -0.81789  -0.70510  -0.62256  -0.58376
                   2.00000   2.00000   2.00000   2.00000   2.00000   2.00000
                  --------  --------  --------  --------  --------  --------
 0 C  s               0.2      26.0      11.5       0.5       1.5       0.1
 0 C  px              0.5       0.6       1.1       1.7      14.9       0.1
 0 C  py              0.2       0.0       0.0       0.2       4.2      17.6
 0 C  dz2             0.0       0.1       0.0       0.0       0.4       0.1
 0 C  dx2y2           0.3       0.1       0.2       0.3       0.2       0.1
 0 C  dxy             0.0       0.0       0.0       0.1       0.6       0.4
 0 C  f-3             0.0       0.1       0.0       0.0       0.0       0.0
 1 C  s               0.7       5.2       0.4       5.2       3.1       1.3
 1 C  px              5.3       6.8       6.7       4.1       7.4       5.6
 1 C  py             14.5       8.4       0.3       2.2       1.6       2.1
 1 C  dz2             0.1       0.1       0.0       0.2       0.1       0.2
 1 C  dx2y2           2.1       0.4       0.4       1.4       0.6       3.3
 1 C  dxy             1.4       0.5       1.5       0.2       0.1       0.1
 1 C  f-1             0.2       0.1       0.0       0.0       0.0       0.0
 2 O  s              11.1       2.3       0.0       4.1       0.6       5.6
 2 O  px              0.2       0.4       0.4       1.4       3.6       4.2
 2 O  py              0.6       0.7       0.0       3.7       1.5      16.3
 2 O  dx2y2           0.0       0.0       0.0       0.1       0.0       0.2
 2 O  dxy             0.0       0.1       0.1       0.1       0.2       0.1
 3 N  s              33.7       0.1       2.5       1.2       1.1       0.2
 3 N  px              0.2      10.8      11.2       7.4       5.6      11.3
 3 N  py              0.0       0.4       0.9      33.7       9.6       1.0
 3 N  dz2             0.2       0.0       0.0       0.0       0.0       0.0
 3 N  dx2y2           0.1       0.0       0.5       0.7       0.1       0.2
 3 N  dxy             0.0       0.2       0.6       0.3       0.1       0.0
 4 C  s               8.0       8.7      21.7       0.8       1.5       0.3
 4 C  px              4.0       0.1       1.8       0.2      17.8       6.9
 4 C  py              1.1       0.0       0.1       6.7       0.2       5.0
 4 C  dz2             0.4       0.0       0.1       0.0       0.5       0.0
 4 C  dx2y2           0.6       0.0       0.2       0.2       0.3       0.2
 4 C  dxy             0.7       0.0       0.1       1.0       0.1       0.3
 4 C  f+3             0.0       0.0       0.0       0.1       0.1       0.0
 4 C  f-3             0.1       0.0       0.0       0.0       0.0       0.0
 5 H  s               0.0       6.0       4.1       0.5       2.8       0.3
 5 H  pz              0.0       0.4       0.3       0.0       0.2       0.0
 5 H  px              0.0       0.2       0.1       0.0       0.0       0.0
 5 H  py              0.0       0.0       0.0       0.0       0.1       0.2
 6 H  s               0.1       6.7       3.0       0.5       2.9       9.3
 6 H  px              0.0       0.0       0.0       0.0       0.2       0.0
 6 H  py              0.0       0.6       0.3       0.0       0.1       0.2
 7 H  s               0.0       6.0       4.1       0.5       2.8       0.3
 7 H  pz              0.0       0.4       0.3       0.0       0.2       0.0
 7 H  px              0.0       0.2       0.1       0.0       0.0       0.0
 7 H  py              0.0       0.0       0.0       0.0       0.1       0.1
 8 H  s               7.8       0.0       1.7      15.6       2.5       0.9
 8 H  px              0.0       0.1       0.1       0.2       0.1       0.3
 8 H  py              1.3       0.0       0.3       0.8       0.1       0.0
 9 H  s               1.2       2.1       7.3       0.1       4.6       0.8
 9 H  pz              0.0       0.1       0.5       0.0       0.3       0.0
 9 H  px              0.1       0.1       0.1       0.0       0.0       0.0
10 H  s               1.0       2.1       6.4       3.0       0.1       3.2
10 H  px              0.0       0.0       0.0       0.0       0.2       0.1
10 H  py              0.1       0.2       0.6       0.2       0.0       0.0
11 H  s               1.2       2.1       7.3       0.1       4.6       0.7
11 H  pz              0.0       0.1       0.5       0.0       0.3       0.0
11 H  px              0.1       0.1       0.1       0.0       0.0       0.0

                     12        13        14        15        16        17   
                  -0.57882  -0.53858  -0.51772  -0.50539  -0.49602  -0.46346
                   2.00000   2.00000   2.00000   2.00000   2.00000   2.00000
                  --------  --------  --------  --------  --------  --------
 0 C  pz             14.1      25.5       0.0       0.0       0.0      14.6
 0 C  px              0.0       0.0       0.0      25.5       1.6       0.0
 0 C  py              0.0       0.0      18.0       5.6       2.9       0.0
 0 C  dz2             0.0       0.0       0.2       0.7       0.2       0.0
 0 C  dxz             0.0       0.5       0.0       0.0       0.0       2.6
 0 C  dyz             0.3       0.3       0.0       0.0       0.0       0.0
 0 C  dx2y2           0.0       0.0       0.9       0.5       0.6       0.0
 0 C  dxy             0.0       0.0       0.0       0.3       0.1       0.0
 0 C  f-2             0.0       0.0       0.0       0.0       0.0       0.2
 1 C  s               0.0       0.0       0.6       0.2       0.1       0.0
 1 C  pz             17.6       4.0       0.0       0.0       0.0      14.7
 1 C  px              0.0       0.0       2.5       6.0       2.0       0.0
 1 C  py              0.0       0.0       6.7       2.8       3.7       0.0
 1 C  dz2             0.0       0.0       0.2       0.1       0.0       0.0
 1 C  dxz             0.0       1.3       0.0       0.0       0.0       1.6
 1 C  dyz             0.0       0.0       0.0       0.0       0.0       2.0
 1 C  dx2y2           0.0       0.0       0.4       0.1       0.2       0.0
 1 C  dxy             0.0       0.0       0.3       0.5       0.2       0.0
 1 C  f0              0.3       0.0       0.0       0.0       0.0       0.1
 1 C  f+2             0.0       0.0       0.0       0.0       0.0       0.4
 1 C  f-2             0.0       0.1       0.0       0.0       0.0       0.1
 1 C  f+3             0.0       0.0       0.0       0.9       0.0       0.0
 2 O  s               0.0       0.0       3.8       1.4       2.7       0.0
 2 O  pz              7.9       2.8       0.0       0.0       0.0      29.3
 2 O  px              0.0       0.0       1.5       3.3       0.1       0.0
 2 O  py              0.0       0.0      25.1       7.0      13.2       0.0
 2 O  dyz             0.3       0.1       0.0       0.0       0.0       0.3
 2 O  dx2y2           0.0       0.0       0.3       0.0       0.0       0.0
 3 N  s               0.0       0.0       0.2       0.0       0.1       0.0
 3 N  pz             19.7       2.3       0.0       0.0       0.0       6.2
 3 N  px              0.0       0.0       0.1       7.2       1.1       0.0
 3 N  py              0.0       0.0       0.1       3.2       4.3       0.0
 3 N  dxz             0.0       0.9       0.0       0.0       0.0       0.8
 3 N  dyz             0.2       0.0       0.0       0.0       0.0       0.0
 3 N  dx2y2           0.0       0.0       0.0       1.5       1.4       0.0
 3 N  dxy             0.0       0.0       0.5       0.3       0.8       0.0
 3 N  f+3             0.0       0.0       0.1       0.0       0.0       0.0
 4 C  s               0.0       0.0       0.0       0.1       0.0       0.0
 4 C  pz             19.8      25.8       0.0       0.0       0.0       5.5
 4 C  px              0.0       0.0       2.7       6.4       4.5       0.0
 4 C  py              0.0       0.0      12.1       2.3      26.0       0.0
 4 C  dz2             0.0       0.0       0.2       0.0       0.5       0.0
 4 C  dxz             0.0       0.5       0.0       0.0       0.0       1.3
 4 C  dyz             0.3       0.3       0.0       0.0       0.0       0.0
 4 C  dx2y2           0.0       0.0       0.4       0.1       1.8       0.0
 4 C  dxy             0.0       0.0       0.1       0.1       0.2       0.0
 4 C  f+3             0.0       0.0       0.0       0.0       0.1       0.0
 5 H  s               3.7       8.4       0.6       5.7       0.8       6.8
 5 H  pz              0.0       0.0       0.0       0.3       0.0       0.0
 5 H  px              0.1       0.2       0.0       0.1       0.0       0.1
 5 H  py              0.0       0.1       0.2       0.0       0.0       0.0
 6 H  s               0.0       0.0       9.8       5.3       2.2       0.0
 6 H  pz              0.1       0.3       0.0       0.0       0.0       0.2
 6 H  px              0.0       0.0       0.0       0.2       0.0       0.0
 6 H  py              0.0       0.0       0.2       0.2       0.0       0.0
 7 H  s               3.6       8.0       0.8       6.2       0.9       6.5
 7 H  pz              0.0       0.0       0.0       0.3       0.0       0.0
 7 H  px              0.1       0.2       0.0       0.0       0.0       0.1
 7 H  py              0.0       0.1       0.2       0.0       0.0       0.1
 8 H  s               0.0       0.0       0.1       2.7       3.1       0.0
 8 H  pz              0.3       0.0       0.0       0.0       0.0       0.1
 9 H  s               5.1       8.6       1.6       0.5       3.6       2.9
 9 H  pz              0.0       0.0       0.1       0.0       0.2       0.0
 9 H  px              0.2       0.2       0.0       0.0       0.0       0.0
 9 H  py              0.0       0.1       0.1       0.1       0.2       0.0
10 H  s               0.0       0.0       7.0       1.0      15.6       0.0
10 H  pz              0.2       0.3       0.0       0.0       0.0       0.1
10 H  py              0.0       0.0       0.2       0.0       0.4       0.0
11 H  s               5.2       8.6       1.6       0.5       3.6       2.9
11 H  pz              0.0       0.0       0.1       0.0       0.2       0.0
11 H  px              0.2       0.2       0.0       0.0       0.0       0.0
11 H  py              0.0       0.1       0.1       0.1       0.2       0.0

                     18        19        20        21        22        23   
                  -0.35987  -0.35929   0.09874   0.11504   0.13614   0.15139
                   2.00000   2.00000   0.00000   0.00000   0.00000   0.00000
                  --------  --------  --------  --------  --------  --------
 0 C  s               0.6       0.0       4.1       0.0       4.4       3.0
 0 C  pz              0.0       0.1       0.0       0.7       0.0       0.0
 0 C  px              4.6       0.0       0.4       0.0       1.6       3.0
 0 C  py              2.8       0.0       1.7       0.0       0.5       1.5
 0 C  dz2             0.1       0.0       0.1       0.0       0.1       0.9
 0 C  dxz             0.0       0.0       0.0       9.3       0.0       0.0
 0 C  dx2y2           0.3       0.0       0.2       0.0       0.0       0.2
 0 C  dxy             0.0       0.0       0.3       0.0       0.0       0.5
 0 C  f0              0.0       0.0       0.0       0.1       0.0       0.0
 0 C  f-2             0.0       0.0       0.0       0.3       0.0       0.0
 1 C  s               0.2       0.0       1.5       0.0       0.1       3.8
 1 C  pz              0.0       0.0       0.0      35.6       0.0       0.0
 1 C  px              1.4       0.0       0.1       0.0       0.4       0.5
 1 C  py              0.3       0.0       0.7       0.0       0.1       0.6
 1 C  dz2             0.0       0.0       1.2       0.0       0.2       1.9
 1 C  dxz             0.0       2.1       0.0       1.3       0.0       0.0
 1 C  dyz             0.0       7.2       0.0       2.2       0.0       0.0
 1 C  dx2y2           0.0       0.0       0.4       0.0       0.4       0.8
 1 C  dxy            12.2       0.0       0.0       0.0       0.0       0.2
 1 C  f0              0.0       0.0       0.0       0.9       0.0       0.0
 1 C  f+2             0.0       0.7       0.0       0.2       0.0       0.0
 1 C  f-2             0.0       0.4       0.0       0.1       0.0       0.0
 1 C  f+3             1.5       0.0       0.0       0.0       0.0       0.0
 2 O  s               0.0       0.0       0.3       0.0       0.0       0.5
 2 O  pz              0.0      28.0       0.0      16.3       0.0       0.0
 2 O  px             66.9       0.0       0.1       0.0       0.7       0.1
 2 O  py              0.1       0.0       0.2       0.0       0.1       0.3
 2 O  dyz             0.0       0.0       0.0       2.5       0.0       0.0
 2 O  dxy             0.2       0.0       0.0       0.0       0.0       0.0
 2 O  f+2             0.0       0.0       0.0       0.1       0.0       0.0
 3 N  s               0.7       0.0       3.2       0.0       0.1       0.9
 3 N  pz              0.0      44.7       0.0       8.4       0.0       0.0
 3 N  px              2.4       0.0       0.0       0.0       0.1       0.6
 3 N  py              1.4       0.0       4.1       0.0       0.2       2.8
 3 N  dz2             0.1       0.0       0.0       0.0       0.3       0.9
 3 N  dxz             0.0       0.1       0.0       2.8       0.0       0.0
 3 N  dyz             0.0       0.2       0.0       0.8       0.0       0.0
 3 N  dx2y2           0.0       0.0       0.4       0.0       0.4       0.1
 3 N  dxy             0.0       0.0       0.0       0.0       0.2       0.1
 3 N  f0              0.0       0.0       0.0       0.1       0.0       0.0
 3 N  f-2             0.0       0.0       0.0       0.1       0.0       0.0
 4 C  s               0.1       0.0       1.5       0.0       8.0       2.4
 4 C  pz              0.0       3.3       0.0       0.3       0.0       0.0
 4 C  px              0.4       0.0       1.4       0.0       4.5       0.6
 4 C  py              0.8       0.0       1.7       0.0       0.2       3.9
 4 C  dz2             0.0       0.0       0.6       0.0       0.1       0.0
 4 C  dxz             0.0       4.6       0.0       2.6       0.0       0.0
 4 C  dyz             0.0       0.2       0.0       0.0       0.0       0.0
 4 C  dx2y2           0.2       0.0       0.0       0.0       0.0       0.0
 4 C  dxy             0.0       0.0       1.3       0.0       0.0       0.7
 4 C  f0              0.0       0.2       0.0       0.1       0.0       0.0
 4 C  f-2             0.0       0.3       0.0       0.1       0.0       0.0
 4 C  f-3             0.0       0.0       0.0       0.0       0.1       0.1
 5 H  s               0.1       0.0       4.5       5.4       8.7      15.0
 5 H  pz              0.0       0.0       0.4       0.2       0.8       1.4
 5 H  px              0.1       0.0       0.1       0.4       0.2       0.2
 5 H  py              0.0       0.0       0.2       0.0       0.1       0.0
 6 H  s               1.2       0.0      13.3       0.0       6.3       0.3
 6 H  px              0.1       0.0       0.2       0.0       0.1       0.0
 6 H  py              0.0       0.0       1.6       0.0       0.8       0.0
 7 H  s               0.1       0.0       4.5       4.8       8.7      14.9
 7 H  pz              0.0       0.0       0.4       0.1       0.8       1.4
 7 H  px              0.1       0.0       0.1       0.4       0.2       0.2
 7 H  py              0.0       0.0       0.2       0.0       0.1       0.0
 8 H  s               0.3       0.0      34.9       0.0       0.2      17.3
 8 H  pz              0.0       1.4       0.0       0.4       0.0       0.0
 8 H  px              0.1       0.0       0.0       0.0       0.1       0.1
 8 H  py              0.0       0.0       3.7       0.0       0.0       2.3
 9 H  s               0.0       3.1       4.2       1.4      19.0       4.6
 9 H  pz              0.0       0.0       0.4       0.0       1.7       0.4
 9 H  px              0.0       0.0       0.0       0.1       0.5       0.1
 9 H  py              0.0       0.0       0.1       0.0       0.1       0.0
10 H  s               0.3       0.0       0.5       0.0       5.9       4.6
10 H  px              0.1       0.0       0.1       0.0       0.0       0.0
10 H  py              0.1       0.0       0.1       0.0       0.9       0.7
11 H  s               0.0       3.1       4.3       1.4      19.0       4.8
11 H  pz              0.0       0.0       0.4       0.0       1.7       0.4
11 H  px              0.0       0.0       0.0       0.1       0.5       0.1
11 H  py              0.0       0.0       0.1       0.0       0.1       0.0

                     24        25        26        27        28        29   
                   0.18807   0.19488   0.20584   0.20910   0.21837   0.23599
                   0.00000   0.00000   0.00000   0.00000   0.00000   0.00000
                  --------  --------  --------  --------  --------  --------
 0 C  s               0.6       0.0       0.1       0.0       0.1       0.6
 0 C  pz              0.0       1.2       0.0      12.4       0.0       0.0
 0 C  px              2.5       0.0       4.7       0.0      16.4      21.1
 0 C  py              9.0       0.0       0.6       0.0       6.0       4.5
 0 C  dz2             3.1       0.0       0.8       0.0       4.4       0.2
 0 C  dxz             0.0       0.2       0.0       1.0       0.0       0.0
 0 C  dyz             0.0       0.0       0.0       5.6       0.0       0.0
 0 C  dx2y2           1.6       0.0       0.5       0.0       0.9       3.9
 0 C  dxy             0.1       0.0       1.7       0.0       3.4       1.6
 1 C  s               1.6       0.0       2.1       0.0       1.3      10.3
 1 C  pz              0.0       0.9       0.0       9.7       0.0       0.0
 1 C  px              0.9       0.0       0.2       0.0       3.6       0.6
 1 C  py              0.1       0.0       3.3       0.0       0.6       5.8
 1 C  dz2             0.8       0.0       0.4       0.0       0.3       2.0
 1 C  dxz             0.0       0.0       0.0       0.3       0.0       0.0
 1 C  dyz             0.0       0.0       0.0       0.2       0.0       0.0
 1 C  dx2y2           1.4       0.0       0.0       0.0       0.2       0.6
 1 C  dxy             0.5       0.0       0.1       0.0       0.3       0.2
 1 C  f0              0.0       0.0       0.0       0.5       0.0       0.0
 1 C  f+3             0.2       0.0       0.0       0.0       0.2       0.0
 2 O  s               0.1       0.0       0.5       0.0       0.0       2.9
 2 O  pz              0.0       0.5       0.0       5.8       0.0       0.0
 2 O  px              0.9       0.0       1.4       0.0       0.1       0.2
 2 O  py              0.1       0.0       1.1       0.0       0.3       1.7
 2 O  dyz             0.0       0.1       0.0       0.5       0.0       0.0
 2 O  dxy             0.2       0.0       0.0       0.0       0.2       0.0
 3 N  s               2.8       0.0       0.2       0.0       0.6       0.2
 3 N  pz              0.0       0.9       0.0       1.7       0.0       0.0
 3 N  px              0.5       0.0       1.0       0.0       1.5       0.2
 3 N  py              0.2       0.0       0.8       0.0       1.9       0.7
 3 N  dz2             0.1       0.0       0.5       0.0       0.0       0.3
 3 N  dxz             0.0       0.3       0.0       0.1       0.0       0.0
 3 N  dyz             0.0       1.2       0.0       0.8       0.0       0.0
 3 N  dx2y2           0.0       0.0       0.7       0.0       0.4       0.0
 3 N  dxy             0.1       0.0       1.8       0.0       0.1       0.0
 4 C  s               0.9       0.0       0.3       0.0       0.3       0.4
 4 C  pz              0.0      16.3       0.0       0.5       0.0       0.0
 4 C  px             13.6       0.0       0.3       0.0      24.3      13.9
 4 C  py              7.1       0.0       9.7       0.0       1.4       7.4
 4 C  dz2             1.4       0.0       4.9       0.0       6.1       1.1
 4 C  dxz             0.0       2.4       0.0       0.0       0.0       0.0
 4 C  dyz             0.0       3.9       0.0       0.4       0.0       0.0
 4 C  dx2y2           2.0       0.0       6.5       0.0       2.1       0.3
 4 C  dxy             1.8       0.0       0.6       0.0       0.9       0.1
 5 H  s               1.8       0.8       0.2      25.8       2.3       2.1
 5 H  pz              0.3       0.0       0.1       0.9       0.7       0.1
 5 H  px              0.0       0.1       0.0       1.1       0.1       0.4
 5 H  py              0.3       0.0       0.1       0.5       0.1       0.2
 6 H  s              32.1       0.0       0.3       0.0       4.1       4.2
 6 H  pz              0.0       0.0       0.0       1.3       0.0       0.0
 6 H  px              0.1       0.0       0.3       0.0       0.8       0.0
 6 H  py              3.6       0.0       0.0       0.0       0.4       0.5
 7 H  s               2.0       1.0       0.1      27.1       2.0       1.6
 7 H  pz              0.3       0.0       0.0       0.9       0.6       0.1
 7 H  px              0.0       0.1       0.1       1.1       0.1       0.4
 7 H  py              0.2       0.0       0.1       0.6       0.1       0.2
 8 H  s               1.5       0.0       1.3       0.0       3.1       2.0
 8 H  pz              0.0       0.3       0.0       0.3       0.0       0.0
 8 H  px              0.0       0.0       0.4       0.0       0.0       0.1
 8 H  py              0.4       0.0       0.1       0.0       0.3       0.2
 9 H  s               0.1      31.2       4.4       0.1       1.6       1.0
 9 H  pz              0.0       1.1       0.6       0.0       0.6       0.0
 9 H  px              0.3       1.4       0.1       0.0       0.4       0.1
 9 H  py              0.1       0.6       0.7       0.0       0.1       0.0
10 H  s               1.7       0.0      36.3       0.0       1.5       3.7
10 H  pz              0.0       1.0       0.0       0.0       0.0       0.0
10 H  px              0.2       0.0       0.0       0.0       0.3       0.1
10 H  py              0.2       0.0       3.9       0.0       0.1       0.5
11 H  s               0.0      30.8       4.3       0.3       1.8       0.9
11 H  pz              0.0       1.0       0.6       0.0       0.6       0.0
11 H  px              0.2       1.6       0.1       0.0       0.3       0.1
11 H  py              0.1       0.5       0.7       0.0       0.1       0.0

                     30        31        32        33        34        35   
                   0.27543   0.28200   0.28851   0.29685   0.31739   0.37034
                   0.00000   0.00000   0.00000   0.00000   0.00000   0.00000
                  --------  --------  --------  --------  --------  --------
 0 C  s               0.2       0.0       0.0       0.4       0.7       1.5
 0 C  pz              0.1       2.1      60.8       0.1       0.0       0.0
 0 C  px              2.3       0.0       0.0       3.1      15.9       1.4
 0 C  py             16.5       0.0       0.0       1.7      15.0      16.8
 0 C  dz2             1.9       0.0       0.0       2.0       5.8       1.5
 0 C  dxz             0.0       0.1       1.7       0.0       0.0       0.0
 0 C  dyz             0.0       1.0       8.9       0.0       0.0       0.0
 0 C  dx2y2           2.8       0.0       0.0       0.5       0.2       0.2
 0 C  dxy             5.7       0.0       0.0       3.5       0.7       4.8
 0 C  f+1             0.0       0.0       0.0       0.0       0.0       0.1
 1 C  s              10.8       0.0       0.0       9.9       1.1       4.9
 1 C  pz              0.0      30.8       1.1       0.0       0.0       0.0
 1 C  px              2.7       0.0       0.0       0.1       0.2       7.0
 1 C  py              5.3       0.0       0.0      22.9       0.1      16.4
 1 C  dz2             6.9       0.0       0.0       3.8       0.8       2.5
 1 C  dxz             0.0       0.1       0.1       0.0       0.0       0.0
 1 C  dyz             0.0       0.0       0.4       0.0       0.0       0.0
 1 C  dx2y2           0.0       0.0       0.0       2.8       0.0       0.9
 1 C  dxy             0.0       0.0       0.0       0.1       0.3       0.0
 1 C  f-1             0.0       0.0       0.0       0.2       0.0       0.2
 1 C  f+2             0.0       0.0       0.2       0.0       0.0       0.0
 1 C  f-3             0.0       0.0       0.0       0.2       0.0       0.0
 2 O  s               0.2       0.0       0.0       3.3       0.1       0.8
 2 O  pz              0.0       2.5       1.0       0.0       0.0       0.0
 2 O  px              0.5       0.0       0.0       1.6       0.7       0.0
 2 O  py              1.1       0.0       0.0       1.7       0.2       6.4
 2 O  dz2             0.1       0.0       0.0       0.1       0.1       0.0
 2 O  dxz             0.0       0.1       0.1       0.0       0.0       0.0
 2 O  dyz             0.0       0.3       0.1       0.0       0.0       0.0
 2 O  dx2y2           0.3       0.0       0.0       0.3       0.0       0.3
 3 N  s               0.5       0.0       0.0       0.7       0.1       0.7
 3 N  pz              0.0       4.1       3.8       0.0       0.0       0.0
 3 N  px              1.9       0.0       0.0       1.2       0.3       0.8
 3 N  py              0.4       0.0       0.0       0.6       1.7       0.3
 3 N  dz2             0.4       0.0       0.0       0.1       0.0       2.8
[...]
 3 N  dxy             0.3       0.0       5.8      11.3       0.0       0.1
 3 N  f0              0.0       1.4       0.0       0.0       0.0       0.0
 3 N  f+1             0.5       0.0       0.1       0.1       0.0       0.0
 3 N  f-1             1.4       0.0       1.0       1.5       0.0       0.0
 3 N  f+2             0.0       3.3       0.0       0.0       0.4       0.0
 3 N  f-2             0.0       2.1       0.0       0.0       0.7       0.0
 3 N  f+3             1.4       0.0       4.7       0.5       0.0       0.4
 3 N  f-3             1.8       0.0      28.0      16.2       0.0       1.2
 4 C  s               0.6       0.0       1.0       0.4       0.0       0.0
 4 C  px              0.4       0.0       0.9       0.4       0.0       0.0
 4 C  py              0.5       0.0       0.1       0.0       0.0       0.0
 4 C  dz2             0.2       0.0       0.8       0.2       0.0       0.0
 4 C  dx2y2           0.1       0.0       1.2       0.5       0.0       0.1
 4 C  dxy             0.0       0.0       1.3       0.1       0.0       0.0
 4 C  f+1             0.9       0.0       0.1       0.3       0.0       0.0
 4 C  f-1             0.2       0.0       0.1       0.0       0.0       0.0
 4 C  f+2             0.0       0.1       0.0       0.0       0.0       0.0
 4 C  f-2             0.0       0.1       0.0       0.0       0.0       0.0
 4 C  f+3             0.0       0.0       0.2       0.2       0.0       0.1
 4 C  f-3             1.3       0.0       0.9       0.0       0.0       0.0
 6 H  s               0.1       0.0       0.0       0.1       0.0       0.0
 8 H  s               0.3       0.0       7.6       4.0       0.0       0.0
 8 H  py              0.5       0.0       0.7       0.6       0.0       0.0
10 H  s               0.2       0.0       0.0       0.0       0.0       0.0

                    186       187       188       189       190       191   
                   6.51819   6.66486   6.82025   6.94358   7.17738   7.20463
                   0.00000   0.00000   0.00000   0.00000   0.00000   0.00000
                  --------  --------  --------  --------  --------  --------
 0 C  s               0.0       0.3       0.1       0.0       0.0       0.1
 0 C  px              0.0       0.0       0.1       0.0       0.0       0.1
 0 C  py              0.0       0.4       0.0       0.0       0.1       0.0
 0 C  dx2y2           0.0       0.1       0.8       0.0       0.1       0.0
 0 C  dxy             0.0       0.1       0.1       0.0       0.0       0.0
 0 C  f+3             0.0       0.2       0.6       0.0       0.0       0.0
 0 C  f-3             0.0       0.0       0.0       0.0       0.1       0.0
 1 C  s               0.0       0.6       0.1       0.0       0.1       3.6
 1 C  pz              0.0       0.0       0.0       1.3       0.0       0.0
 1 C  px              0.0       0.2       0.2       0.0       1.7       0.1
 1 C  py              0.0       0.4       0.1       0.0       0.0       2.0
 1 C  dz2             0.0       0.3       0.0       0.0       0.0       0.2
 1 C  dxz             0.6       0.0       0.0       0.0       0.0       0.0
 1 C  dyz             0.0       0.0       0.0       2.5       0.0       0.0
 1 C  dx2y2           0.0       1.3       1.0       0.0       0.0       0.3
 1 C  dxy             0.0       0.4       3.7       0.0       4.2       0.0
 1 C  f+1             0.0       0.1       0.2       0.0       0.2       0.0
 1 C  f-1             0.0       0.0       0.1       0.0       0.0       0.4
 1 C  f+2             0.0       0.0       0.0       0.2       0.0       0.0
 1 C  f-2             0.2       0.0       0.0       0.0       0.0       0.0
 1 C  f+3             0.0       1.3      15.5       0.0       1.4       0.0
 1 C  f-3             0.0       0.0       0.0       0.0       0.0       2.0
 2 O  s               0.0       0.1       0.3       0.0       0.0       1.9
 2 O  pz              0.0       0.0       0.0       1.9       0.0       0.0
 2 O  px              0.0       0.2       1.5       0.0       3.6       0.0
 2 O  py              0.0       0.0       0.2       0.0       0.0       2.8
 2 O  dz2             0.0      57.9       6.4       0.0       0.3      18.1
 2 O  dxz            95.0       0.0       0.0       0.0       0.0       0.0
 2 O  dyz             0.1       0.0       0.0      73.3       0.0       0.0
 2 O  dx2y2           0.0      24.7       0.4       0.0       0.0      54.7
 2 O  dxy             0.0       1.6      32.1       0.0      59.0       0.0
 2 O  f0              0.0       0.0       0.0       7.4       0.0       0.0
 2 O  f+1             0.0       0.3       1.1       0.0       1.5       0.0
 2 O  f-1             0.0       3.6       0.1       0.0       0.0       5.8
 2 O  f+2             0.0       0.0       0.0      12.8       0.0       0.0
 2 O  f-2             3.1       0.0       0.0       0.0       0.0       0.0
 2 O  f+3             0.0       2.9      22.1       0.0      24.7       0.0
 2 O  f-3             0.0       0.3       2.0       0.0       0.0       7.1
 3 N  s               0.0       0.4       0.5       0.0       0.5       0.0
 3 N  px              0.0       0.3       0.4       0.0       0.1       0.0
 3 N  py              0.0       0.4       0.7       0.0       0.0       0.1
 3 N  dxz             0.1       0.0       0.0       0.2       0.0       0.0
 3 N  dyz             0.3       0.0       0.0       0.1       0.0       0.0
 3 N  dx2y2           0.0       0.6       1.3       0.0       0.8       0.0
 3 N  dxy             0.0       0.0       0.6       0.0       0.1       0.1
 3 N  f+3             0.0       0.2       6.5       0.0       0.3       0.0
 3 N  f-3             0.0       0.1       0.2       0.0       0.5       0.1
 4 C  s               0.0       0.2       0.0       0.0       0.0       0.0
 4 C  dxy             0.0       0.0       0.1       0.0       0.0       0.0
 6 H  s               0.0       0.0       0.1       0.0       0.1       0.0
 8 H  s               0.0       0.0       0.2       0.0       0.1       0.0

                    192       193       194       195       196   
                  22.40421  22.47164  23.36281  32.42283  43.96931
                   0.00000   0.00000   0.00000   0.00000   0.00000
                  --------  --------  --------  --------  --------
 0 C  s              97.4       1.2       0.1       0.0       0.0
 1 C  s               0.1       0.1      96.0       0.0       0.0
 1 C  px              0.1       0.0       0.2       0.0       0.0
 1 C  py              0.0       0.0       0.2       0.0       0.0
 1 C  dz2             0.0       0.0       0.1       0.0       0.0
 2 O  s               0.0       0.0       0.9       0.0      99.9
 2 O  py              0.0       0.0       0.6       0.0       0.0
 3 N  s               0.0       0.2       0.5      99.6       0.0
 3 N  px              0.0       0.3       0.4       0.0       0.0
 3 N  py              0.0       0.0       0.2       0.1       0.0
 3 N  dxy             0.0       0.1       0.2       0.0       0.0
 4 C  s               1.2      96.9       0.1       0.1       0.0
 5 H  s               0.2       0.0       0.0       0.0       0.0
 6 H  s               0.2       0.0       0.0       0.0       0.0
 6 H  py              0.1       0.0       0.0       0.0       0.0
 7 H  s               0.2       0.0       0.0       0.0       0.0
 9 H  s               0.0       0.2       0.0       0.0       0.0
10 H  s               0.0       0.2       0.0       0.0       0.0
10 H  py              0.0       0.1       0.0       0.0       0.0
11 H  s               0.0       0.2       0.0       0.0       0.0


                      *****************************
                      * MAYER POPULATION ANALYSIS *
                      *****************************

  NA   - Mulliken gross atomic population
  ZA   - Total nuclear charge
  QA   - Mulliken gross atomic charge
  VA   - Mayer's total valence
  BVA  - Mayer's bonded valence
  FA   - Mayer's free valence

  ATOM       NA         ZA         QA         VA         BVA        FA
  0 C      6.3410     6.0000    -0.3410     3.8631     3.8631     0.0000
  1 C      5.6945     6.0000     0.3055     4.1945     4.1945     0.0000
  2 O      8.3980     8.0000    -0.3980     2.1293     2.1293    -0.0000
  3 N      7.3079     7.0000    -0.3079     3.0791     3.0791     0.0000
  4 C      6.2383     6.0000    -0.2383     3.8445     3.8445    -0.0000
  5 H      0.8647     1.0000     0.1353     0.9799     0.9799     0.0000
  6 H      0.9055     1.0000     0.0945     0.9763     0.9763     0.0000
  7 H      0.8643     1.0000     0.1357     0.9808     0.9808     0.0000
  8 H      0.7825     1.0000     0.2175     0.9521     0.9521    -0.0000
  9 H      0.8839     1.0000     0.1161     0.9670     0.9670    -0.0000
 10 H      0.8354     1.0000     0.1646     0.9942     0.9942    -0.0000
 11 H      0.8839     1.0000     0.1161     0.9670     0.9670    -0.0000

  Mayer bond orders larger than 0.100000
B(  0-C ,  1-C ) :   0.9453 B(  0-C ,  5-H ) :   0.9638 B(  0-C ,  6-H ) :   0.9804 
B(  0-C ,  7-H ) :   0.9655 B(  1-C ,  2-O ) :   2.0233 B(  1-C ,  3-N ) :   1.2186 
B(  3-N ,  4-C ) :   0.9047 B(  3-N ,  8-H ) :   0.9259 B(  4-C ,  9-H ) :   0.9766 
B(  4-C , 10-H ) :   0.9661 B(  4-C , 11-H ) :   0.9767 

-------
TIMINGS
-------

Total SCF time: 0 days 0 hours 0 min 35 sec 

Total time                  ....      35.552 sec
Sum of individual times     ....      34.707 sec  ( 97.6%)

SCF preparation             ....       0.045 sec  (  0.1%)
Fock matrix formation       ....      34.450 sec  ( 96.9%)
  Startup                   ....       0.002 sec  (  0.0% of F)
  Split-RI-J                ....       1.203 sec  (  3.5% of F)
  Chain of spheres X        ....      29.921 sec  ( 86.9% of F)
  XC integration            ....       4.123 sec  ( 12.0% of F)
    Basis function eval.    ....       1.121 sec  ( 27.2% of XC)
    Density eval.           ....       0.800 sec  ( 19.4% of XC)
    XC-Functional eval.     ....       1.114 sec  ( 27.0% of XC)
    XC-Potential eval.      ....       1.013 sec  ( 24.6% of XC)
Diagonalization             ....       0.000 sec  (  0.0%)
Density matrix formation    ....       0.010 sec  (  0.0%)
Total Energy calculation    ....       0.002 sec  (  0.0%)
Population analysis         ....       0.080 sec  (  0.2%)
Orbital Transformation      ....       0.009 sec  (  0.0%)
Orbital Orthonormalization  ....       0.000 sec  (  0.0%)
DIIS solution               ....       0.032 sec  (  0.1%)
  MO trafo                  ....       0.000 sec  (  0.0 % of DIIS)
  Orb grad                  ....       0.000 sec  (  0.0 % of DIIS)
  Energy W gradient         ....       0.000 sec  (  0.0 % of DIIS)
  DIIS error                ....       0.004 sec  ( 11.3 % of DIIS)
  DIIS work                 ....       0.023 sec  ( 73.1 % of DIIS)
  Form Q                    ....       0.000 sec  (  0.0 % of DIIS)
  Form QpQm                 ....       0.000 sec  (  0.0 % of DIIS)
  Exp/Cayley                ....       0.000 sec  (  0.0 % of DIIS)
  Orb update                ....       0.000 sec  (  0.0 % of DIIS)
  Wake-sleep                ....       0.000 sec  (  1.0 % of DIIS)
SOSCF solution              ....       0.018 sec  (  0.1%)
  MO trafo                  ....       0.009 sec  ( 51.6 % of SOSCF)
  Orb grad                  ....       0.000 sec  (  0.9 % of SOSCF)
  Rot update                ....       0.001 sec  (  4.1 % of SOSCF)
  Step                      ....       0.008 sec  ( 43.1 % of SOSCF)
Grid generation             ....       0.061 sec  (  0.2%)
Finished LeanSCF after  35.6 sec

Maximum memory used throughout the entire LEANSCF-calculation: 22.3 MB
------------------   -----------------
gCP correction             0.007850502
------------------   -----------------

-------------------------   --------------------
FINAL SINGLE POINT ENERGY      -248.538549076476
-------------------------   --------------------


------------------------------------------------------------------------------
                              ORCA PROPERTY CALCULATIONS
------------------------------------------------------------------------------

GBWName                                 ... sp.gbw
Number of atoms                         ...     12
Number of basis functions               ...    197
Max core memory                         ...   1024 MB

Electric properties:
Dipole moment                           ... YES
Quadrupole moment                       ...  NO
Static polarizability (Dipole/Dipole)   ...  NO
Static polarizability (Dipole/Quad.)    ...  NO
Static polarizability (Quad./Quad.)     ...  NO
Static polarizability (Velocity)        ...  NO

Atomic electric properties:
Dipole moment                           ...  NO
Quadrupole moment                       ...  NO
Static polarizability                   ...  NO

Choice of electric origin               ... Center of mass
Position of electric origin             ...    -0.003659     0.006317    -0.000238

General magnetic properties:
Magnetizability                         ...  NO

EPR properties:
g-Tensor (aka g-matrix)                 ...  NO
Zero-Field splitting spin-orbit         ...  NO
Zero-field splitting spin-spin          ...  NO
Hyperfine couplings                     ...  NO (   0 nuclei)
Quadrupole couplings                    ...  NO (   0 nuclei)
Contact density                         ...  NO (   0 nuclei)

NMR properties:
Chemical shifts                         ...  NO (   0 nuclei)
Spin-rotation constants                 ...  NO (   0 nuclei)
Spin-spin couplings                     ...  NO (   0 nuclei,    0 pairs)

Choice of magnetic origin               ... GIAO
Position of magnetic origin             ...     0.000000     0.000000     0.000000

Properties with geometric perturbations:
SCF Hessian                             ...  NO
IR spectrum                             ...  NO
VCD spectrum                            ...  NO
X-ray spectroscopy properties:
SCF XES/XAS/RIXS spectra                ...  NO


-------------
DIPOLE MOMENT
-------------

Method             : SCF
Type of density    : Electron Density
Multiplicity       :   1
Irrep              :   0
Energy             :  -248.5463995781763913 Eh
Relativity type    : 
Basis              : AO
                                X                 Y                 Z
Electronic contribution:     -0.781501974      -2.208209059      -0.005437116
Nuclear contribution   :      1.114671667       3.687481111       0.006200602
                        -----------------------------------------
Total Dipole Moment    :      0.333169694       1.479272051       0.000763485
                        -----------------------------------------
Magnitude (a.u.)       :      1.516327283
Magnitude (Debye)      :      3.854197656



--------------------
Rotational spectrum 
--------------------
 
Rotational constants in cm-1:             0.333784             0.127867             0.095777 
Rotational constants in MHz :         10006.605418          3833.369977          2871.311442 

Dipole components along the rotational axes: 
x,y,z [a.u.] :     0.336959    -1.478413     0.001202 
x,y,z [Debye]:     0.856482    -3.757828     0.003054 

 

Dipole moment calculation done in   0.0 sec 

Maximum memory used throughout the entire PROP-calculation: 13.4 MB

--------------------------------
SUGGESTED CITATIONS FOR THIS RUN
--------------------------------

Below you find a list of papers that are relevant to this ORCA run
We neither can nor want to force you to cite these papers, but we appreciate if you do
You receive ORCA, which is the product of decades of hard work by many enthusiastic individuals, for free
The only thing we kindly ask in return is that you cite our papers,
We deeply appreciate it, if you show your appreciation for ORCA by not just citing the generic ORCA reference.

Please note that relegating all ORCA citations to the supporting information does *not* help us.
SI sections are not indexed - citations you put there will not count into any citation statistics
But we need these citations in order to attract the funding resources that allow us to do what we are doing

Therefore, if you are a happy ORCA user, please consider citing a few of the papers listed below in the main body of your paper

In addition to the list printed below, the program has created the file sp.bibtex that contains the list in bibtex format
You can import this file easily into all common literature databanks and citation aid programs


List of essential papers. We consider these as the minimum necessary citations

  1. Neese,F.
     Software update: the ORCA program system, version 5.0
     WIRES Comput. Molec. Sci., 2022 12(1)e1606
     doi.org/10.1002/wcms.1606

List of papers to cite with high priority. The work reported in these papers was absolutely
necessary for this run to complete.
Our perspective: the developers of density functionals and basis sets usually get cited in chemistry papers
Good! But without the algorithms to do something with them, the functionals or basis sets would not do anything.
Hence, in our opinion, the algorithm design and method developments papers are equally worthy of getting cited

  1. Neese,F.
     An improvement of the resolution of the identity approximation for the formation of the Coulomb matrix
     J. Comp. Chem., 2003 24(14)1740-1747
     doi.org/10.1002/jcc.10318
  2. Neese,F.; Wennmohs,F.; Hansen,A.; Becker,U.
     Efficient, approximate and parallel Hartree-Fock and hybrid DFT calculations. A 'chain-of-spheres' algorithm for the Hartree-Fock exchange
     Chem. Phys., 2009 356(1-3)98-109
     doi.org/10.1016/j.chemphys.2008.10.036
  3. Helmich-Paris,B.; de Souza,B.; Neese,F.; Izsák,R.
     An improved chain of spheres for exchange algorithm
     J. Chem. Phys., 2021 155 104109
     doi.org/doi: 10.1063/5.0058766.
  4. Neese,F.
     The SHARK Integral Generation and Digestion System
     J. Comp. Chem., 2022  1-16
     doi.org/10.1002/jcc.26942

List of suggested additional citations. These are papers that are important in the 'surrounding' of 
of this run, or papers that preceded the highly important papers. If you like your results we are grateful for a citation.

  1. Izsak,R.; Neese,F.
     An overlap fitted chain of spheres exchange method
     J. Chem. Phys., 2011 135 144105
     doi.org/10.1063/1.3646921
  2. Izsak,R.; Hansen,A.; Neese,F.
     The resolution of identity and chain of spheres approximations for the LPNO-CCSD singles Fock term
     Molec. Phys., 2012 110 2413-2417
     doi.org/10.1080/00268976.2012.687466
  3. Neese,F.
     The ORCA program system
     WIRES Comput. Molec. Sci., 2012 2(1)73-78
     doi.org/10.1002/wcms.81
  4. Izsak,R.; Neese,F.; Klopper,W.
     Robust fitting techniques in the chain of spheres approximation to the Fock exchange: The role of the complementary space
     J. Chem. Phys., 2013 139 
     doi.org/10.1063/1.4819264
  5. Neese,F.
     Software update: the ORCA program system, version 4.0
     WIRES Comput. Molec. Sci., 2018 8(1)1-6
     doi.org/10.1002/wcms.1327
  6. Neese,F.; Wennmohs,F.; Becker,U.; Riplinger,C.
     The ORCA quantum chemistry program package
     J. Chem. Phys., 2020 152 Art. No. L224108
     doi.org/10.1063/5.0004608

List of optional additional citations

  1. Neese,F.
     Approximate second-order SCF convergence for spin unrestricted wavefunctions
     Chem. Phys. Lett., 2000 325(1-3)93-98
     doi.org/10.1016/s0009-2614(00)00662-x

Timings for individual modules:

Sum of individual times          ...       36.306 sec (=   0.605 min)
Startup calculation              ...        0.645 sec (=   0.011 min)   1.8 %
SCF iterations                   ...       35.624 sec (=   0.594 min)  98.1 %
Property calculations            ...        0.038 sec (=   0.001 min)   0.1 %
                             ****ORCA TERMINATED NORMALLY****
TOTAL RUN TIME: 0 days 0 hours 0 minutes 36 seconds 357 msec
