      -----------------------------------------------------------      
     |                   =====================                   |     
     |                           x T B                           |     
     |                   =====================                   |     
     |                         S. Grimme                         |     
     |          Mulliken Center for Theoretical Chemistry        |     
     |                    University of Bonn                     |     
      -----------------------------------------------------------      

   * xtb version 6.7.1 (41059b4) compiled by 'michael@archlinux' on 2025-03-24

   xtb is free software: you can redistribute it and/or modify it under
   the terms of the GNU Lesser General Public License as published by
   the Free Software Foundation, either version 3 of the License, or
   (at your option) any later version.
   
   xtb is distributed in the hope that it will be useful,
   but WITHOUT ANY WARRANTY; without even the implied warranty of
   MERCHANTABILITY or FITNESS FOR A PARTICULAR PURPOSE.  See the
   GNU Lesser General Public License for more details.
   
   Cite this work as:
   * C. Bannwarth, E. Caldeweyher, S. Ehlert, A. Hansen, P. Pracht,
     J. Seibert, S. Spicher, S. Grimme, WIREs Comput. Mol. Sci., 2020, 11,
     e01493. DOI: 10.1002/wcms.1493
   
   for GFN2-xTB:
   * C. Bannwarth, S. Ehlert and S. Grimme., J. Chem. Theory Comput., 2019,
     15, 1652-1671. DOI: 10.1021/acs.jctc.8b01176
   for GFN1-xTB:
   * S. Grimme, C. Bannwarth, P. Shushkov, J. Chem. Theory Comput., 2017,
     13, 1989-2009. DOI: 10.1021/acs.jctc.7b00118
   for GFN0-xTB:
   * P. Pracht, E. Caldeweyher, S. Ehlert, S. Grimme, ChemRxiv, 2019, preprint.
     DOI: 10.26434/chemrxiv.8326202.v1
   for GFN-FF:
   * S. Spicher and S. Grimme, Angew. Chem. Int. Ed., 2020, 59, 15665-15673.
     DOI: 10.1002/anie.202004239
   
   for ALPB and GBSA implicit solvation:
   * S. Ehlert, M. Stahn, S. Spicher, S. Grimme, J. Chem. Theory Comput.,
     2021, 17, 4250-4261. DOI: 10.1021/acs.jctc.1c00471
   
   for ddCOSMO and CPCM-X implicit solvation:
   * M. Stahn, S. Ehlert, S. Grimme, J. Phys. Chem. A,
     2023, XX, XXXX-XXXX. DOI: 10.1021/acs.jpca.3c04382
   
   for DFT-D4:
   * E. Caldeweyher, C. Bannwarth and S. Grimme, J. Chem. Phys., 2017,
     147, 034112. DOI: 10.1063/1.4993215
   * E. Caldeweyher, S. Ehlert, A. Hansen, H. Neugebauer, S. Spicher,
     C. Bannwarth and S. Grimme, J. Chem. Phys., 2019, 150, 154122.
     DOI: 10.1063/1.5090222
   * E. Caldeweyher, J.-M. Mewes, S. Ehlert and S. Grimme, Phys. Chem. Chem. Phys.
     2020, 22, 8499-8512. DOI: 10.1039/D0CP00502A
   
   for sTDA-xTB:
   * S. Grimme and C. Bannwarth, J. Chem. Phys., 2016, 145, 054103.
     DOI: 10.1063/1.4959605
   
   in the mass-spec context:
   * V. Asgeirsson, C. Bauer and S. Grimme, Chem. Sci., 2017, 8, 4879.
     DOI: 10.1039/c7sc00601b
   * J. Koopman and S. Grimme, ACS Omega 2019, 4, 12, 15120-15133.
     DOI: 10.1021/acsomega.9b02011
   
   for metadynamics refer to:
   * S. Grimme, J. Chem. Theory Comput., 2019, 155, 2847-2862
     DOI: 10.1021/acs.jctc.9b00143
   
   for SPH calculations refer to:
   * S. Spicher and S. Grimme, J. Chem. Theory Comput., 2021, 17, 1701-1714
     DOI: 10.1021/acs.jctc.0c01306
   
   for ONIOM refer to:
   * C. Plett, A. Katbashev, S. Ehlert, S. Grimme, M. Bursch,
     Phys. Chem. Chem. Phys., 2023, 25, 17860-17868. DOI: 10.1039/D3CP02178E
   
   for DIPRO refer to:
   * J. Kohn, N. Gildemeister, S. Grimme, D. Fazzi, A. Hansen,
     J. Chem. Phys., 2023, just accepted.
   
   for PTB refer to:
   * S. Grimme, M. Mueller, A. Hansen, J. Chem. Phys., 2023, 158, 124111.
     DOI: 10.1063/5.0137838
   
   with help from (in alphabetical order)
   P. Atkinson, C. Bannwarth, F. Bohle, G. Brandenburg, E. Caldeweyher
   M. Checinski, S. Dohm, S. Ehlert, S. Ehrlich, I. Gerasimov, C. Hölzer
   A. Katbashev, J. Kohn, J. Koopman, C. Lavigne, S. Lehtola, F. März, M. Müller,
   F. Musil, H. Neugebauer, J. Pisarek, C. Plett, P. Pracht, F. Pultar,
   J. Seibert, P. Shushkov, S. Spicher, M. Stahn, M. Steiner, T. Strunk,
   J. Stückrath, T. Rose, and J. Unsleber
   
 * started run on 2025/04/09 at 05:37:26.615     
   ID    Z sym.   atoms
    1    6 C      1-7, 10
    2    8 O      8, 11
    3    7 N      9
    4    1 H      12-16

           -------------------------------------------------
          |                Calculation Setup                |
           -------------------------------------------------

          program call               : /usr/bin/xtb xtb_opt.coord --opt normal --orca -I xtb_opt-xcontrol-inp
          coordinate file            : xtb_opt.coord
          omp threads                :                    16

           -------------------------------------------------
          |                   Orca driver                   |
           -------------------------------------------------
orca executable           : /home/michael/Documents/CHEM4561/orca_avx2/orca
orca input file           : xtb_opt.inp
orca input line           : 
orca parallel             : true
orca number of threads    : 16
                         * ORCA takes the control...
  ------------------------------------------------------------------------

                                 *****************
                                 * O   R   C   A *
                                 *****************

                                            #,                                       
                                            ###                                      
                                            ####                                     
                                            #####                                    
                                            ######                                   
                                           ########,                                 
                                     ,,################,,,,,                         
                               ,,#################################,,                 
                          ,,##########################################,,             
                       ,#########################################, ''#####,          
                    ,#############################################,,   '####,        
                  ,##################################################,,,,####,       
                ,###########''''           ''''###############################       
              ,#####''   ,,,,##########,,,,          '''####'''          '####       
            ,##' ,,,,###########################,,,                        '##       
           ' ,,###''''                  '''############,,,                           
         ,,##''                                '''############,,,,        ,,,,,,###''
      ,#''                                            '''#######################'''  
     '                                                          ''''####''''         
             ,#######,   #######,   ,#######,      ##                                
            ,#'     '#,  ##    ##  ,#'     '#,    #''#        ,####,   ,####,        
            ##       ##  ##   ,#'  ##            #'  '#       #'       #'  '#        
            ##       ##  #######   ##           ,######,      #####,   #    #        
            '#,     ,#'  ##    ##  '#,     ,#' ,#      #,     #,   #   #,  ,#        
             '#######'   ##     ##  '#######'  #'      '#     '####' # '####'        



                #########################################################
                #                        -***-                          #
                #          Department of theory and spectroscopy        #
                #                                                       #
                #                      Frank Neese                      #
                #                                                       #
                #     Directorship, Architecture, Infrastructure        #
                #                    SHARK, DRIVERS                     #
                #        Core code/Algorithms in most modules           #
                #                                                       #
                #        Max Planck Institute fuer Kohlenforschung      #
                #                Kaiser Wilhelm Platz 1                 #
                #                 D-45470 Muelheim/Ruhr                 #
                #                      Germany                          #
                #                                                       #
                #                  All rights reserved                  #
                #                        -***-                          #
                #########################################################


                         Program Version 6.0.1  -  RELEASE   -


 With contributions from (in alphabetic order):
[Max-Planck-Institut fuer Kohlenforschung]                               
  Daniel Aravena         : Magnetic Suceptibility                        
  Michael Atanasov       : Ab Initio Ligand Field Theory (pilot matlab implementation)
  Alexander A. Auer      : GIAO ZORA, VPT2 properties, NMR spectrum      
  Ute Becker             : All parallelization in ORCA, NUMFREQ, NUMCALC 
  Giovanni Bistoni       : ED, misc. LED, open-shell LED, HFLD           
  Martin Brehm           : Molecular dynamics                            
  Dmytro Bykov           : pre 5.0 version of the SCF Hessian            
  Marcos Casanova-Páez   : Triplet and SCS-CIS(D). UHF-(DLPNO)-IP/EA/STEOM-CCSD. UHF-CVS-IP/STEOM-CCSD   
  Vijay G. Chilkuri      : MRCI spin determinant printing, contributions to CSF-ICE 
  Pauline Colinet        : FMM embedding                                 
  Dipayan Datta          : RHF DLPNO-CCSD density                        
  Achintya Kumar Dutta   : EOM-CC, STEOM-CC                              
  Nicolas Foglia         : Exact transition moments, OPA infrastructure, MCD improvements    
  Dmitry Ganyushin       : Spin-Orbit,Spin-Spin,Magnetic field MRCI      
  Miquel Garcia-Rates    : C-PCM and meta-GGA Hessian, CCSD/C-PCM, Gaussian charge scheme 
  Tiago L. C. Gouveia    : GS-ROHF, GS-ROCIS                             
  Yang Guo               : DLPNO-NEVPT2, F12-NEVPT2, CIM, IAO-localization        
  Andreas Hansen         : Spin unrestricted coupled pair/coupled cluster methods 
  Ingolf Harden          : AUTO-CI MPn and infrastructure                
  Benjamin Helmich-Paris : MC-RPA, TRAH-(SCF,CASSCF), AVAS, COSX integrals, SCF dyn. polar. 
  Lee Huntington         : MR-EOM, pCC                                   
  Robert Izsak           : Overlap fitted RIJCOSX, COSX-SCS-MP3, EOM     
  Riya Kayal             : Wick's Theorem for AUTO-CI, AUTO-CI UHF-CCSDT 
  Emily Kempfer          : AUTO-CI, RHF CISDT and CCSDT                  
  Christian Kollmar      : KDIIS, OOCD, Brueckner-CCSD(T), CCSD density, CASPT2, CASPT2-K, improved NEVPT2 
  Axel Koslowski         : Symmetry handling                             
  Simone Kossmann        : meta-GGA functionals, TD-DFT gradient, OOMP2, (MP2 Hessian; deprecated post 5.0) 
  Lucas Lang             : DCDCAS                                        
  Marvin Lechner         : AUTO-CI (C++ implementation), FIC-MRCC        
  Spencer Leger          : CASSCF response                               
  Dagmar Lenk            : GEPOL surface, SMD, ORCA-2-JSON               
  Dimitrios Liakos       : Extrapolation schemes; Compound Job, initial MDCI parallelization 
  Dimitrios Manganas     : Further ROCIS development; embedding schemes. LFT, Crystal Embedding 
  Dimitrios Pantazis     : SARC Basis sets                               
  Anastasios Papadopoulos: AUTO-CI, single reference methods and gradients 
  Taras Petrenko         : pre 6.0 DFT Hessian and TD-DFT gradient, (ASA, deprecated), ECA, 1-Electron XAS/XES, NRVS 
  Peter Pinski           : DLPNO-MP2, DLPNO-MP2 Gradient                 
  Christoph Reimann      : Effective Core Potentials                     
  Marius Retegan         : Local ZFS, SOC                                
  Christoph Riplinger    : Optimizer, TS searches, QM/MM, DLPNO-CCSD(T), (RO)-DLPNO pert. Triples 
  Michael Roemelt        : Original ROCIS implementation                 
  Masaaki Saitow         : Open-shell DLPNO-CCSD energy and density      
  Barbara Sandhoefer     : DKH picture change effects                    
  Kantharuban Sivalingam : CASSCF convergence/infrastructure, NEVPT2 and variants, FIC-MRCI 
  Bernardo de Souza      : ESD, SOC TD-DFT                               
  Georgi L. Stoychev     : AutoAux, RI-MP2 NMR, DLPNO-MP2 response, X2C  
  Van Anh Tran           : RI-MP2 g-tensors                              
  Willem Van den Heuvel  : Paramagnetic NMR                              
  Zikuan Wang            : NOTCH, Electric field optimization            
  Frank Wennmohs         : Technical directorship and infrastructure     
  Hang Xu                : AUTO-CI-Response properties                   
                                                                         
[FACCTs GmbH]                                                            
  Markus Bursch, Miquel Garcia-Rates, Christoph Riplinger, Bernardo de Souza, Georgi L. Stoychev 
                                                                 
  APM, Basis sets (HGBS, AHGBS, def-TZVP (Ac-Lr), def2-XVPD (La-Lu)), CI-OPT, improved COSX, DLPNO-Multilevel,           
  DOCKER, DRACO, updates on ESD, GOAT, IRC, LR-CPCM, MBIS, meta-GGA TD-DFT gradient, ML-optimized integration grids, 
  MM, NACMEs, nearIR, NEB, NEB-TS, NL-DFT gradient (VV10), 2- and 3-layer-ONIOM, interface openCOSMO-RS, QMMM,   
  Crystal-QMMM, SF, symmetry and pop. for TD-DFT, r2SCAN hybrids, SOLVATOR                                   
                                                                         
[Other institutions]                                                     
  V. Asgeirsson          : NEB                                           
  Christoph Bannwarth    : sTDA-DFT, sTD-DFT, PBEh-3c, B97-3c, D3        
  Sebastian Ehlert       : rSCAN, r2SCAN, r2SCAN-3c, D4, dhf basis sets  
  Marvin Friede          : D4 for Fr, Ra, Ac-Lr                          
  Lars Goerigk           : TD-DFT with DH, B97 family of functionals     
  Stefan Grimme          : VdW corrections, initial TS optimization, DFT functionals, gCP, sTDA/sTD-DF 
  Waldemar Hujo          : DFT-NL                                        
  H. Jonsson             : NEB                                           
  Holger Kruse           : gCP                                           
  Marcel Mueller         : wB97X-3c, vDZP basis set                      
  Hagen Neugebauer       : wr2SCAN                                       
  Tobias Risthaus        : range-separated hybrid DFT                    
  Lukas Wittmann         : regularized MP2, r2SCAN double-hybrids, wr2SCAN        
                                                                         
We gratefully acknowledge several colleagues who have allowed us to      
interface, adapt or use parts of their codes:                            
  Ed Valeev, F. Pavosevic, A. Kumar             : LibInt (2-el integral package), F12 methods 
  Garnet Chan, S. Sharma, J. Yang, R. Olivares  : DMRG                   
  Ulf Ekstrom                                   : XCFun DFT Library      
  Mihaly Kallay                                 : mrcc  (arbitrary order and MRCC methods)
  Frank Weinhold                                : gennbo (NPA and NBO analysis)           
  Simon Mueller                                 : openCOSMO-RS                            
  Christopher J. Cramer and Donald G. Truhlar   : smd solvation model                     
  S Lehtola, MJT Oliveira, MAL Marques          : LibXC Library                           
  Liviu Ungur et al                             : ANISO software                          


 Your calculation uses the libint2 library for the computation of 2-el integrals
 For citations please refer to: http://libint.valeyev.net

 Your ORCA version has been built with support for libXC version: 6.2.2
 For citations please refer to: https://libxc.gitlab.io

 This ORCA versions uses:
   CBLAS   interface :  Fast vector & matrix operations
   LAPACKE interface :  Fast linear algebra routines
   SCALAPACK package :  Parallel linear algebra routines
   Shared memory     :  Shared parallel matrices
   BLAS/LAPACK       :  OpenBLAS 0.3.27  USE64BITINT DYNAMIC_ARCH NO_AFFINITY Zen SINGLE_THREADED
        Core in use  :  Zen
   Copyright (c) 2011-2014, The OpenBLAS Project




***************************************
The coordinates will be read from file: xtb_opt.xyz
***************************************


Your calculation utilizes the geometrical counterpoise correction gCP
Please cite in your paper:
H.Kruse, S. Grimme J.Chem.Phys., 136, (2012), 154101 
   

Your calculation utilizes the atom-pairwise dispersion correction
based on EEQ partial charges (D4)


================================================================================

----- Orbital basis set information -----
Your calculation utilizes the basis: def2-mTZVPP
   Stefan Grimme, Andreas Hansen, Sebastian Ehlert, and Jan-Michael Mewes 
   J. Chem. Phys. 154, 064103 (2021). DOI: 10.1063/5.0040021

----- AuxJ basis set information -----
Your calculation utilizes the auxiliary basis: def2/J
   F. Weigend, Phys. Chem. Chem. Phys. 8, 1057 (2006).

================================================================================
                                        WARNINGS
                       Please study these warnings very carefully!
================================================================================

WARNING: Old DensityContainer found on disk!
         Will remove this file - 
         If you want to keep old densities, please start your calculation with a different basename. 



WARNING: SCAN, rSCAN, or r2SCAN functional requested.
  ===> : libXC variant has now been activated.



================================================================================
                                       INPUT FILE
================================================================================
NAME = xtb_opt.inp
|  1> ! r2scan-3c def2/J RI DEFGRID2 scfconv7 ENGRAD tightSCF miniprint
|  2> * xyzfile 0 1 xtb_opt.xyz
|  3> 
|  4>                          ****END OF INPUT****
================================================================================

                     *******************************
                     * Energy+Gradient Calculation *
                     *******************************

---------------------------------
CARTESIAN COORDINATES (ANGSTROEM)
---------------------------------
  C     -2.591142   -0.693473   -0.000152
  C     -2.591256    0.693042   -0.000072
  C     -1.400611    1.412891    0.000152
  C     -0.220092    0.699283    0.000234
  C     -0.219957   -0.699319    0.000208
  C     -1.400372   -1.413138   -0.000016
  C      1.189685   -1.164460    0.000041
  O      1.635034   -2.280695   -0.000031
  N      1.944597    0.000207   -0.000041
  C      1.189406    1.164669    0.000033
  O      1.634419    2.280925   -0.000210
  H     -3.531504   -1.223998   -0.000686
  H     -3.531574    1.223606    0.000055
  H     -1.392894    2.491622    0.000314
  H     -1.392181   -2.491840   -0.000485
  H      2.954475    0.000113    0.000108

----------------------------
CARTESIAN COORDINATES (A.U.)
----------------------------
  NO LB      ZA    FRAG     MASS         X           Y           Z
   0 C     6.0000    0    12.011   -4.896549   -1.310475   -0.000288
   1 C     6.0000    0    12.011   -4.896764    1.309659   -0.000136
   2 C     6.0000    0    12.011   -2.646771    2.669978    0.000286
   3 C     6.0000    0    12.011   -0.415913    1.321453    0.000442
   4 C     6.0000    0    12.011   -0.415658   -1.321522    0.000392
   5 C     6.0000    0    12.011   -2.646320   -2.670443   -0.000031
   6 C     6.0000    0    12.011    2.248179   -2.200510    0.000078
   7 O     8.0000    0    15.999    3.089767   -4.309889   -0.000058
   8 N     7.0000    0    14.007    3.674756    0.000391   -0.000077
   9 C     6.0000    0    12.011    2.247652    2.200906    0.000062
  10 O     8.0000    0    15.999    3.088605    4.310323   -0.000397
  11 H     1.0000    0     1.008   -6.673576   -2.313021   -0.001297
  12 H     1.0000    0     1.008   -6.673708    2.312279    0.000103
  13 H     1.0000    0     1.008   -2.632188    4.708484    0.000594
  14 H     1.0000    0     1.008   -2.630840   -4.708896   -0.000916
  15 H     1.0000    0     1.008    5.583149    0.000213    0.000204

------------------------------------------------------------------------------
                   ___                                                        
                  /   \      - P O W E R E D   B Y -                         
                 /     \                                                     
                 |  |  |   _    _      __       _____    __    __             
                 |  |  |  | |  | |    /  \     |  _  \  |  |  /  |          
                  \  \/   | |  | |   /    \    | | | |  |  | /  /          
                 / \  \   | |__| |  /  /\  \   | |_| |  |  |/  /          
                |  |  |   |  __  | /  /__\  \  |    /   |      \           
                |  |  |   | |  | | |   __   |  |    \   |  |\   \          
                \     /   | |  | | |  |  |  |  | |\  \  |  | \   \       
                 \___/    |_|  |_| |__|  |__|  |_| \__\ |__|  \__/        
                                                                              
                      - O R C A' S   B I G   F R I E N D -                    
                                      &                                       
                       - I N T E G R A L  F E E D E R -                       
                                                                              
 v1 FN, 2020, v2 2021, v3 2022-2024                                           
------------------------------------------------------------------------------


----------------------
SHARK INTEGRAL PACKAGE
----------------------

Number of atoms                             ...     16
Number of basis functions                   ...    249
Number of shells                            ...    117
Maximum angular momentum                    ...      2
Integral batch strategy                     ... SHARK/LIBINT Hybrid
RI-J (if used) integral strategy            ... SPLIT-RIJ (Revised 2003 algorithm where possible)
Printlevel                                  ...      1
Contraction scheme used                     ... SEGMENTED contraction
Prescreening option                         ... SCHWARTZ
   Thresh                                   ... 3.000e-11
   Tcut                                     ... 1.000e-12
   Tpresel                                  ... 1.000e-12 
Coulomb Range Separation                    ... NOT USED
Exchange Range Separation                   ... NOT USED
Multipole approximations                    ... NOT USED
Finite Nucleus Model                        ... NOT USED
CABS basis                                  ... NOT available
Auxiliary Coulomb fitting basis             ... AVAILABLE
   # of basis functions in Aux-J            ...    594
   # of shells in Aux-J                     ...    190
   Maximum angular momentum in Aux-J        ...      4
Auxiliary J/K fitting basis                 ... NOT available
Auxiliary Correlation fitting basis         ... NOT available
Auxiliary 'external' fitting basis          ... NOT available

Checking pre-screening integrals            ... done (  0.0 sec) Dimension = 117
Check shell pair data                       ... done (  0.0 sec)
Shell pair information
Shell pair cut-off parameter TPreSel        ...   1.0e-12
Total number of shell pairs                 ...      6903
Shell pairs after pre-screening             ...      6135
Total number of primitive shell pairs       ...     25908
Primitive shell pairs kept                  ...     16041
          la=0 lb=0:   1804 shell pairs
          la=1 lb=0:   2232 shell pairs
          la=1 lb=1:    697 shell pairs
          la=2 lb=0:    808 shell pairs
          la=2 lb=1:    498 shell pairs
          la=2 lb=2:     96 shell pairs

Calculating one electron integrals          ... done (  0.0 sec)
Calculating RI/J V-Matrix + Cholesky decomp.... done (  0.0 sec)
Calculating Nuclear repulsion               ... done (  0.0 sec) ENN=    558.097360188935 Eh

Diagonalization of the overlap matrix:
Smallest eigenvalue                        ... 2.157e-05
Time for diagonalization                   ...    0.004 sec
Threshold for overlap eigenvalues          ... 1.000e-07
Number of eigenvalues below threshold      ... 0
Time for construction of square roots      ...    0.002 sec
Total time needed                          ...    0.006 sec

-------------------
DFT GRID GENERATION
-------------------

General Integration Accuracy     IntAcc      ... 4.388
Radial Grid Type                 RadialGrid  ... OptM3 with GC (2021)
Angular Grid (max. ang.)         AngularGrid ... 4 (Lebedev-302)
Angular grid pruning method      GridPruning ... 4 (adaptive)
Weight generation scheme         WeightScheme... mBecke (2022)
Basis function cutoff            BFCut       ... 1.0000e-11
Integration weight cutoff        WCut        ... 1.0000e-14
Partially contracted basis set               ... off
Rotationally invariant grid construction     ... off
Angular grids for H and He will be reduced by one unit
Diffuse basis detected: some atoms will have their outermost
                        angular grid increased by 1.

Total number of grid points                  ...    82783
Total number of batches                      ...     1304
Average number of points per batch           ...       63
Average number of grid points per atom       ...     5174
Initializing property integral containers    ... done (  0.0 sec)

SHARK setup successfully completed in   0.6 seconds

Maximum memory used throughout the entire STARTUP-calculation: 40.9 MB
Occupation numbers will be reassigned to an Aufbau configuration
             **** ENERGY FILE WAS UPDATED (xtb_opt.en.tmp) ****
Finished Guess after   0.0 sec
Maximum memory used throughout the entire GUESS-calculation: 19.0 MB
----------------------------------------D-I-I-S--------------------------------------------
Iteration    Energy (Eh)           Delta-E    RMSDP     MaxDP     DIISErr   Damp  Time(sec)
-------------------------------------------------------------------------------------------
               ***  Starting incremental Fock matrix formation  ***
                              *** Initializing SOSCF ***
---------------------------------------S-O-S-C-F--------------------------------------
Iteration    Energy (Eh)           Delta-E    RMSDP     MaxDP     MaxGrad    Time(sec)
--------------------------------------------------------------------------------------
    1    -512.9993539670839482     0.00e+00  4.20e-06  1.20e-04  2.15e-05     1.6
               *** Restarting incremental Fock matrix formation ***
    2    -512.9993539594235017     7.66e-09  8.00e-06  1.71e-04  4.78e-05     1.7
    3    -512.9993537490328208     2.10e-07  6.10e-06  1.92e-04  1.25e-04     1.2
    4    -512.9993540320409693    -2.83e-07  2.85e-06  1.12e-04  1.97e-05     1.2
                  *** Gradient check signals convergence ***

               *****************************************************
               *                     SUCCESS                       *
               *           SCF CONVERGED AFTER   4 CYCLES          *
               *****************************************************

             **** ENERGY FILE WAS UPDATED (xtb_opt.en.tmp) ****

----------------
TOTAL SCF ENERGY
----------------

Total Energy       :       -512.99935403204097 Eh          -13959.42211 eV

Components:
Nuclear Repulsion  :        558.09736018893511 Eh           15186.60124 eV
Electronic Energy  :      -1071.09671422097608 Eh          -29146.02335 eV
One Electron Energy:      -1802.79388907176690 Eh          -49056.51571 eV
Two Electron Energy:        731.69717485079070 Eh           19910.49236 eV

Virial components:
Potential Energy   :      -1024.14625501163118 Eh          -27868.43640 eV
Kinetic Energy     :        511.14690097959027 Eh           13909.01430 eV
Virial Ratio       :          2.00362411089434

DFT components:
N(Alpha)           :       37.999996967619 electrons
N(Beta)            :       37.999996967619 electrons
N(Total)           :       75.999993935237 electrons
E(X)               :      -66.728839319308 Eh       
E(C)               :       -2.524425498403 Eh       
E(XC)              :      -69.253264817710 Eh       

---------------
SCF CONVERGENCE
---------------

  Last Energy change         ...    2.8301e-07  Tolerance :   1.0000e-07
  Last MAX-Density change    ...    1.1206e-04  Tolerance :   1.0000e-07
  Last RMS-Density change    ...    2.8511e-06  Tolerance :   5.0000e-09
  Last DIIS Error            ...    1.5291e-04  Tolerance :   1.0000e-07
  Last Orbital Gradient      ...    1.9703e-05  Tolerance :   1.0000e-04
  Last Orbital Rotation      ...    8.6939e-05  Tolerance :   1.0000e-04


----------------
ORBITAL ENERGIES
----------------

  NO   OCC          E(Eh)            E(eV) 
   0   2.0000     -18.954182      -515.7695 
   1   2.0000     -18.954177      -515.7694 
   2   2.0000     -14.217781      -386.8855 
   3   2.0000     -10.163054      -276.5508 
   4   2.0000     -10.163041      -276.5504 
   5   2.0000     -10.073271      -274.1076 
   6   2.0000     -10.072870      -274.0967 
   7   2.0000     -10.071318      -274.0545 
   8   2.0000     -10.071313      -274.0544 
   9   2.0000     -10.069440      -274.0034 
  10   2.0000     -10.068988      -273.9911 
  11   2.0000      -1.049667       -28.5629 
  12   2.0000      -1.031096       -28.0575 
  13   2.0000      -0.936090       -25.4723 
  14   2.0000      -0.858782       -23.3686 
  15   2.0000      -0.765436       -20.8286 
  16   2.0000      -0.754419       -20.5288 
  17   2.0000      -0.652609       -17.7584 
  18   2.0000      -0.647654       -17.6236 
  19   2.0000      -0.590105       -16.0576 
  20   2.0000      -0.566734       -15.4216 
  21   2.0000      -0.505435       -13.7536 
  22   2.0000      -0.492845       -13.4110 
  23   2.0000      -0.462173       -12.5764 
  24   2.0000      -0.454330       -12.3630 
  25   2.0000      -0.435254       -11.8439 
  26   2.0000      -0.434174       -11.8145 
  27   2.0000      -0.414910       -11.2903 
  28   2.0000      -0.412316       -11.2197 
  29   2.0000      -0.382468       -10.4075 
  30   2.0000      -0.368877       -10.0376 
  31   2.0000      -0.364725        -9.9247 
  32   2.0000      -0.350563        -9.5393 
  33   2.0000      -0.281659        -7.6643 
  34   2.0000      -0.270758        -7.3677 
  35   2.0000      -0.268756        -7.3132 
  36   2.0000      -0.265997        -7.2382 
  37   2.0000      -0.243118        -6.6156 
  38   0.0000      -0.116576        -3.1722 
  39   0.0000      -0.076575        -2.0837 
  40   0.0000      -0.008534        -0.2322 
  41   0.0000       0.041388         1.1262 
  42   0.0000       0.060349         1.6422 
  43   0.0000       0.085685         2.3316 
  44   0.0000       0.091454         2.4886 
  45   0.0000       0.098693         2.6856 
  46   0.0000       0.112502         3.0613 
  47   0.0000       0.122667         3.3379 
  48   0.0000       0.124560         3.3895 
*Only the first 10 virtual orbitals were printed.
Total SCF time: 0 days 0 hours 0 min 5 sec 
Finished LeanSCF after   5.8 sec

Maximum memory used throughout the entire LEANSCF-calculation: 28.5 MB


-------------------------------------------------------------------------------
                          DFT DISPERSION CORRECTION                            
                                                                               
                                DFTD4 V3.4.0                                   
-------------------------------------------------------------------------------
-------------------------   ----------------
Dispersion correction           -0.006264395
-------------------------   ----------------

------------------   -----------------
gCP correction             0.007455964
------------------   -----------------

-------------------------   --------------------
FINAL SINGLE POINT ENERGY      -512.998162463042
-------------------------   --------------------

------------------------------------------------------------------------------
                         ORCA SCF GRADIENT CALCULATION
------------------------------------------------------------------------------

Nuc. rep. gradient        (SHARK) ... done (  0.0 sec)
HCore & Overlap gradient  (SHARK) ... done (  0.2 sec)
Split-RIJ-J gradient      (SHARK) ... done (  1.5 sec)
XC gradient                       ... done (  4.2 sec)
Dispersion correction             ... done (  0.0 sec)

-------------------
DISPERSION GRADIENT
-------------------

   1   C   :   -0.000104077   -0.000031111   -0.000000008
   2   C   :   -0.000104082    0.000031091   -0.000000001
   3   C   :   -0.000062583    0.000073407    0.000000011
   4   C   :    0.000012909    0.000033867    0.000000010
   5   C   :    0.000012918   -0.000033862    0.000000008
   6   C   :   -0.000062573   -0.000073421   -0.000000003
   7   C   :    0.000078837   -0.000058488    0.000000004
   8   O   :    0.000067884   -0.000085580   -0.000000001
   9   N   :    0.000100541    0.000000010    0.000000001
  10   C   :    0.000078824    0.000058501    0.000000002
  11   O   :    0.000067866    0.000085594   -0.000000010
  12   H   :   -0.000038887   -0.000018072   -0.000000010
  13   H   :   -0.000038890    0.000018067    0.000000000
  14   H   :   -0.000020033    0.000048022    0.000000006
  15   H   :   -0.000020022   -0.000048028   -0.000000008
  16   H   :    0.000031368    0.000000001   -0.000000001

Difference to translation invariance:
           :    0.0000000000   -0.0000000000   -0.0000000000

Difference to rotation invariance:
           :   -0.0000000000   -0.0000000000    0.0000000000

Norm of the Dispersion gradient    ...    0.0003288750
RMS gradient                       ...    0.0000474690
MAX gradient                       ...    0.0001040824
gCP correction                   ... done

------------------
CARTESIAN GRADIENT
------------------

   1   C   :    0.001053831    0.003864799    0.000023853
   2   C   :    0.001020422   -0.003862852   -0.000029633
   3   C   :   -0.002577554   -0.001829291   -0.000007885
   4   C   :    0.002770049    0.005632773    0.000000705
   5   C   :    0.002776870   -0.005612833    0.000009566
   6   C   :   -0.002606841    0.001804850    0.000022480
   7   C   :    0.004446347   -0.004222671   -0.000007472
   8   O   :   -0.003183731    0.015396970    0.000000094
   9   N   :   -0.012639707    0.000057222   -0.000007219
  10   C   :    0.004472724    0.004322339    0.000003496
  11   O   :   -0.003251949   -0.015565368   -0.000006090
  12   H   :    0.003344461    0.001821692   -0.000014121
  13   H   :    0.003368745   -0.001804157    0.000013041
  14   H   :   -0.000087924   -0.004362386    0.000006307
  15   H   :   -0.000057465    0.004380733   -0.000014345
  16   H   :    0.001151720   -0.000021821    0.000007224

Difference to translation invariance:
           :    0.0000000000    0.0000000000    0.0000000000

Difference to rotation invariance:
           :   -0.0000005136    0.0000004201    0.0000003602

Norm of the Cartesian gradient     ...    0.0305851603
RMS gradient                       ...    0.0044145876
MAX gradient                       ...    0.0155653680

-------
TIMINGS
-------

Total SCF gradient time     ....        5.888 sec

Densities                   ....       0.000 sec  (  0.0%)
One electron gradient       ....       0.198 sec  (  3.4%)
RI-J Coulomb gradient       ....       1.456 sec  ( 24.7%)
XC gradient                 ....       4.215 sec  ( 71.6%)

Maximum memory used throughout the entire SCFGRAD-calculation: 39.3 MB

------------------------------------------------------------------------------
                              ORCA PROPERTY CALCULATIONS
------------------------------------------------------------------------------

GBWName                                 ... xtb_opt.gbw
Number of atoms                         ...     16
Number of basis functions               ...    249
Max core memory                         ...   1024 MB

Electric properties:
Dipole moment                           ... YES
Quadrupole moment                       ...  NO
Static polarizability (Dipole/Dipole)   ...  NO
Static polarizability (Dipole/Quad.)    ...  NO
Static polarizability (Quad./Quad.)     ...  NO
Static polarizability (Velocity)        ...  NO

Atomic electric properties:
Dipole moment                           ...  NO
Quadrupole moment                       ...  NO
Static polarizability                   ...  NO

Choice of electric origin               ... Center of mass
Position of electric origin             ...    -0.000018    -0.000000     0.000000

General magnetic properties:
Magnetizability                         ...  NO

EPR properties:
g-Tensor (aka g-matrix)                 ...  NO
Zero-Field splitting spin-orbit         ...  NO
Zero-field splitting spin-spin          ...  NO
Hyperfine couplings                     ...  NO (   0 nuclei)
Quadrupole couplings                    ...  NO (   0 nuclei)
Contact density                         ...  NO (   0 nuclei)

NMR properties:
Chemical shifts                         ...  NO (   0 nuclei)
Spin-rotation constants                 ...  NO (   0 nuclei)
Spin-spin couplings                     ...  NO (   0 nuclei,    0 pairs)

Choice of magnetic origin               ... GIAO
Position of magnetic origin             ...     0.000000     0.000000     0.000000

Properties with geometric perturbations:
SCF Hessian                             ...  NO
IR spectrum                             ...  NO
VCD spectrum                            ...  NO
X-ray spectroscopy properties:
SCF XES/XAS/RIXS spectra                ...  NO


-------------
DIPOLE MOMENT
-------------

Method             : SCF
Type of density    : Electron Density
Multiplicity       :   1
Irrep              :   0
Energy             :  -512.9993540320409693 Eh
Relativity type    : 
Basis              : AO
                                X                 Y                 Z
Electronic contribution:      5.264696433       0.000547211       0.000742910
Nuclear contribution   :     -6.408379017      -0.000462725      -0.000654602
                        -----------------------------------------
Total Dipole Moment    :     -1.143682584       0.000084486       0.000088308
                        -----------------------------------------
Magnitude (a.u.)       :      1.143682590
Magnitude (Debye)      :      2.907010120



--------------------
Rotational spectrum 
--------------------
 
Rotational constants in cm-1:             0.058979             0.040148             0.023887 
Rotational constants in MHz :          1768.133361          1203.601910           716.123247 

Dipole components along the rotational axes: 
x,y,z [a.u.] :    -1.143683     0.000084     0.000088 
x,y,z [Debye]:    -2.907010     0.000215     0.000224 

 

Dipole moment calculation done in   0.0 sec 

Maximum memory used throughout the entire PROP-calculation: 18.0 MB

--------------------------------
SUGGESTED CITATIONS FOR THIS RUN
--------------------------------

Below you find a list of papers that are relevant to this ORCA run
We neither can nor want to force you to cite these papers, but we appreciate if you do
You receive ORCA, which is the product of decades of hard work by many enthusiastic individuals, for free
The only thing we kindly ask in return is that you cite our papers,
We deeply appreciate it, if you show your appreciation for ORCA by not just citing the generic ORCA reference.

Please note that relegating all ORCA citations to the supporting information does *not* help us.
SI sections are not indexed - citations you put there will not count into any citation statistics
But we need these citations in order to attract the funding resources that allow us to do what we are doing

Therefore, if you are a happy ORCA user, please consider citing a few of the papers listed below in the main body of your paper

In addition to the list printed below, the program has created the file xtb_opt.bibtex that contains the list in bibtex format
You can import this file easily into all common literature databanks and citation aid programs


List of essential papers. We consider these as the minimum necessary citations

  1. Neese,F.
     Software update: the ORCA program system, version 5.0
     WIRES Comput. Molec. Sci., 2022 12(1)e1606
     doi.org/10.1002/wcms.1606
  2. Grimme,S.; Hansen,A.; Ehlert,S.; Mewes,J.
     r2SCAN-3c: A 'Swiss army knife' composite electronic-structure method
     J. Chem. Phys., 2021 154 064103
     doi.org/10.1063/5.0040021

List of papers to cite with high priority. The work reported in these papers was absolutely
necessary for this run to complete.
Our perspective: the developers of density functionals and basis sets usually get cited in chemistry papers
Good! But without the algorithms to do something with them, the functionals or basis sets would not do anything.
Hence, in our opinion, the algorithm design and method developments papers are equally worthy of getting cited

  1. Neese,F.
     An improvement of the resolution of the identity approximation for the formation of the Coulomb matrix
     J. Comp. Chem., 2003 24(14)1740-1747
     doi.org/10.1002/jcc.10318
  2. Neese,F.
     The SHARK Integral Generation and Digestion System
     J. Comp. Chem., 2022  1-16
     doi.org/10.1002/jcc.26942
  3. Lehtola,S.; Steigemann,C.; Oliveira,M.; Marques,M.
     Recent developments in Libxc - A comprehensive library of functionals for density functional theory
     Software X, 2018 7 
     doi.org/10.1016/j.softx.2017.11.002
  4. Caldeweyher,E.; Bannwarth,C.; Grimme,S.
     Extension of the D3 dispersion coefficient model
     J. Chem. Phys., 2017 147 034112
     doi.org/10.1063/1.4993215
  5. Caldeweyher,E.; Ehlert,S.; Hansen,A.; Neugebauer,H.; Spicher,S.; Bannwarth,C.; Grimme,S.
     A generally applicable atomic-charge dependent London dispersion correction
     J. Chem. Phys., 2019 150 154122
     doi.org/10.1063/1.5090222
  6. Caldeweyher,E.; Mewes,J.; Ehlert,S.; Grimme,S.
     Extension and evaluation of the D4 London-dispersion model for periodic systems
     Phys. Chem. Chem. Phys., 2020 22(16)8499-8512
     doi.org/10.1039/D0CP00502A
  7. Wittmann,L.; Gordiy,I.; Friede,M.; Helmich-Paris,B.; Grimme,S.; Hansen,A.; Bursch,M.
     Extension of the D3 and D4 London Dispersion Corrections to the full Actinides Series
     Phys. Chem. Chem. Phys., 2024 26(32)21379-21394
     doi.org/https://doi.org/10.1039/D4CP01514B 

List of suggested additional citations. These are papers that are important in the 'surrounding' of 
of this run, or papers that preceded the highly important papers. If you like your results we are grateful for a citation.

  1. Neese,F.
     The ORCA program system
     WIRES Comput. Molec. Sci., 2012 2(1)73-78
     doi.org/10.1002/wcms.81
  2. Neese,F.
     Software update: the ORCA program system, version 4.0
     WIRES Comput. Molec. Sci., 2018 8(1)1-6
     doi.org/10.1002/wcms.1327
  3. Neese,F.; Wennmohs,F.; Becker,U.; Riplinger,C.
     The ORCA quantum chemistry program package
     J. Chem. Phys., 2020 152 Art. No. L224108
     doi.org/10.1063/5.0004608

List of optional additional citations

  1. Neese,F.
     Approximate second-order SCF convergence for spin unrestricted wavefunctions
     Chem. Phys. Lett., 2000 325(1-3)93-98
     doi.org/10.1016/s0009-2614(00)00662-x

Timings for individual modules:

Sum of individual times          ...       12.441 sec (=   0.207 min)
Startup calculation              ...        0.605 sec (=   0.010 min)   4.9 %
SCF iterations                   ...        5.866 sec (=   0.098 min)  47.1 %
Property calculations            ...        0.040 sec (=   0.001 min)   0.3 %
SCF Gradient evaluation          ...        5.930 sec (=   0.099 min)  47.7 %
                             ****ORCA TERMINATED NORMALLY****
TOTAL RUN TIME: 0 days 0 hours 0 minutes 12 seconds 505 msec
  ------------------------------------------------------------------------
          * successful ORCA run, taking over control again...

         :::::::::::::::::::::::::::::::::::::::::::::::::::::
         ::                  ORCA SUMMARY                   ::
         :::::::::::::::::::::::::::::::::::::::::::::::::::::
         :: total energy            -512.998162463042 Eh    ::
         :: gradient norm              0.030585160323 Eh/a0 ::
         :: HOMO-LUMO gap              0.000000000000 eV    ::
         :::::::::::::::::::::::::::::::::::::::::::::::::::::

      ----------------------------------------------------------- 
     |                       L-ANC optimizer                     |
      ----------------------------------------------------------- 
          low memory version by Sebastian Ehlert

          ...................................................
          :                      SETUP                      :
          :.................................................:
          :   energy convergence        0.5000000E-05 Eh    :
          :   grad. convergence         0.1000000E-02 Eh/a0 :
          :   optimization log               true           :
          :   writing optlog all                1     steps :
          :   Hessian reset                    20     steps :
          :   maximium step len.        1.0000000     a0    :
          :   LBFGS images                     20           :
          ...................................................
 * calculating model hessian...
Using Lindh-Hessian (1995)
 Shifting diagonal of input Hessian by    1.0000000000000000E-002
 Lowest  eigenvalues of input Hessian
    0.000000    0.000000    0.000000    0.000000    0.000000    0.000000
    0.016790    0.018021    0.028284    0.032276    0.035459    0.044038
    0.058548    0.079604    0.082581    0.104758    0.110988    0.111962
 Highest eigenvalues
    1.887971    1.970328    2.040838    2.070487    2.392715    2.494671


........................................................................
.............................. CYCLE    1 ..............................
........................................................................
                         * ORCA takes the control...
  ------------------------------------------------------------------------

                                 *****************
                                 * O   R   C   A *
                                 *****************

                                            #,                                       
                                            ###                                      
                                            ####                                     
                                            #####                                    
                                            ######                                   
                                           ########,                                 
                                     ,,################,,,,,                         
                               ,,#################################,,                 
                          ,,##########################################,,             
                       ,#########################################, ''#####,          
                    ,#############################################,,   '####,        
                  ,##################################################,,,,####,       
                ,###########''''           ''''###############################       
              ,#####''   ,,,,##########,,,,          '''####'''          '####       
            ,##' ,,,,###########################,,,                        '##       
           ' ,,###''''                  '''############,,,                           
         ,,##''                                '''############,,,,        ,,,,,,###''
      ,#''                                            '''#######################'''  
     '                                                          ''''####''''         
             ,#######,   #######,   ,#######,      ##                                
            ,#'     '#,  ##    ##  ,#'     '#,    #''#        ,####,   ,####,        
            ##       ##  ##   ,#'  ##            #'  '#       #'       #'  '#        
            ##       ##  #######   ##           ,######,      #####,   #    #        
            '#,     ,#'  ##    ##  '#,     ,#' ,#      #,     #,   #   #,  ,#        
             '#######'   ##     ##  '#######'  #'      '#     '####' # '####'        



                #########################################################
                #                        -***-                          #
                #          Department of theory and spectroscopy        #
                #                                                       #
                #                      Frank Neese                      #
                #                                                       #
                #     Directorship, Architecture, Infrastructure        #
                #                    SHARK, DRIVERS                     #
                #        Core code/Algorithms in most modules           #
                #                                                       #
                #        Max Planck Institute fuer Kohlenforschung      #
                #                Kaiser Wilhelm Platz 1                 #
                #                 D-45470 Muelheim/Ruhr                 #
                #                      Germany                          #
                #                                                       #
                #                  All rights reserved                  #
                #                        -***-                          #
                #########################################################


                         Program Version 6.0.1  -  RELEASE   -


 With contributions from (in alphabetic order):
[Max-Planck-Institut fuer Kohlenforschung]                               
  Daniel Aravena         : Magnetic Suceptibility                        
  Michael Atanasov       : Ab Initio Ligand Field Theory (pilot matlab implementation)
  Alexander A. Auer      : GIAO ZORA, VPT2 properties, NMR spectrum      
  Ute Becker             : All parallelization in ORCA, NUMFREQ, NUMCALC 
  Giovanni Bistoni       : ED, misc. LED, open-shell LED, HFLD           
  Martin Brehm           : Molecular dynamics                            
  Dmytro Bykov           : pre 5.0 version of the SCF Hessian            
  Marcos Casanova-Páez   : Triplet and SCS-CIS(D). UHF-(DLPNO)-IP/EA/STEOM-CCSD. UHF-CVS-IP/STEOM-CCSD   
  Vijay G. Chilkuri      : MRCI spin determinant printing, contributions to CSF-ICE 
  Pauline Colinet        : FMM embedding                                 
  Dipayan Datta          : RHF DLPNO-CCSD density                        
  Achintya Kumar Dutta   : EOM-CC, STEOM-CC                              
  Nicolas Foglia         : Exact transition moments, OPA infrastructure, MCD improvements    
  Dmitry Ganyushin       : Spin-Orbit,Spin-Spin,Magnetic field MRCI      
  Miquel Garcia-Rates    : C-PCM and meta-GGA Hessian, CCSD/C-PCM, Gaussian charge scheme 
  Tiago L. C. Gouveia    : GS-ROHF, GS-ROCIS                             
  Yang Guo               : DLPNO-NEVPT2, F12-NEVPT2, CIM, IAO-localization        
  Andreas Hansen         : Spin unrestricted coupled pair/coupled cluster methods 
  Ingolf Harden          : AUTO-CI MPn and infrastructure                
  Benjamin Helmich-Paris : MC-RPA, TRAH-(SCF,CASSCF), AVAS, COSX integrals, SCF dyn. polar. 
  Lee Huntington         : MR-EOM, pCC                                   
  Robert Izsak           : Overlap fitted RIJCOSX, COSX-SCS-MP3, EOM     
  Riya Kayal             : Wick's Theorem for AUTO-CI, AUTO-CI UHF-CCSDT 
  Emily Kempfer          : AUTO-CI, RHF CISDT and CCSDT                  
  Christian Kollmar      : KDIIS, OOCD, Brueckner-CCSD(T), CCSD density, CASPT2, CASPT2-K, improved NEVPT2 
  Axel Koslowski         : Symmetry handling                             
  Simone Kossmann        : meta-GGA functionals, TD-DFT gradient, OOMP2, (MP2 Hessian; deprecated post 5.0) 
  Lucas Lang             : DCDCAS                                        
  Marvin Lechner         : AUTO-CI (C++ implementation), FIC-MRCC        
  Spencer Leger          : CASSCF response                               
  Dagmar Lenk            : GEPOL surface, SMD, ORCA-2-JSON               
  Dimitrios Liakos       : Extrapolation schemes; Compound Job, initial MDCI parallelization 
  Dimitrios Manganas     : Further ROCIS development; embedding schemes. LFT, Crystal Embedding 
  Dimitrios Pantazis     : SARC Basis sets                               
  Anastasios Papadopoulos: AUTO-CI, single reference methods and gradients 
  Taras Petrenko         : pre 6.0 DFT Hessian and TD-DFT gradient, (ASA, deprecated), ECA, 1-Electron XAS/XES, NRVS 
  Peter Pinski           : DLPNO-MP2, DLPNO-MP2 Gradient                 
  Christoph Reimann      : Effective Core Potentials                     
  Marius Retegan         : Local ZFS, SOC                                
  Christoph Riplinger    : Optimizer, TS searches, QM/MM, DLPNO-CCSD(T), (RO)-DLPNO pert. Triples 
  Michael Roemelt        : Original ROCIS implementation                 
  Masaaki Saitow         : Open-shell DLPNO-CCSD energy and density      
  Barbara Sandhoefer     : DKH picture change effects                    
  Kantharuban Sivalingam : CASSCF convergence/infrastructure, NEVPT2 and variants, FIC-MRCI 
  Bernardo de Souza      : ESD, SOC TD-DFT                               
  Georgi L. Stoychev     : AutoAux, RI-MP2 NMR, DLPNO-MP2 response, X2C  
  Van Anh Tran           : RI-MP2 g-tensors                              
  Willem Van den Heuvel  : Paramagnetic NMR                              
  Zikuan Wang            : NOTCH, Electric field optimization            
  Frank Wennmohs         : Technical directorship and infrastructure     
  Hang Xu                : AUTO-CI-Response properties                   
                                                                         
[FACCTs GmbH]                                                            
  Markus Bursch, Miquel Garcia-Rates, Christoph Riplinger, Bernardo de Souza, Georgi L. Stoychev 
                                                                 
  APM, Basis sets (HGBS, AHGBS, def-TZVP (Ac-Lr), def2-XVPD (La-Lu)), CI-OPT, improved COSX, DLPNO-Multilevel,           
  DOCKER, DRACO, updates on ESD, GOAT, IRC, LR-CPCM, MBIS, meta-GGA TD-DFT gradient, ML-optimized integration grids, 
  MM, NACMEs, nearIR, NEB, NEB-TS, NL-DFT gradient (VV10), 2- and 3-layer-ONIOM, interface openCOSMO-RS, QMMM,   
  Crystal-QMMM, SF, symmetry and pop. for TD-DFT, r2SCAN hybrids, SOLVATOR                                   
                                                                         
[Other institutions]                                                     
  V. Asgeirsson          : NEB                                           
  Christoph Bannwarth    : sTDA-DFT, sTD-DFT, PBEh-3c, B97-3c, D3        
  Sebastian Ehlert       : rSCAN, r2SCAN, r2SCAN-3c, D4, dhf basis sets  
  Marvin Friede          : D4 for Fr, Ra, Ac-Lr                          
  Lars Goerigk           : TD-DFT with DH, B97 family of functionals     
  Stefan Grimme          : VdW corrections, initial TS optimization, DFT functionals, gCP, sTDA/sTD-DF 
  Waldemar Hujo          : DFT-NL                                        
  H. Jonsson             : NEB                                           
  Holger Kruse           : gCP                                           
  Marcel Mueller         : wB97X-3c, vDZP basis set                      
  Hagen Neugebauer       : wr2SCAN                                       
  Tobias Risthaus        : range-separated hybrid DFT                    
  Lukas Wittmann         : regularized MP2, r2SCAN double-hybrids, wr2SCAN        
                                                                         
We gratefully acknowledge several colleagues who have allowed us to      
interface, adapt or use parts of their codes:                            
  Ed Valeev, F. Pavosevic, A. Kumar             : LibInt (2-el integral package), F12 methods 
  Garnet Chan, S. Sharma, J. Yang, R. Olivares  : DMRG                   
  Ulf Ekstrom                                   : XCFun DFT Library      
  Mihaly Kallay                                 : mrcc  (arbitrary order and MRCC methods)
  Frank Weinhold                                : gennbo (NPA and NBO analysis)           
  Simon Mueller                                 : openCOSMO-RS                            
  Christopher J. Cramer and Donald G. Truhlar   : smd solvation model                     
  S Lehtola, MJT Oliveira, MAL Marques          : LibXC Library                           
  Liviu Ungur et al                             : ANISO software                          


 Your calculation uses the libint2 library for the computation of 2-el integrals
 For citations please refer to: http://libint.valeyev.net

 Your ORCA version has been built with support for libXC version: 6.2.2
 For citations please refer to: https://libxc.gitlab.io

 This ORCA versions uses:
   CBLAS   interface :  Fast vector & matrix operations
   LAPACKE interface :  Fast linear algebra routines
   SCALAPACK package :  Parallel linear algebra routines
   Shared memory     :  Shared parallel matrices
   BLAS/LAPACK       :  OpenBLAS 0.3.27  USE64BITINT DYNAMIC_ARCH NO_AFFINITY Zen SINGLE_THREADED
        Core in use  :  Zen
   Copyright (c) 2011-2014, The OpenBLAS Project




***************************************
The coordinates will be read from file: xtb_opt.xyz
***************************************


Your calculation utilizes the geometrical counterpoise correction gCP
Please cite in your paper:
H.Kruse, S. Grimme J.Chem.Phys., 136, (2012), 154101 
   

Your calculation utilizes the atom-pairwise dispersion correction
based on EEQ partial charges (D4)


================================================================================

----- Orbital basis set information -----
Your calculation utilizes the basis: def2-mTZVPP
   Stefan Grimme, Andreas Hansen, Sebastian Ehlert, and Jan-Michael Mewes 
   J. Chem. Phys. 154, 064103 (2021). DOI: 10.1063/5.0040021

----- AuxJ basis set information -----
Your calculation utilizes the auxiliary basis: def2/J
   F. Weigend, Phys. Chem. Chem. Phys. 8, 1057 (2006).

================================================================================
                                        WARNINGS
                       Please study these warnings very carefully!
================================================================================

WARNING: Old DensityContainer found on disk!
         Will remove this file - 
         If you want to keep old densities, please start your calculation with a different basename. 



WARNING: SCAN, rSCAN, or r2SCAN functional requested.
  ===> : libXC variant has now been activated.



================================================================================
                                       INPUT FILE
================================================================================
NAME = xtb_opt.inp
|  1> ! r2scan-3c def2/J RI DEFGRID2 scfconv7 ENGRAD tightSCF miniprint
|  2> * xyzfile 0 1 xtb_opt.xyz
|  3> 
|  4>                          ****END OF INPUT****
================================================================================

                     *******************************
                     * Energy+Gradient Calculation *
                     *******************************

---------------------------------
CARTESIAN COORDINATES (ANGSTROEM)
---------------------------------
  C     -2.594774   -0.697058   -0.000256
  C     -2.594881    0.696606    0.000017
  C     -1.400095    1.418025    0.000189
  C     -0.220413    0.698530    0.000198
  C     -0.220304   -0.698557    0.000073
  C     -1.399868   -1.418267   -0.000209
  C      1.192235   -1.169501    0.000040
  O      1.630980   -2.297012   -0.000022
  N      1.954772    0.000192   -0.000032
  C      1.192017    1.169743    0.000052
  O      1.630509    2.297340   -0.000072
  H     -3.538879   -1.229535   -0.000479
  H     -3.539013    1.229024   -0.000037
  H     -1.390015    2.501627    0.000257
  H     -1.389443   -2.501862   -0.000354
  H      2.963206    0.000138    0.000088

----------------------------
CARTESIAN COORDINATES (A.U.)
----------------------------
  NO LB      ZA    FRAG     MASS         X           Y           Z
   0 C     6.0000    0    12.011   -4.903413   -1.317249   -0.000484
   1 C     6.0000    0    12.011   -4.903615    1.316394    0.000031
   2 C     6.0000    0    12.011   -2.645795    2.679678    0.000357
   3 C     6.0000    0    12.011   -0.416520    1.320031    0.000373
   4 C     6.0000    0    12.011   -0.416314   -1.320081    0.000138
   5 C     6.0000    0    12.011   -2.645367   -2.680136   -0.000396
   6 C     6.0000    0    12.011    2.252999   -2.210037    0.000076
   7 O     8.0000    0    15.999    3.082106   -4.340723   -0.000041
   8 N     7.0000    0    14.007    3.693983    0.000362   -0.000060
   9 C     6.0000    0    12.011    2.252586    2.210494    0.000097
  10 O     8.0000    0    15.999    3.081215    4.341343   -0.000136
  11 H     1.0000    0     1.008   -6.687512   -2.323485   -0.000905
  12 H     1.0000    0     1.008   -6.687766    2.322519   -0.000071
  13 H     1.0000    0     1.008   -2.626747    4.727389    0.000485
  14 H     1.0000    0     1.008   -2.625666   -4.727833   -0.000669
  15 H     1.0000    0     1.008    5.599648    0.000262    0.000166

------------------------------------------------------------------------------
                   ___                                                        
                  /   \      - P O W E R E D   B Y -                         
                 /     \                                                     
                 |  |  |   _    _      __       _____    __    __             
                 |  |  |  | |  | |    /  \     |  _  \  |  |  /  |          
                  \  \/   | |  | |   /    \    | | | |  |  | /  /          
                 / \  \   | |__| |  /  /\  \   | |_| |  |  |/  /          
                |  |  |   |  __  | /  /__\  \  |    /   |      \           
                |  |  |   | |  | | |   __   |  |    \   |  |\   \          
                \     /   | |  | | |  |  |  |  | |\  \  |  | \   \       
                 \___/    |_|  |_| |__|  |__|  |_| \__\ |__|  \__/        
                                                                              
                      - O R C A' S   B I G   F R I E N D -                    
                                      &                                       
                       - I N T E G R A L  F E E D E R -                       
                                                                              
 v1 FN, 2020, v2 2021, v3 2022-2024                                           
------------------------------------------------------------------------------


----------------------
SHARK INTEGRAL PACKAGE
----------------------

Number of atoms                             ...     16
Number of basis functions                   ...    249
Number of shells                            ...    117
Maximum angular momentum                    ...      2
Integral batch strategy                     ... SHARK/LIBINT Hybrid
RI-J (if used) integral strategy            ... SPLIT-RIJ (Revised 2003 algorithm where possible)
Printlevel                                  ...      1
Contraction scheme used                     ... SEGMENTED contraction
Prescreening option                         ... SCHWARTZ
   Thresh                                   ... 3.000e-11
   Tcut                                     ... 1.000e-12
   Tpresel                                  ... 1.000e-12 
Coulomb Range Separation                    ... NOT USED
Exchange Range Separation                   ... NOT USED
Multipole approximations                    ... NOT USED
Finite Nucleus Model                        ... NOT USED
CABS basis                                  ... NOT available
Auxiliary Coulomb fitting basis             ... AVAILABLE
   # of basis functions in Aux-J            ...    594
   # of shells in Aux-J                     ...    190
   Maximum angular momentum in Aux-J        ...      4
Auxiliary J/K fitting basis                 ... NOT available
Auxiliary Correlation fitting basis         ... NOT available
Auxiliary 'external' fitting basis          ... NOT available

Checking pre-screening integrals            ... done (  0.0 sec) Dimension = 117
Check shell pair data                       ... done (  0.0 sec)
Shell pair information
Shell pair cut-off parameter TPreSel        ...   1.0e-12
Total number of shell pairs                 ...      6903
Shell pairs after pre-screening             ...      6131
Total number of primitive shell pairs       ...     25908
Primitive shell pairs kept                  ...     16035
          la=0 lb=0:   1804 shell pairs
          la=1 lb=0:   2232 shell pairs
          la=1 lb=1:    697 shell pairs
          la=2 lb=0:    804 shell pairs
          la=2 lb=1:    498 shell pairs
          la=2 lb=2:     96 shell pairs

Calculating one electron integrals          ... done (  0.0 sec)
Calculating RI/J V-Matrix + Cholesky decomp.... done (  0.0 sec)
Calculating Nuclear repulsion               ... done (  0.0 sec) ENN=    556.192728155065 Eh

Diagonalization of the overlap matrix:
Smallest eigenvalue                        ... 2.213e-05
Time for diagonalization                   ...    0.004 sec
Threshold for overlap eigenvalues          ... 1.000e-07
Number of eigenvalues below threshold      ... 0
Time for construction of square roots      ...    0.001 sec
Total time needed                          ...    0.006 sec

-------------------
DFT GRID GENERATION
-------------------

General Integration Accuracy     IntAcc      ... 4.388
Radial Grid Type                 RadialGrid  ... OptM3 with GC (2021)
Angular Grid (max. ang.)         AngularGrid ... 4 (Lebedev-302)
Angular grid pruning method      GridPruning ... 4 (adaptive)
Weight generation scheme         WeightScheme... mBecke (2022)
Basis function cutoff            BFCut       ... 1.0000e-11
Integration weight cutoff        WCut        ... 1.0000e-14
Partially contracted basis set               ... off
Rotationally invariant grid construction     ... off
Angular grids for H and He will be reduced by one unit
Diffuse basis detected: some atoms will have their outermost
                        angular grid increased by 1.

Total number of grid points                  ...    82787
Total number of batches                      ...     1302
Average number of points per batch           ...       63
Average number of grid points per atom       ...     5174
Initializing property integral containers    ... done (  0.0 sec)

SHARK setup successfully completed in   0.6 seconds

Maximum memory used throughout the entire STARTUP-calculation: 40.9 MB
Occupation numbers will be reassigned to an Aufbau configuration
             **** ENERGY FILE WAS UPDATED (xtb_opt.en.tmp) ****
Finished Guess after   0.0 sec
Maximum memory used throughout the entire GUESS-calculation: 19.0 MB
----------------------------------------D-I-I-S--------------------------------------------
Iteration    Energy (Eh)           Delta-E    RMSDP     MaxDP     DIISErr   Damp  Time(sec)
-------------------------------------------------------------------------------------------
               ***  Starting incremental Fock matrix formation  ***
    1    -512.9998334444377406     0.00e+00  8.35e-05  2.06e-03  4.71e-03  0.700   1.6
    2    -512.9999162687728358    -8.28e-05  7.19e-05  1.85e-03  3.33e-03  0.700   1.3
                               ***Turning on AO-DIIS***
                              *** Initializing SOSCF ***
---------------------------------------S-O-S-C-F--------------------------------------
Iteration    Energy (Eh)           Delta-E    RMSDP     MaxDP     MaxGrad    Time(sec)
--------------------------------------------------------------------------------------
    3    -512.9999725303697460    -5.63e-05  1.88e-04  5.19e-03  2.38e-03     1.3
               *** Restarting incremental Fock matrix formation ***
    4    -513.0000984296056004    -1.26e-04  3.96e-05  1.41e-03  1.97e-04     1.6
    5    -513.0000942235668617     4.21e-06  2.62e-05  1.09e-03  5.72e-04     1.3
    6    -513.0000996639238338    -5.44e-06  1.95e-05  7.87e-04  9.52e-05     1.3
    7    -513.0000992882465880     3.76e-07  8.42e-06  2.73e-04  1.46e-04     1.2
    8    -513.0000998317383392    -5.43e-07  9.54e-06  4.14e-04  4.30e-05     1.2
    9    -513.0000997631058226     6.86e-08  6.04e-06  2.30e-04  5.72e-05     1.2
                 **** Energy Check signals convergence ****

               *****************************************************
               *                     SUCCESS                       *
               *           SCF CONVERGED AFTER   9 CYCLES          *
               *****************************************************

             **** ENERGY FILE WAS UPDATED (xtb_opt.en.tmp) ****

----------------
TOTAL SCF ENERGY
----------------

Total Energy       :       -513.00009976310582 Eh          -13959.44240 eV

Components:
Nuclear Repulsion  :        556.19272815506486 Eh           15134.77357 eV
Electronic Energy  :      -1069.19282791817068 Eh          -29094.21597 eV
One Electron Energy:      -1799.01890702417268 Eh          -48953.79322 eV
Two Electron Energy:        729.82607910600211 Eh           19859.57725 eV

Virial components:
Potential Energy   :      -1023.94935881769970 Eh          -27863.07858 eV
Kinetic Energy     :        510.94925905459388 Eh           13903.63619 eV
Virial Ratio       :          2.00401378546337

DFT components:
N(Alpha)           :       37.999998984141 electrons
N(Beta)            :       37.999998984141 electrons
N(Total)           :       75.999997968283 electrons
E(X)               :      -66.683799265861 Eh       
E(C)               :       -2.522214547710 Eh       
E(XC)              :      -69.206013813571 Eh       

---------------
SCF CONVERGENCE
---------------

  Last Energy change         ...   -6.8633e-08  Tolerance :   1.0000e-07
  Last MAX-Density change    ...    2.3034e-04  Tolerance :   1.0000e-07
  Last RMS-Density change    ...    6.0369e-06  Tolerance :   5.0000e-09
  Last DIIS Error            ...    2.3802e-03  Tolerance :   1.0000e-07
  Last Orbital Gradient      ...    5.7186e-05  Tolerance :   1.0000e-04
  Last Orbital Rotation      ...    1.3128e-04  Tolerance :   1.0000e-04


----------------
ORBITAL ENERGIES
----------------

  NO   OCC          E(Eh)            E(eV) 
   0   2.0000     -18.955975      -515.8183 
   1   2.0000     -18.955973      -515.8182 
   2   2.0000     -14.219707      -386.9379 
   3   2.0000     -10.165951      -276.6296 
   4   2.0000     -10.165946      -276.6295 
   5   2.0000     -10.074792      -274.1490 
   6   2.0000     -10.074389      -274.1381 
   7   2.0000     -10.073105      -274.1031 
   8   2.0000     -10.073096      -274.1029 
   9   2.0000     -10.071597      -274.0621 
  10   2.0000     -10.071175      -274.0506 
  11   2.0000      -1.045527       -28.4502 
  12   2.0000      -1.027322       -27.9549 
  13   2.0000      -0.933707       -25.4075 
  14   2.0000      -0.857617       -23.3369 
  15   2.0000      -0.764453       -20.8018 
  16   2.0000      -0.753854       -20.5134 
  17   2.0000      -0.651871       -17.7383 
  18   2.0000      -0.646748       -17.5989 
  19   2.0000      -0.588535       -16.0149 
  20   2.0000      -0.566594       -15.4178 
  21   2.0000      -0.504722       -13.7342 
  22   2.0000      -0.491395       -13.3715 
  23   2.0000      -0.462392       -12.5823 
  24   2.0000      -0.451887       -12.2965 
  25   2.0000      -0.434795       -11.8314 
  26   2.0000      -0.434009       -11.8100 
  27   2.0000      -0.414428       -11.2772 
  28   2.0000      -0.412031       -11.2119 
  29   2.0000      -0.380491       -10.3537 
  30   2.0000      -0.367844       -10.0095 
  31   2.0000      -0.364440        -9.9169 
  32   2.0000      -0.350833        -9.5466 
  33   2.0000      -0.281548        -7.6613 
  34   2.0000      -0.270646        -7.3647 
  35   2.0000      -0.269058        -7.3214 
  36   2.0000      -0.266001        -7.2383 
  37   2.0000      -0.243924        -6.6375 
  38   0.0000      -0.117995        -3.2108 
  39   0.0000      -0.077751        -2.1157 
  40   0.0000      -0.010944        -0.2978 
  41   0.0000       0.037148         1.0108 
  42   0.0000       0.059410         1.6166 
  43   0.0000       0.084902         2.3103 
  44   0.0000       0.091807         2.4982 
  45   0.0000       0.097992         2.6665 
  46   0.0000       0.111559         3.0357 
  47   0.0000       0.122018         3.3203 
  48   0.0000       0.122277         3.3273 
*Only the first 10 virtual orbitals were printed.
Total SCF time: 0 days 0 hours 0 min 12 sec 
Finished LeanSCF after  12.2 sec

Maximum memory used throughout the entire LEANSCF-calculation: 28.4 MB


-------------------------------------------------------------------------------
                          DFT DISPERSION CORRECTION                            
                                                                               
                                DFTD4 V3.4.0                                   
-------------------------------------------------------------------------------
-------------------------   ----------------
Dispersion correction           -0.006249641
-------------------------   ----------------

------------------   -----------------
gCP correction             0.007316167
------------------   -----------------

-------------------------   --------------------
FINAL SINGLE POINT ENERGY      -512.999033237176
-------------------------   --------------------

------------------------------------------------------------------------------
                         ORCA SCF GRADIENT CALCULATION
------------------------------------------------------------------------------

Nuc. rep. gradient        (SHARK) ... done (  0.0 sec)
HCore & Overlap gradient  (SHARK) ... done (  0.2 sec)
Split-RIJ-J gradient      (SHARK) ... done (  1.5 sec)
XC gradient                       ... done (  4.2 sec)
Dispersion correction             ... done (  0.0 sec)

-------------------
DISPERSION GRADIENT
-------------------

   1   C   :   -0.000104328   -0.000031145   -0.000000011
   2   C   :   -0.000104334    0.000031126    0.000000002
   3   C   :   -0.000062568    0.000073875    0.000000011
   4   C   :    0.000012167    0.000035129    0.000000009
   5   C   :    0.000012170   -0.000035129    0.000000003
   6   C   :   -0.000062557   -0.000073887   -0.000000010
   7   C   :    0.000079239   -0.000059136    0.000000003
   8   O   :    0.000067354   -0.000085717    0.000000000
   9   N   :    0.000102129    0.000000009    0.000000002
  10   C   :    0.000079229    0.000059152    0.000000004
  11   O   :    0.000067337    0.000085732   -0.000000004
  12   H   :   -0.000038833   -0.000018110   -0.000000007
  13   H   :   -0.000038836    0.000018104   -0.000000000
  14   H   :   -0.000019809    0.000047959    0.000000006
  15   H   :   -0.000019799   -0.000047963   -0.000000007
  16   H   :    0.000031442    0.000000001   -0.000000000

Difference to translation invariance:
           :    0.0000000000   -0.0000000000    0.0000000000

Difference to rotation invariance:
           :    0.0000000000    0.0000000000    0.0000000000

Norm of the Dispersion gradient    ...    0.0003301725
RMS gradient                       ...    0.0000476563
MAX gradient                       ...    0.0001043335
gCP correction                   ... done

------------------
CARTESIAN GRADIENT
------------------

   1   C   :    0.000127531    0.001387268   -0.000006344
   2   C   :    0.000111657   -0.001395058    0.000008817
   3   C   :   -0.000471134   -0.001003058    0.000000355
   4   C   :    0.000795929    0.002433633    0.000007091
   5   C   :    0.000791232   -0.002431821    0.000003863
   6   C   :   -0.000496087    0.000999032   -0.000007708
   7   C   :    0.000349787    0.001897682    0.000009638
   8   O   :    0.000944481    0.001184273   -0.000004063
   9   N   :   -0.004680705    0.000017914   -0.000007906
  10   C   :    0.000339564   -0.001888719   -0.000002192
  11   O   :    0.000935294   -0.001199841   -0.000004227
  12   H   :    0.000746680    0.000256949   -0.000000192
  13   H   :    0.000755556   -0.000247509   -0.000002063
  14   H   :   -0.000098840   -0.000803665   -0.000001299
  15   H   :   -0.000083662    0.000807108    0.000002263
  16   H   :   -0.000067283   -0.000014186    0.000003967

Difference to translation invariance:
           :    0.0000000000    0.0000000000   -0.0000000000

Difference to rotation invariance:
           :   -0.0000002455    0.0000002648    0.0000008981

Norm of the Cartesian gradient     ...    0.0074811013
RMS gradient                       ...    0.0010798040
MAX gradient                       ...    0.0046807050

-------
TIMINGS
-------

Total SCF gradient time     ....        5.878 sec

Densities                   ....       0.000 sec  (  0.0%)
One electron gradient       ....       0.196 sec  (  3.3%)
RI-J Coulomb gradient       ....       1.451 sec  ( 24.7%)
XC gradient                 ....       4.211 sec  ( 71.6%)

Maximum memory used throughout the entire SCFGRAD-calculation: 39.3 MB

------------------------------------------------------------------------------
                              ORCA PROPERTY CALCULATIONS
------------------------------------------------------------------------------

GBWName                                 ... xtb_opt.gbw
Number of atoms                         ...     16
Number of basis functions               ...    249
Max core memory                         ...   1024 MB

Electric properties:
Dipole moment                           ... YES
Quadrupole moment                       ...  NO
Static polarizability (Dipole/Dipole)   ...  NO
Static polarizability (Dipole/Quad.)    ...  NO
Static polarizability (Quad./Quad.)     ...  NO
Static polarizability (Velocity)        ...  NO

Atomic electric properties:
Dipole moment                           ...  NO
Quadrupole moment                       ...  NO
Static polarizability                   ...  NO

Choice of electric origin               ... Center of mass
[...]

DFT components:
N(Alpha)           :       38.000001615357 electrons
N(Beta)            :       38.000001615357 electrons
N(Total)           :       76.000003230713 electrons
E(X)               :      -66.673082814710 Eh       
E(C)               :       -2.521627125000 Eh       
E(XC)              :      -69.194709939710 Eh       

---------------
SCF CONVERGENCE
---------------

  Last Energy change         ...    4.2110e-10  Tolerance :   1.0000e-07
  Last MAX-Density change    ...    1.5729e-05  Tolerance :   1.0000e-07
  Last RMS-Density change    ...    7.0153e-07  Tolerance :   5.0000e-09
  Last DIIS Error            ...    1.5908e-05  Tolerance :   1.0000e-07
  Last Orbital Gradient      ...    5.1985e-06  Tolerance :   1.0000e-04
  Last Orbital Rotation      ...    3.0308e-05  Tolerance :   1.0000e-04


----------------
ORBITAL ENERGIES
----------------

  NO   OCC          E(Eh)            E(eV) 
   0   2.0000     -18.956315      -515.8276 
   1   2.0000     -18.956314      -515.8275 
   2   2.0000     -14.219963      -386.9449 
   3   2.0000     -10.166271      -276.6383 
   4   2.0000     -10.166268      -276.6382 
   5   2.0000     -10.074503      -274.1412 
   6   2.0000     -10.074103      -274.1303 
   7   2.0000     -10.073300      -274.1084 
   8   2.0000     -10.073274      -274.1077 
   9   2.0000     -10.072110      -274.0760 
  10   2.0000     -10.071704      -274.0650 
  11   2.0000      -1.044739       -28.4288 
  12   2.0000      -1.027498       -27.9596 
  13   2.0000      -0.932071       -25.3629 
  14   2.0000      -0.857044       -23.3214 
  15   2.0000      -0.763855       -20.7855 
  16   2.0000      -0.753420       -20.5016 
  17   2.0000      -0.650338       -17.6966 
  18   2.0000      -0.645981       -17.5780 
  19   2.0000      -0.587069       -15.9750 
  20   2.0000      -0.566511       -15.4155 
  21   2.0000      -0.504433       -13.7263 
  22   2.0000      -0.490502       -13.3472 
  23   2.0000      -0.462411       -12.5828 
  24   2.0000      -0.450695       -12.2640 
  25   2.0000      -0.434501       -11.8234 
  26   2.0000      -0.433969       -11.8089 
  27   2.0000      -0.414442       -11.2775 
  28   2.0000      -0.412103       -11.2139 
  29   2.0000      -0.380560       -10.3556 
  30   2.0000      -0.367277        -9.9941 
  31   2.0000      -0.364056        -9.9065 
  32   2.0000      -0.350990        -9.5509 
  33   2.0000      -0.281556        -7.6615 
  34   2.0000      -0.270327        -7.3560 
  35   2.0000      -0.269198        -7.3252 
  36   2.0000      -0.265723        -7.2307 
  37   2.0000      -0.244096        -6.6422 
  38   0.0000      -0.117545        -3.1986 
  39   0.0000      -0.077925        -2.1204 
  40   0.0000      -0.011127        -0.3028 
  41   0.0000       0.036015         0.9800 
  42   0.0000       0.059225         1.6116 
  43   0.0000       0.084914         2.3106 
  44   0.0000       0.092068         2.5053 
  45   0.0000       0.097977         2.6661 
  46   0.0000       0.111782         3.0417 
  47   0.0000       0.122106         3.3227 
  48   0.0000       0.122145         3.3237 
*Only the first 10 virtual orbitals were printed.
Total SCF time: 0 days 0 hours 0 min 3 sec 
Finished LeanSCF after   3.4 sec

Maximum memory used throughout the entire LEANSCF-calculation: 28.4 MB


-------------------------------------------------------------------------------
                          DFT DISPERSION CORRECTION                            
                                                                               
                                DFTD4 V3.4.0                                   
-------------------------------------------------------------------------------
-------------------------   ----------------
Dispersion correction           -0.006247290
-------------------------   ----------------

------------------   -----------------
gCP correction             0.007251314
------------------   -----------------

-------------------------   --------------------
FINAL SINGLE POINT ENERGY      -512.999132093877
-------------------------   --------------------

------------------------------------------------------------------------------
                         ORCA SCF GRADIENT CALCULATION
------------------------------------------------------------------------------

Nuc. rep. gradient        (SHARK) ... done (  0.0 sec)
HCore & Overlap gradient  (SHARK) ... done (  0.2 sec)
Split-RIJ-J gradient      (SHARK) ... done (  1.5 sec)
XC gradient                       ... done (  4.2 sec)
Dispersion correction             ... done (  0.0 sec)

-------------------
DISPERSION GRADIENT
-------------------

   1   C   :   -0.000104427   -0.000031150   -0.000000007
   2   C   :   -0.000104432    0.000031132   -0.000000001
   3   C   :   -0.000062407    0.000074106    0.000000004
   4   C   :    0.000011821    0.000035481    0.000000003
   5   C   :    0.000011827   -0.000035479   -0.000000002
   6   C   :   -0.000062394   -0.000074117   -0.000000008
   7   C   :    0.000079314   -0.000059332   -0.000000002
   8   O   :    0.000066934   -0.000085959   -0.000000003
   9   N   :    0.000102905    0.000000009    0.000000003
  10   C   :    0.000079304    0.000059346    0.000000007
  11   O   :    0.000066919    0.000085971    0.000000009
  12   H   :   -0.000038865   -0.000018101   -0.000000003
  13   H   :   -0.000038868    0.000018094    0.000000000
  14   H   :   -0.000019600    0.000047939    0.000000004
  15   H   :   -0.000019591   -0.000047942   -0.000000005
  16   H   :    0.000031558    0.000000003    0.000000001

Difference to translation invariance:
           :    0.0000000000   -0.0000000000   -0.0000000000

Difference to rotation invariance:
           :    0.0000000000   -0.0000000000   -0.0000000000

Norm of the Dispersion gradient    ...    0.0003306159
RMS gradient                       ...    0.0000477203
MAX gradient                       ...    0.0001044319
gCP correction                   ... done

------------------
CARTESIAN GRADIENT
------------------

   1   C   :   -0.000025041    0.000028276   -0.000000423
   2   C   :   -0.000024080   -0.000027623   -0.000001477
   3   C   :    0.000041159    0.000044549   -0.000000886
   4   C   :   -0.000063719   -0.000099990   -0.000000274
   5   C   :   -0.000062969    0.000099843    0.000003528
   6   C   :    0.000042687   -0.000044765    0.000003634
   7   C   :    0.000031187   -0.000265244   -0.000009008
   8   O   :   -0.000107298    0.000150648    0.000003358
   9   N   :    0.000161036    0.000001973    0.000000453
  10   C   :    0.000033949    0.000266021    0.000001085
  11   O   :   -0.000108732   -0.000152134   -0.000000636
  12   H   :    0.000036744    0.000011656   -0.000000719
  13   H   :    0.000036420   -0.000012122    0.000000864
  14   H   :   -0.000012426   -0.000036971    0.000000735
  15   H   :   -0.000012757    0.000037110   -0.000001381
  16   H   :    0.000033837   -0.000001225    0.000001147

Difference to translation invariance:
           :    0.0000000000    0.0000000000    0.0000000000

Difference to rotation invariance:
           :    0.0000001696   -0.0000000421    0.0000010338

Norm of the Cartesian gradient     ...    0.0005328407
RMS gradient                       ...    0.0000769089
MAX gradient                       ...    0.0002660212

-------
TIMINGS
-------

Total SCF gradient time     ....        5.876 sec

Densities                   ....       0.000 sec  (  0.0%)
One electron gradient       ....       0.197 sec  (  3.4%)
RI-J Coulomb gradient       ....       1.461 sec  ( 24.9%)
XC gradient                 ....       4.199 sec  ( 71.5%)

Maximum memory used throughout the entire SCFGRAD-calculation: 39.3 MB

------------------------------------------------------------------------------
                              ORCA PROPERTY CALCULATIONS
------------------------------------------------------------------------------

GBWName                                 ... xtb_opt.gbw
Number of atoms                         ...     16
Number of basis functions               ...    249
Max core memory                         ...   1024 MB

Electric properties:
Dipole moment                           ... YES
Quadrupole moment                       ...  NO
Static polarizability (Dipole/Dipole)   ...  NO
Static polarizability (Dipole/Quad.)    ...  NO
Static polarizability (Quad./Quad.)     ...  NO
Static polarizability (Velocity)        ...  NO

Atomic electric properties:
Dipole moment                           ...  NO
Quadrupole moment                       ...  NO
Static polarizability                   ...  NO

Choice of electric origin               ... Center of mass
Position of electric origin             ...    -0.002692     0.000013    -0.000031

General magnetic properties:
Magnetizability                         ...  NO

EPR properties:
g-Tensor (aka g-matrix)                 ...  NO
Zero-Field splitting spin-orbit         ...  NO
Zero-field splitting spin-spin          ...  NO
Hyperfine couplings                     ...  NO (   0 nuclei)
Quadrupole couplings                    ...  NO (   0 nuclei)
Contact density                         ...  NO (   0 nuclei)

NMR properties:
Chemical shifts                         ...  NO (   0 nuclei)
Spin-rotation constants                 ...  NO (   0 nuclei)
Spin-spin couplings                     ...  NO (   0 nuclei,    0 pairs)

Choice of magnetic origin               ... GIAO
Position of magnetic origin             ...     0.000000     0.000000     0.000000

Properties with geometric perturbations:
SCF Hessian                             ...  NO
IR spectrum                             ...  NO
VCD spectrum                            ...  NO
X-ray spectroscopy properties:
SCF XES/XAS/RIXS spectra                ...  NO


-------------
DIPOLE MOMENT
-------------

Method             : SCF
Type of density    : Electron Density
Multiplicity       :   1
Irrep              :   0
Energy             :  -513.0001361176714454 Eh
Relativity type    : 
Basis              : AO
                                X                 Y                 Z
Electronic contribution:      5.265199612       0.000466529       0.000181736
Nuclear contribution   :     -6.391634228      -0.000567844      -0.000230113
                        -----------------------------------------
Total Dipole Moment    :     -1.126434615      -0.000101315      -0.000048377
                        -----------------------------------------
Magnitude (a.u.)       :      1.126434621
Magnitude (Debye)      :      2.863169267



--------------------
Rotational spectrum 
--------------------
 
Rotational constants in cm-1:             0.058066             0.040149             0.023736 
Rotational constants in MHz :          1740.779015          1203.621827           711.601351 

Dipole components along the rotational axes: 
x,y,z [a.u.] :    -1.126435    -0.000004    -0.000008 
x,y,z [Debye]:    -2.863169    -0.000011    -0.000021 

 

Dipole moment calculation done in   0.0 sec 

Maximum memory used throughout the entire PROP-calculation: 18.0 MB

--------------------------------
SUGGESTED CITATIONS FOR THIS RUN
--------------------------------

Below you find a list of papers that are relevant to this ORCA run
We neither can nor want to force you to cite these papers, but we appreciate if you do
You receive ORCA, which is the product of decades of hard work by many enthusiastic individuals, for free
The only thing we kindly ask in return is that you cite our papers,
We deeply appreciate it, if you show your appreciation for ORCA by not just citing the generic ORCA reference.

Please note that relegating all ORCA citations to the supporting information does *not* help us.
SI sections are not indexed - citations you put there will not count into any citation statistics
But we need these citations in order to attract the funding resources that allow us to do what we are doing

Therefore, if you are a happy ORCA user, please consider citing a few of the papers listed below in the main body of your paper

In addition to the list printed below, the program has created the file xtb_opt.bibtex that contains the list in bibtex format
You can import this file easily into all common literature databanks and citation aid programs


List of essential papers. We consider these as the minimum necessary citations

  1. Neese,F.
     Software update: the ORCA program system, version 5.0
     WIRES Comput. Molec. Sci., 2022 12(1)e1606
     doi.org/10.1002/wcms.1606
  2. Grimme,S.; Hansen,A.; Ehlert,S.; Mewes,J.
     r2SCAN-3c: A 'Swiss army knife' composite electronic-structure method
     J. Chem. Phys., 2021 154 064103
     doi.org/10.1063/5.0040021

List of papers to cite with high priority. The work reported in these papers was absolutely
necessary for this run to complete.
Our perspective: the developers of density functionals and basis sets usually get cited in chemistry papers
Good! But without the algorithms to do something with them, the functionals or basis sets would not do anything.
Hence, in our opinion, the algorithm design and method developments papers are equally worthy of getting cited

  1. Neese,F.
     An improvement of the resolution of the identity approximation for the formation of the Coulomb matrix
     J. Comp. Chem., 2003 24(14)1740-1747
     doi.org/10.1002/jcc.10318
  2. Neese,F.
     The SHARK Integral Generation and Digestion System
     J. Comp. Chem., 2022  1-16
     doi.org/10.1002/jcc.26942
  3. Lehtola,S.; Steigemann,C.; Oliveira,M.; Marques,M.
     Recent developments in Libxc - A comprehensive library of functionals for density functional theory
     Software X, 2018 7 
     doi.org/10.1016/j.softx.2017.11.002
  4. Caldeweyher,E.; Bannwarth,C.; Grimme,S.
     Extension of the D3 dispersion coefficient model
     J. Chem. Phys., 2017 147 034112
     doi.org/10.1063/1.4993215
  5. Caldeweyher,E.; Ehlert,S.; Hansen,A.; Neugebauer,H.; Spicher,S.; Bannwarth,C.; Grimme,S.
     A generally applicable atomic-charge dependent London dispersion correction
     J. Chem. Phys., 2019 150 154122
     doi.org/10.1063/1.5090222
  6. Caldeweyher,E.; Mewes,J.; Ehlert,S.; Grimme,S.
     Extension and evaluation of the D4 London-dispersion model for periodic systems
     Phys. Chem. Chem. Phys., 2020 22(16)8499-8512
     doi.org/10.1039/D0CP00502A
  7. Wittmann,L.; Gordiy,I.; Friede,M.; Helmich-Paris,B.; Grimme,S.; Hansen,A.; Bursch,M.
     Extension of the D3 and D4 London Dispersion Corrections to the full Actinides Series
     Phys. Chem. Chem. Phys., 2024 26(32)21379-21394
     doi.org/https://doi.org/10.1039/D4CP01514B 

List of suggested additional citations. These are papers that are important in the 'surrounding' of 
of this run, or papers that preceded the highly important papers. If you like your results we are grateful for a citation.

  1. Neese,F.
     The ORCA program system
     WIRES Comput. Molec. Sci., 2012 2(1)73-78
     doi.org/10.1002/wcms.81
  2. Neese,F.
     Software update: the ORCA program system, version 4.0
     WIRES Comput. Molec. Sci., 2018 8(1)1-6
     doi.org/10.1002/wcms.1327
  3. Neese,F.; Wennmohs,F.; Becker,U.; Riplinger,C.
     The ORCA quantum chemistry program package
     J. Chem. Phys., 2020 152 Art. No. L224108
     doi.org/10.1063/5.0004608

List of optional additional citations

  1. Neese,F.
     Approximate second-order SCF convergence for spin unrestricted wavefunctions
     Chem. Phys. Lett., 2000 325(1-3)93-98
     doi.org/10.1016/s0009-2614(00)00662-x

Timings for individual modules:

Sum of individual times          ...       10.008 sec (=   0.167 min)
Startup calculation              ...        0.587 sec (=   0.010 min)   5.9 %
SCF iterations                   ...        3.462 sec (=   0.058 min)  34.6 %
Property calculations            ...        0.040 sec (=   0.001 min)   0.4 %
SCF Gradient evaluation          ...        5.919 sec (=   0.099 min)  59.1 %
                             ****ORCA TERMINATED NORMALLY****
TOTAL RUN TIME: 0 days 0 hours 0 minutes 10 seconds 71 msec
  ------------------------------------------------------------------------
          * successful ORCA run, taking over control again...

         :::::::::::::::::::::::::::::::::::::::::::::::::::::
         ::                  ORCA SUMMARY                   ::
         :::::::::::::::::::::::::::::::::::::::::::::::::::::
         :: total energy            -512.999132093877 Eh    ::
         :: gradient norm              0.000532840651 Eh/a0 ::
         :: HOMO-LUMO gap              0.000000000000 eV    ::
         :::::::::::::::::::::::::::::::::::::::::::::::::::::

           -------------------------------------------------
          |                Property Printout                |
           -------------------------------------------------
           -------------------------------------------------
          |                Geometry Summary                 |
           -------------------------------------------------

      molecular mass/u    :      147.1311040
   center of mass at/Å    :       -0.0014062       0.0000071      -0.0000166
  moments of inertia/u·Å² :        0.2903191E+03   0.4198757E+03   0.7101949E+03
rotational constants/cm⁻¹ :        0.5806587E-01   0.4014910E-01   0.2373663E-01

 * 15 selected distances

     #   Z          #   Z                                           value/Å
     1   6          2   6                                         1.3970085
     2   6          3   6                                         1.3965703
     3   6          4   6                                         1.3829973
     4   6          5   6                                         1.3937029
     1   6          6   6                                         1.3965710
     5   6          6   6                                         1.3829962
     7   6          8   8                                         1.2095581
     7   6          9   7                                         1.4022197 (max)
     9   7         10   6                                         1.4022175
    10   6         11   8                                         1.2095568
     1   6         12   1                                         1.0850016
     2   6         13   1                                         1.0850017
     3   6         14   1                                         1.0846457
     6   6         15   1                                         1.0846455
     9   7         16   1                                         1.0084082 (min)

 * 5 distinct bonds (by element types)

   Z      Z             #   av. dist./Å        max./Å        min./Å
   1 H    6 C           4     1.0848236     1.0850017     1.0846455
   6 C    6 C           6     1.3916410     1.3970085     1.3829962
   1 H    7 N           1     1.0084082     1.0084082     1.0084082
   6 C    7 N           2     1.4022186     1.4022197     1.4022175
   6 C    8 O           2     1.2095574     1.2095581     1.2095568


optimized geometry written to: xtbopt.coord


           -------------------------------------------------
          | TOTAL ENERGY             -512.999132093877 Eh   |
          | GRADIENT NORM               0.000532840651 Eh/α |
           -------------------------------------------------

------------------------------------------------------------------------
 * finished run on 2025/04/09 at 05:38:54.423     
------------------------------------------------------------------------
 total:
 * wall-time:     0 d,  0 h,  1 min, 27.808 sec
 *  cpu-time:     0 d,  0 h,  0 min,  0.086 sec
 * ratio c/w:     0.001 speedup
 SCF:
 * wall-time:     0 d,  0 h,  0 min, 12.518 sec
 *  cpu-time:     0 d,  0 h,  0 min,  0.073 sec
 * ratio c/w:     0.006 speedup
 ANC optimizer:
 * wall-time:     0 d,  0 h,  1 min, 15.289 sec
 *  cpu-time:     0 d,  0 h,  0 min,  0.004 sec
 * ratio c/w:     0.000 speedup

