16
 energy: -512.998162463042 gnorm: 0.030585160323 xtb: 6.7.1 (41059b4)
C           -2.59114193124820       -0.69347325310730       -0.00015238840007
C           -2.59125606634825        0.69304161290711       -0.00007199960003
C           -1.40061071222065        1.41289145112609        0.00015159550007
C           -0.22009169319753        0.69928256940987        0.00023390320010
C           -0.21995686689747       -0.69931923730989        0.00020762390009
C           -1.40037218422054       -1.41313765442620       -0.00001629230001
C            1.18968515522718       -1.16445978191600        0.00004103970002
O            1.63503409442453       -2.28069490521064       -0.00003067530001
N            1.94459693036170        0.00020673330009       -0.00004073720002
C            1.18940638992706        1.16466907151610        0.00003291170001
O            1.63441940162425        2.28092457361074       -0.00021006100009
H           -3.53150405686490       -1.22399810954239       -0.00068629570030
H           -3.53157392576493        1.22360556684221        0.00005475630002
H           -1.39289386231723        2.49162230890410        0.00031435690014
H           -1.39218071941691       -2.49184034150420       -0.00048450660021
H            2.95447515150921        0.00011252130005        0.00010798480005
16
 energy: -512.999033237176 gnorm: 0.007481101259 xtb: 6.7.1 (41059b4)
C           -2.59477428885470       -0.69705830837317       -0.00025599226340
C           -2.59488106905968        0.69660563752676        0.00001656269885
C           -1.40009454462631        1.41802457211356        0.00018917833793
C           -0.22041262673511        0.69853047749735        0.00019763706214
C           -0.22030396238553       -0.69855666581656        0.00007324238016
C           -1.39986794683707       -1.41826691384012       -0.00020945857969
C            1.19223549059901       -1.16950104124168        0.00004017444214
O            1.63098025396565       -2.29701170901677       -0.00002184290579
N            1.95477167986403        0.00019178966528       -0.00003188576323
C            1.19201705789137        1.16974328612317        0.00005158185197
O            1.63050851601600        2.29733956266241       -0.00007191503817
H           -3.53887907201242       -1.22953513977306       -0.00047903125690
H           -3.53901323707533        1.22902414918396       -0.00003738951766
H           -1.39001490014967        2.50162666882375        0.00025650381370
H           -1.38944259719171       -2.50186163398462       -0.00035416556548
H            2.96320634130055        0.00013838542388        0.00008802431598
16
 energy: -512.999120512111 gnorm: 0.003671877751 xtb: 6.7.1 (41059b4)
C           -2.59539639282025       -0.69849395837241       -0.00020490850523
C           -2.59550937769143        0.69804790939284       -0.00004621698276
C           -1.39954195568639        1.42020390449502        0.00011343754873
C           -0.22063556547991        0.69763872840754        0.00011434318660
C           -0.22052544156290       -0.69765507868927        0.00000944168650
C           -1.39930470858565       -1.42043264391763       -0.00017000814996
C            1.19278815886545       -1.17107837780739       -0.00004182402157
O            1.62516249295927       -2.30192539277520       -0.00004630335298
N            1.96055750026714        0.00018269702066       -0.00001967564662
C            1.19259194104554        1.17131653725067        0.00008874835828
O            1.62474678045312        2.30225100411134        0.00007010128591
H           -3.54107260906632       -1.23079355967239       -0.00038708613065
H           -3.54125878829208        1.23021794029759       -0.00003819902097
H           -1.38794767506403        2.50513137959961        0.00022799192811
H           -1.38745615225133       -2.50535884566435       -0.00032395140606
H            2.96883687346976        0.00018085722019        0.00010533459749
16
 energy: -512.999130748172 gnorm: 0.001161165826 xtb: 6.7.1 (41059b4)
C           -2.59481278303012       -0.69876421656338       -0.00019998593756
C           -2.59492989922360        0.69832546592344       -0.00003893981127
C           -1.39914853897813        1.42066788697433        0.00009877297728
C           -0.22059534385429        0.69715548281514        0.00008551711416
C           -0.22048099036120       -0.69717223881662       -0.00003963276580
C           -1.39890564644277       -1.42089279437541       -0.00020120078929
C            1.19259055889807       -1.17154099102357       -0.00002651368483
O            1.62187382397644       -2.30285705668912       -0.00005482426261
N            1.96194732172786        0.00017877818820       -0.00000934085970
C            1.19239773035036        1.17177091029345        0.00009549465799
O            1.62147299074057        2.30316744879936        0.00013946842081
H           -3.54097829297830       -1.23036264019588       -0.00032702054669
H           -3.54118398039552        1.22976797250873       -0.00004966427143
H           -1.38697198861949        2.50554607436938        0.00019643321169
H           -1.38651623620418       -2.50576968209791       -0.00030761221169
H            2.97027635068319        0.00021268828786        0.00009027359512
16
 energy: -512.999131991794 gnorm: 0.000535776909 xtb: 6.7.1 (41059b4)
C           -2.59411569230507       -0.69872005127372       -0.00017544663031
C           -2.59423555858982        0.69828831839993       -0.00005887327056
C           -1.39900198860609        1.42066275885630        0.00005245941623
C           -0.22054453573627        0.69684018488715        0.00003631937705
C           -0.22042530612996       -0.69686252709226       -0.00006848294124
C           -1.39875668951737       -1.42088834229568       -0.00016972790663
C            1.19227903264021       -1.17164718644124       -0.00008117517930
O            1.61967623671487       -2.30317806465920       -0.00009584762808
N            1.96237745876965        0.00017539045887        0.00001465462591
C            1.19208304468621        1.17186653006950        0.00010973888590
O            1.61928065130489        2.30347136316441        0.00021827959511
H           -3.54044972729458       -1.22945545275507       -0.00027902470303
H           -3.54066350221434        1.22885646755421       -0.00004108769068
H           -1.38634196629169        2.50523449290112        0.00015653493076
H           -1.38591192364418       -2.50545767662111       -0.00028677755436
H            2.97078553996435        0.00024687335112        0.00011968037503
16
 energy: -512.999131991794 gnorm: 0.000535776909 xtb: 6.7.1 (41059b4)
C           -2.59411569230507       -0.69872005127372       -0.00017544663031
C           -2.59423555858982        0.69828831839993       -0.00005887327056
C           -1.39900198860609        1.42066275885630        0.00005245941623
C           -0.22054453573627        0.69684018488715        0.00003631937705
C           -0.22042530612996       -0.69686252709226       -0.00006848294124
C           -1.39875668951737       -1.42088834229568       -0.00016972790663
C            1.19227903264021       -1.17164718644124       -0.00008117517930
O            1.61967623671487       -2.30317806465920       -0.00009584762808
N            1.96237745876965        0.00017539045887        0.00001465462591
C            1.19208304468621        1.17186653006950        0.00010973888590
O            1.61928065130489        2.30347136316441        0.00021827959511
H           -3.54044972729458       -1.22945545275507       -0.00027902470303
H           -3.54066350221434        1.22885646755421       -0.00004108769068
H           -1.38634196629169        2.50523449290112        0.00015653493076
H           -1.38591192364418       -2.50545767662111       -0.00028677755436
H            2.97078553996435        0.00024687335112        0.00011968037503
