
                                 *****************
                                 * O   R   C   A *
                                 *****************

                                            #,                                       
                                            ###                                      
                                            ####                                     
                                            #####                                    
                                            ######                                   
                                           ########,                                 
                                     ,,################,,,,,                         
                               ,,#################################,,                 
                          ,,##########################################,,             
                       ,#########################################, ''#####,          
                    ,#############################################,,   '####,        
                  ,##################################################,,,,####,       
                ,###########''''           ''''###############################       
              ,#####''   ,,,,##########,,,,          '''####'''          '####       
            ,##' ,,,,###########################,,,                        '##       
           ' ,,###''''                  '''############,,,                           
         ,,##''                                '''############,,,,        ,,,,,,###''
      ,#''                                            '''#######################'''  
     '                                                          ''''####''''         
             ,#######,   #######,   ,#######,      ##                                
            ,#'     '#,  ##    ##  ,#'     '#,    #''#        ,####,   ,####,        
            ##       ##  ##   ,#'  ##            #'  '#       #'       #'  '#        
            ##       ##  #######   ##           ,######,      #####,   #    #        
            '#,     ,#'  ##    ##  '#,     ,#' ,#      #,     #,   #   #,  ,#        
             '#######'   ##     ##  '#######'  #'      '#     '####' # '####'        



                #########################################################
                #                        -***-                          #
                #          Department of theory and spectroscopy        #
                #                                                       #
                #                      Frank Neese                      #
                #                                                       #
                #     Directorship, Architecture, Infrastructure        #
                #                    SHARK, DRIVERS                     #
                #        Core code/Algorithms in most modules           #
                #                                                       #
                #        Max Planck Institute fuer Kohlenforschung      #
                #                Kaiser Wilhelm Platz 1                 #
                #                 D-45470 Muelheim/Ruhr                 #
                #                      Germany                          #
                #                                                       #
                #                  All rights reserved                  #
                #                        -***-                          #
                #########################################################


                         Program Version 6.0.1  -  RELEASE   -


 With contributions from (in alphabetic order):
[Max-Planck-Institut fuer Kohlenforschung]                               
  Daniel Aravena         : Magnetic Suceptibility                        
  Michael Atanasov       : Ab Initio Ligand Field Theory (pilot matlab implementation)
  Alexander A. Auer      : GIAO ZORA, VPT2 properties, NMR spectrum      
  Ute Becker             : All parallelization in ORCA, NUMFREQ, NUMCALC 
  Giovanni Bistoni       : ED, misc. LED, open-shell LED, HFLD           
  Martin Brehm           : Molecular dynamics                            
  Dmytro Bykov           : pre 5.0 version of the SCF Hessian            
  Marcos Casanova-Páez   : Triplet and SCS-CIS(D). UHF-(DLPNO)-IP/EA/STEOM-CCSD. UHF-CVS-IP/STEOM-CCSD   
  Vijay G. Chilkuri      : MRCI spin determinant printing, contributions to CSF-ICE 
  Pauline Colinet        : FMM embedding                                 
  Dipayan Datta          : RHF DLPNO-CCSD density                        
  Achintya Kumar Dutta   : EOM-CC, STEOM-CC                              
  Nicolas Foglia         : Exact transition moments, OPA infrastructure, MCD improvements    
  Dmitry Ganyushin       : Spin-Orbit,Spin-Spin,Magnetic field MRCI      
  Miquel Garcia-Rates    : C-PCM and meta-GGA Hessian, CCSD/C-PCM, Gaussian charge scheme 
  Tiago L. C. Gouveia    : GS-ROHF, GS-ROCIS                             
  Yang Guo               : DLPNO-NEVPT2, F12-NEVPT2, CIM, IAO-localization        
  Andreas Hansen         : Spin unrestricted coupled pair/coupled cluster methods 
  Ingolf Harden          : AUTO-CI MPn and infrastructure                
  Benjamin Helmich-Paris : MC-RPA, TRAH-(SCF,CASSCF), AVAS, COSX integrals, SCF dyn. polar. 
  Lee Huntington         : MR-EOM, pCC                                   
  Robert Izsak           : Overlap fitted RIJCOSX, COSX-SCS-MP3, EOM     
  Riya Kayal             : Wick's Theorem for AUTO-CI, AUTO-CI UHF-CCSDT 
  Emily Kempfer          : AUTO-CI, RHF CISDT and CCSDT                  
  Christian Kollmar      : KDIIS, OOCD, Brueckner-CCSD(T), CCSD density, CASPT2, CASPT2-K, improved NEVPT2 
  Axel Koslowski         : Symmetry handling                             
  Simone Kossmann        : meta-GGA functionals, TD-DFT gradient, OOMP2, (MP2 Hessian; deprecated post 5.0) 
  Lucas Lang             : DCDCAS                                        
  Marvin Lechner         : AUTO-CI (C++ implementation), FIC-MRCC        
  Spencer Leger          : CASSCF response                               
  Dagmar Lenk            : GEPOL surface, SMD, ORCA-2-JSON               
  Dimitrios Liakos       : Extrapolation schemes; Compound Job, initial MDCI parallelization 
  Dimitrios Manganas     : Further ROCIS development; embedding schemes. LFT, Crystal Embedding 
  Dimitrios Pantazis     : SARC Basis sets                               
  Anastasios Papadopoulos: AUTO-CI, single reference methods and gradients 
  Taras Petrenko         : pre 6.0 DFT Hessian and TD-DFT gradient, (ASA, deprecated), ECA, 1-Electron XAS/XES, NRVS 
  Peter Pinski           : DLPNO-MP2, DLPNO-MP2 Gradient                 
  Christoph Reimann      : Effective Core Potentials                     
  Marius Retegan         : Local ZFS, SOC                                
  Christoph Riplinger    : Optimizer, TS searches, QM/MM, DLPNO-CCSD(T), (RO)-DLPNO pert. Triples 
  Michael Roemelt        : Original ROCIS implementation                 
  Masaaki Saitow         : Open-shell DLPNO-CCSD energy and density      
  Barbara Sandhoefer     : DKH picture change effects                    
  Kantharuban Sivalingam : CASSCF convergence/infrastructure, NEVPT2 and variants, FIC-MRCI 
  Bernardo de Souza      : ESD, SOC TD-DFT                               
  Georgi L. Stoychev     : AutoAux, RI-MP2 NMR, DLPNO-MP2 response, X2C  
  Van Anh Tran           : RI-MP2 g-tensors                              
  Willem Van den Heuvel  : Paramagnetic NMR                              
  Zikuan Wang            : NOTCH, Electric field optimization            
  Frank Wennmohs         : Technical directorship and infrastructure     
  Hang Xu                : AUTO-CI-Response properties                   
                                                                         
[FACCTs GmbH]                                                            
  Markus Bursch, Miquel Garcia-Rates, Christoph Riplinger, Bernardo de Souza, Georgi L. Stoychev 
                                                                 
  APM, Basis sets (HGBS, AHGBS, def-TZVP (Ac-Lr), def2-XVPD (La-Lu)), CI-OPT, improved COSX, DLPNO-Multilevel,           
  DOCKER, DRACO, updates on ESD, GOAT, IRC, LR-CPCM, MBIS, meta-GGA TD-DFT gradient, ML-optimized integration grids, 
  MM, NACMEs, nearIR, NEB, NEB-TS, NL-DFT gradient (VV10), 2- and 3-layer-ONIOM, interface openCOSMO-RS, QMMM,   
  Crystal-QMMM, SF, symmetry and pop. for TD-DFT, r2SCAN hybrids, SOLVATOR                                   
                                                                         
[Other institutions]                                                     
  V. Asgeirsson          : NEB                                           
  Christoph Bannwarth    : sTDA-DFT, sTD-DFT, PBEh-3c, B97-3c, D3        
  Sebastian Ehlert       : rSCAN, r2SCAN, r2SCAN-3c, D4, dhf basis sets  
  Marvin Friede          : D4 for Fr, Ra, Ac-Lr                          
  Lars Goerigk           : TD-DFT with DH, B97 family of functionals     
  Stefan Grimme          : VdW corrections, initial TS optimization, DFT functionals, gCP, sTDA/sTD-DF 
  Waldemar Hujo          : DFT-NL                                        
  H. Jonsson             : NEB                                           
  Holger Kruse           : gCP                                           
  Marcel Mueller         : wB97X-3c, vDZP basis set                      
  Hagen Neugebauer       : wr2SCAN                                       
  Tobias Risthaus        : range-separated hybrid DFT                    
  Lukas Wittmann         : regularized MP2, r2SCAN double-hybrids, wr2SCAN        
                                                                         
We gratefully acknowledge several colleagues who have allowed us to      
interface, adapt or use parts of their codes:                            
  Ed Valeev, F. Pavosevic, A. Kumar             : LibInt (2-el integral package), F12 methods 
  Garnet Chan, S. Sharma, J. Yang, R. Olivares  : DMRG                   
  Ulf Ekstrom                                   : XCFun DFT Library      
  Mihaly Kallay                                 : mrcc  (arbitrary order and MRCC methods)
  Frank Weinhold                                : gennbo (NPA and NBO analysis)           
  Simon Mueller                                 : openCOSMO-RS                            
  Christopher J. Cramer and Donald G. Truhlar   : smd solvation model                     
  S Lehtola, MJT Oliveira, MAL Marques          : LibXC Library                           
  Liviu Ungur et al                             : ANISO software                          


 Your calculation uses the libint2 library for the computation of 2-el integrals
 For citations please refer to: http://libint.valeyev.net

 Your ORCA version has been built with support for libXC version: 6.2.2
 For citations please refer to: https://libxc.gitlab.io

 This ORCA versions uses:
   CBLAS   interface :  Fast vector & matrix operations
   LAPACKE interface :  Fast linear algebra routines
   SCALAPACK package :  Parallel linear algebra routines
   Shared memory     :  Shared parallel matrices
   BLAS/LAPACK       :  OpenBLAS 0.3.27  USE64BITINT DYNAMIC_ARCH NO_AFFINITY Zen SINGLE_THREADED
        Core in use  :  Zen
   Copyright (c) 2011-2014, The OpenBLAS Project


Your calculation utilizes the geometrical counterpoise correction gCP
Please cite in your paper:
H.Kruse, S. Grimme J.Chem.Phys., 136, (2012), 154101 
   

Your calculation utilizes the atom-pairwise dispersion correction
based on EEQ partial charges (D4)


================================================================================

----- Orbital basis set information -----
Your calculation utilizes the basis: def2-SV(P)
   F. Weigend and R. Ahlrichs, Phys. Chem. Chem. Phys. 7, 3297 (2005).

----- AuxJ basis set information -----
Your calculation utilizes the auxiliary basis: def2/J
   F. Weigend, Phys. Chem. Chem. Phys. 8, 1057 (2006).

================================================================================
                                        WARNINGS
                       Please study these warnings very carefully!
================================================================================

WARNING: Old DensityContainer found on disk!
         Will remove this file - 
         If you want to keep old densities, please start your calculation with a different basename. 


================================================================================
                                       INPUT FILE
================================================================================
NAME = sp.inp
|  1> ! pbe def2-sv(p) def2/J RI DEFGRID1 loosescf d4 GCP(DFT/SV(P)) printgap
|  2> %output
|  3>     printlevel normal
|  4> end
|  5> * xyz 0 1
|  6> C 0.6180148096 1.6858064388 -0.0649474339
|  7> C 1.4217769405 0.3888817273 -0.2613344135
|  8> H 1.6636986334 0.2479652341 -1.3236633734
|  9> C 0.5699991588 -0.8027111695 0.187076954
| 10> H 0.4389689614 -0.7415904576 1.2796454246
| 11> C -0.8100051604 -0.754918215 -0.4947454229
| 12> H -0.6769340997 -0.9360539225 -1.5667641015
| 13> C -1.4676582456 0.6199585536 -0.2963577903
| 14> H -2.3643107661 0.6999584537 -0.9312993789
| 15> O -0.6384355799 1.6624721674 -0.7173873311
| 16> O -1.8135245237 0.7164824309 1.0587336444
| 17> O -1.6330471364 -1.7849702912 -0.0148485156
| 18> O 1.225398679 -1.9938454841 -0.1611666338
| 19> O 2.5854179966 0.4230280449 0.5277881672
| 20> H 1.147820419 2.5396883865 -0.4913081812
| 21> H 0.4885818237 1.8436511103 1.0141363952
| 22> H -2.2068821376 1.5816054315 1.220232919
| 23> H -1.9358678691 -1.5243063789 0.8657142972
| 24> H 0.5839932693 -2.7112798823 -0.0723809124
| 25> H 3.2555156316 0.9569339063 0.0894623253
| 26> *
| 27> 
| 28>                          ****END OF INPUT****
================================================================================

                       ****************************
                       * Single Point Calculation *
                       ****************************

---------------------------------
CARTESIAN COORDINATES (ANGSTROEM)
---------------------------------
  C      0.618015    1.685806   -0.064947
  C      1.421777    0.388882   -0.261334
  H      1.663699    0.247965   -1.323663
  C      0.569999   -0.802711    0.187077
  H      0.438969   -0.741590    1.279645
  C     -0.810005   -0.754918   -0.494745
  H     -0.676934   -0.936054   -1.566764
  C     -1.467658    0.619959   -0.296358
  H     -2.364311    0.699958   -0.931299
  O     -0.638436    1.662472   -0.717387
  O     -1.813525    0.716482    1.058734
  O     -1.633047   -1.784970   -0.014849
  O      1.225399   -1.993845   -0.161167
  O      2.585418    0.423028    0.527788
  H      1.147820    2.539688   -0.491308
  H      0.488582    1.843651    1.014136
  H     -2.206882    1.581605    1.220233
  H     -1.935868   -1.524306    0.865714
  H      0.583993   -2.711280   -0.072381
  H      3.255516    0.956934    0.089462

----------------------------
CARTESIAN COORDINATES (A.U.)
----------------------------
  NO LB      ZA    FRAG     MASS         X           Y           Z
   0 C     6.0000    0    12.011    1.167879    3.185712   -0.122733
   1 C     6.0000    0    12.011    2.686769    0.734880   -0.493850
   2 H     1.0000    0     1.008    3.143935    0.468586   -2.501361
   3 C     6.0000    0    12.011    1.077142   -1.516904    0.353524
   4 H     1.0000    0     1.008    0.829531   -1.401403    2.418179
   5 C     6.0000    0    12.011   -1.530688   -1.426589   -0.934933
   6 H     1.0000    0     1.008   -1.279220   -1.768886   -2.960755
   7 C     6.0000    0    12.011   -2.773472    1.171552   -0.560035
   8 H     1.0000    0     1.008   -4.467900    1.322730   -1.759901
   9 O     8.0000    0    15.999   -1.206468    3.141617   -1.355666
  10 O     8.0000    0    15.999   -3.427065    1.353956    2.000717
  11 O     8.0000    0    15.999   -3.086012   -3.373105   -0.028060
  12 O     8.0000    0    15.999    2.315668   -3.767822   -0.304561
  13 O     8.0000    0    15.999    4.885732    0.799407    0.997375
  14 H     1.0000    0     1.008    2.169066    4.799316   -0.928438
  15 H     1.0000    0     1.008    0.923286    3.483996    1.916440
  16 H     1.0000    0     1.008   -4.170403    2.988801    2.305906
  17 H     1.0000    0     1.008   -3.658260   -2.880522    1.635963
  18 H     1.0000    0     1.008    1.103587   -5.123576   -0.136780
  19 H     1.0000    0     1.008    6.152033    1.808343    0.169059

--------------------------------
INTERNAL COORDINATES (ANGSTROEM)
--------------------------------
 C      0   0   0     0.000000000000     0.00000000     0.00000000
 C      1   0   0     1.538380679846     0.00000000     0.00000000
 H      2   1   0     1.098602012830   110.28150390     0.00000000
 C      2   1   3     1.531826287673   109.14163537   241.75230719
 H      4   2   1     1.102093697016   108.25034120   292.13945067
 C      4   2   1     1.539992805552   110.15371831    51.60515424
 H      6   4   2     1.095327393520   108.62190952    67.84884258
 C      6   4   2     1.536929198785   110.73579252   308.13342483
 H      8   6   4     1.101606348688   109.80710839   170.12450237
 O      8   6   4     1.397036412731   112.00359129    54.13972163
 O      8   6   4     1.401860598495   106.97412158   290.14876107
 O      6   4   2     1.403105988719   110.57501201   184.41827359
 O      4   2   1     1.403432607196   109.14169442   171.94165573
 O      2   1   3     1.406392877477   109.88867390   123.07802488
 H      1   2   3     1.091600591424   110.85552546   305.38951859
 H      1   2   3     1.098221174621   107.94956041   185.85228319
 H     11   8   6     0.963976158562   108.93008860   178.38862107
 H     12   6   4     0.966973080605   107.29328173    75.84137162
 H     13   4   2     0.966434643231   107.29679816   193.81091723
 H     14   2   1     0.962401087358   109.51252729   280.35990364

---------------------------
INTERNAL COORDINATES (A.U.)
---------------------------
 C      0   0   0     0.000000000000     0.00000000     0.00000000
 C      1   0   0     2.907118174625     0.00000000     0.00000000
 H      2   1   0     2.076056934423   110.28150390     0.00000000
 C      2   1   3     2.894732168443   109.14163537   241.75230719
 H      4   2   1     2.082655261282   108.25034120   292.13945067
 C      4   2   1     2.910164650702   110.15371831    51.60515424
 H      6   4   2     2.069868800734   108.62190952    67.84884258
 C      6   4   2     2.904375272931   110.73579252   308.13342483
 H      8   6   4     2.081734306409   109.80710839   170.12450237
 O      8   6   4     2.640016219177   112.00359129    54.13972163
 O      8   6   4     2.649132609091   106.97412158   290.14876107
 O      6   4   2     2.651486055543   110.57501201   184.41827359
 O      4   2   1     2.652103275015   109.14169442   171.94165573
 O      2   1   3     2.657697375129   109.88867390   123.07802488
 H      1   2   3     2.062826165418   110.85552546   305.38951859
 H      1   2   3     2.075337254506   107.94956041   185.85228319
 H     11   8   6     1.821650939312   108.93008860   178.38862107
 H     12   6   4     1.827314301218   107.29328173    75.84137162
 H     13   4   2     1.826296802041   107.29679816   193.81091723
 H     14   2   1     1.818674486094   109.51252729   280.35990364

---------------------
BASIS SET INFORMATION
---------------------
There are 3 groups of distinct atoms

 Group   1 Type C   : 7s4p1d contracted to 3s2p1d pattern {511/31/1}
 Group   2 Type H   : 4s contracted to 2s pattern {31}
 Group   3 Type O   : 7s4p1d contracted to 3s2p1d pattern {511/31/1}

Atom   0C    basis set group =>   1
Atom   1C    basis set group =>   1
Atom   2H    basis set group =>   2
Atom   3C    basis set group =>   1
Atom   4H    basis set group =>   2
Atom   5C    basis set group =>   1
Atom   6H    basis set group =>   2
Atom   7C    basis set group =>   1
Atom   8H    basis set group =>   2
Atom   9O    basis set group =>   3
Atom  10O    basis set group =>   3
Atom  11O    basis set group =>   3
Atom  12O    basis set group =>   3
Atom  13O    basis set group =>   3
Atom  14H    basis set group =>   2
Atom  15H    basis set group =>   2
Atom  16H    basis set group =>   2
Atom  17H    basis set group =>   2
Atom  18H    basis set group =>   2
Atom  19H    basis set group =>   2
---------------------------------
AUXILIARY/J BASIS SET INFORMATION
---------------------------------
There are 3 groups of distinct atoms

 Group   1 Type C   : 12s5p4d2f1g contracted to 6s4p3d1f1g pattern {711111/2111/211/2/1}
 Group   2 Type H   : 5s2p1d contracted to 3s1p1d pattern {311/2/1}
 Group   3 Type O   : 12s5p4d2f1g contracted to 6s4p3d1f1g pattern {711111/2111/211/2/1}

Atom   0C    basis set group =>   1
Atom   1C    basis set group =>   1
Atom   2H    basis set group =>   2
Atom   3C    basis set group =>   1
Atom   4H    basis set group =>   2
Atom   5C    basis set group =>   1
Atom   6H    basis set group =>   2
Atom   7C    basis set group =>   1
Atom   8H    basis set group =>   2
Atom   9O    basis set group =>   3
Atom  10O    basis set group =>   3
Atom  11O    basis set group =>   3
Atom  12O    basis set group =>   3
Atom  13O    basis set group =>   3
Atom  14H    basis set group =>   2
Atom  15H    basis set group =>   2
Atom  16H    basis set group =>   2
Atom  17H    basis set group =>   2
Atom  18H    basis set group =>   2
Atom  19H    basis set group =>   2

Checking for AutoStart:
The File: sp.gbw exists
Trying to determine its content:
     ... Fine, the file contains calculation information
     ... Fine, the calculation information was read
     ... Fine, the file contains a basis set
     ... Fine, the basis set was read
     ... Fine, the file contains a geometry
     ... Fine, the geometry was read
     ... Fine, the file contains a set of orbitals
     ... Fine, the orbitals can be read
     => possible old guess file was deleted
     => GBW file was renamed to GES file
     => GES file is set as startup file
     => Guess is set to MORead
     ... now leaving AutoStart

------------------------------------------------------------------------------
                             ORCA STARTUP CALCULATIONS
                           -- RI-GTO INTEGRALS CHOSEN --
------------------------------------------------------------------------------
------------------------------------------------------------------------------
                   ___                                                        
                  /   \      - P O W E R E D   B Y -                         
                 /     \                                                     
                 |  |  |   _    _      __       _____    __    __             
                 |  |  |  | |  | |    /  \     |  _  \  |  |  /  |          
                  \  \/   | |  | |   /    \    | | | |  |  | /  /          
                 / \  \   | |__| |  /  /\  \   | |_| |  |  |/  /          
                |  |  |   |  __  | /  /__\  \  |    /   |      \           
                |  |  |   | |  | | |   __   |  |    \   |  |\   \          
                \     /   | |  | | |  |  |  |  | |\  \  |  | \   \       
                 \___/    |_|  |_| |__|  |__|  |_| \__\ |__|  \__/        
                                                                              
                      - O R C A' S   B I G   F R I E N D -                    
                                      &                                       
                       - I N T E G R A L  F E E D E R -                       
                                                                              
 v1 FN, 2020, v2 2021, v3 2022-2024                                           
------------------------------------------------------------------------------


----------------------
SHARK INTEGRAL PACKAGE
----------------------

Number of atoms                             ...     20
Number of basis functions                   ...    160
Number of shells                            ...     80
Maximum angular momentum                    ...      2
Integral batch strategy                     ... SHARK/LIBINT Hybrid
RI-J (if used) integral strategy            ... SPLIT-RIJ (Revised 2003 algorithm where possible)
Printlevel                                  ...      1
Contraction scheme used                     ... SEGMENTED contraction
Prescreening option                         ... SCHWARTZ
   Thresh                                   ... 1.000e-09
   Tcut                                     ... 1.000e-10
   Tpresel                                  ... 1.000e-10 
Coulomb Range Separation                    ... NOT USED
Exchange Range Separation                   ... NOT USED
Multipole approximations                    ... NOT USED
Finite Nucleus Model                        ... NOT USED
CABS basis                                  ... NOT available
Auxiliary Coulomb fitting basis             ... AVAILABLE
   # of basis functions in Aux-J            ...    600
   # of shells in Aux-J                     ...    200
   Maximum angular momentum in Aux-J        ...      4
Auxiliary J/K fitting basis                 ... NOT available
Auxiliary Correlation fitting basis         ... NOT available
Auxiliary 'external' fitting basis          ... NOT available

Checking pre-screening integrals            ... done (  0.0 sec) Dimension = 80
Check shell pair data                       ... done (  0.0 sec)
Shell pair information
Shell pair cut-off parameter TPreSel        ...   1.0e-10
Total number of shell pairs                 ...      3240
Shell pairs after pre-screening             ...      3031
Total number of primitive shell pairs       ...     13040
Primitive shell pairs kept                  ...      8475
          la=0 lb=0:   1180 shell pairs
          la=1 lb=0:    952 shell pairs
          la=1 lb=1:    206 shell pairs
          la=2 lb=0:    450 shell pairs
          la=2 lb=1:    192 shell pairs
          la=2 lb=2:     51 shell pairs

Calculating one electron integrals          ... done (  0.0 sec)
Calculating RI/J V-Matrix + Cholesky decomp.... done (  0.0 sec)
Calculating Nuclear repulsion               ... done (  0.0 sec) ENN=    624.309267747610 Eh

Diagonalization of the overlap matrix:
Smallest eigenvalue                        ... 9.251e-04
Time for diagonalization                   ...    0.002 sec
Threshold for overlap eigenvalues          ... 1.000e-07
Number of eigenvalues below threshold      ... 0
Time for construction of square roots      ...    0.001 sec
Total time needed                          ...    0.005 sec

-------------------
DFT GRID GENERATION
-------------------

General Integration Accuracy     IntAcc      ... 4.159
Radial Grid Type                 RadialGrid  ... OptM3 with GC (2021)
Angular Grid (max. ang.)         AngularGrid ... 3 (Lebedev-194)
Angular grid pruning method      GridPruning ... 4 (adaptive)
Weight generation scheme         WeightScheme... mBecke (2022)
Basis function cutoff            BFCut       ... 1.0000e-10
Integration weight cutoff        WCut        ... 1.0000e-14
Partially contracted basis set               ... off
Rotationally invariant grid construction     ... off
Angular grids for H and He will be reduced by one unit

Total number of grid points                  ...    46580
Total number of batches                      ...      738
Average number of points per batch           ...       63
Average number of grid points per atom       ...     2329
Initializing property integral containers    ... done (  0.0 sec)

SHARK setup successfully completed in   0.5 seconds

Maximum memory used throughout the entire STARTUP-calculation: 23.8 MB
-------------------------------------------------------------------------------
                                 ORCA GUESS
                   Start orbitals & Density for SCF / CASSCF
-------------------------------------------------------------------------------

------------
SCF SETTINGS
------------
Hamiltonian:
 Density Functional     Method          .... DFT(GTOs)
 Exchange Functional    Exchange        .... PBE
   PBE kappa parameter   XKappa         ....  0.804000
   PBE mue parameter    XMuePBE         ....  0.219520
 Correlation Functional Correlation     .... PBE
   PBE beta parameter  CBetaPBE         ....  0.066725
 LDA part of GGA corr.  LDAOpt          .... PW91-LDA
 Gradients option       PostSCFGGA      .... off
   NL short-range parameter             ....  6.400000
 RI-approximation to the Coulomb term is turned on
   Number of AuxJ basis functions       .... 600


General Settings:
 Integral files         IntName         .... sp
 Hartree-Fock type      HFTyp           .... RHF
 Total Charge           Charge          ....    0
 Multiplicity           Mult            ....    1
 Number of Electrons    NEL             ....   80
 Basis Dimension        Dim             ....  160
 Nuclear Repulsion      ENuc            ....    624.3092677476 Eh

Convergence Acceleration:
 AO-DIIS                CNVDIIS         .... on
   Start iteration      DIISMaxIt       ....    12
   Startup error        DIISStart       ....  0.200000
   # of expansion vecs  DIISMaxEq       ....     5
   Bias factor          DIISBfac        ....   1.050
   Max. coefficient     DIISMaxC        ....  10.000
 MO-DIIS                CNVKDIIS        .... off
 Trust-Rad. Augm. Hess. CNVTRAH         .... auto
   Auto Start mean grad. ratio tolernc. ....  1.125000
   Auto Start start iteration           ....     1
   Auto Start num. interpolation iter.  ....    10
   Max. Number of Micro iterations      ....    24
   Max. Number of Macro iterations      .... Maxiter - #DIIS iter
   Number of Davidson start vectors     ....     2
   Converg. threshold    (grad. norm)   ....   1.000e-04
   Grad. Scal. Fac. for Micro threshold ....   0.100
   Minimum threshold for Micro iter.    ....   1.000e-02
   NR start threshold (gradient norm)   ....   1.000e-04
   Initial trust radius                 ....   0.400
   Minimum AH scaling param. (alpha)    ....   1.000
   Maximum AH scaling param. (alpha)    .... 1000.000
   Quad. conv. algorithm                .... NR
   White noise on init. David. guess    .... on
   Maximum white noise                  ....   0.010
   Pseudo random numbers                .... off
   Inactive MOs                         .... canonical
   Orbital update algorithm             .... Taylor
   Preconditioner                       .... Diag
   Full preconditioner red. dimension   ....   250
 SOSCF                  CNVSOSCF        .... on
   Start iteration      SOSCFMaxIt      ....   150
   Startup grad/error   SOSCFStart      ....  0.003300
   Hessian update       SOSCFHessUp     .... L-BFGS
 Level Shifting         CNVShift        .... on
   Level shift para.    LevelShift      ....    0.2500
   Turn off err/grad.   ShiftErr        ....    0.0010
 Zerner damping         CNVZerner       .... off
 Static damping         CNVDamp         .... on
   Fraction old density DampFac         ....    0.7000
   Max. Damping (<1)    DampMax         ....    0.9800
   Min. Damping (>=0)   DampMin         ....    0.0000
   Turn off err/grad.   DampErr         ....    0.1000

SCF Procedure:
 Maximum # iterations   MaxIter         ....   125
 SCF integral mode      SCFMode         .... Direct
   Integral package                     .... SHARK and LIBINT hybrid scheme
 Reset frequency        DirectResetFreq ....    20
 Integral Threshold     Thresh          ....  1.000e-09 Eh
 Primitive CutOff       TCut            ....  1.000e-10 Eh

Convergence Tolerance:
 Convergence Check Mode ConvCheckMode   .... Total+1el-Energy
 Convergence forced     ConvForced      .... 0
 Energy Change          TolE            ....  1.000e-05 Eh
 1-El. energy change                    ....  1.000e-02 Eh
 Orbital Gradient       TolG            ....  1.000e-04
 Orbital Rotation angle TolX            ....  1.000e-04
 DIIS Error             TolErr          ....  5.000e-04

---------------------
INITIAL GUESS: MOREAD
---------------------
Guess MOs are being read from file: sp.ges
Input Geometry matches current geometry (good)
Input basis set matches current basis set (good)
Occupation numbers will be reassigned to an Aufbau configuration
MOs were renormalized
MOs were reorthogonalized (Cholesky)
                      ------------------
                      INITIAL GUESS DONE (   0.0 sec)
                      ------------------
             **** ENERGY FILE WAS UPDATED (sp.en.tmp) ****
Finished Guess after   0.1 sec
Maximum memory used throughout the entire GUESS-calculation: 11.7 MB

-------------------------------------------------------------------------------------------
                                      ORCA LEAN-SCF
                              memory conserving SCF solver
-------------------------------------------------------------------------------------------

----------------------------------------D-I-I-S--------------------------------------------
Iteration    Energy (Eh)           Delta-E    RMSDP     MaxDP     DIISErr   Damp  Time(sec)
-------------------------------------------------------------------------------------------
               ***  Starting incremental Fock matrix formation  ***
                              *** Initializing SOSCF ***
---------------------------------------S-O-S-C-F--------------------------------------
Iteration    Energy (Eh)           Delta-E    RMSDP     MaxDP     MaxGrad    Time(sec)
--------------------------------------------------------------------------------------
    1    -571.5266426700756028     0.00e+00  1.59e-05  2.32e-04  1.96e-05     0.6
               *** Restarting incremental Fock matrix formation ***
    2    -571.5266427520110710    -8.19e-08  2.52e-05  4.89e-04  4.98e-05     0.7
    3    -571.5266422139444558     5.38e-07  1.68e-05  3.43e-04  1.06e-04     0.5
                 **** Energy Check signals convergence ****

               *****************************************************
               *                     SUCCESS                       *
               *           SCF CONVERGED AFTER   3 CYCLES          *
               *****************************************************

             **** ENERGY FILE WAS UPDATED (sp.en.tmp) ****

----------------
TOTAL SCF ENERGY
----------------

Total Energy       :       -571.52664221394446 Eh          -15552.03058 eV

Components:
Nuclear Repulsion  :        624.30926774760985 Eh           16988.31884 eV
Electronic Energy  :      -1195.83590996155408 Eh          -32540.34943 eV
One Electron Energy:      -2022.95230992052325 Eh          -55047.33091 eV
Two Electron Energy:        827.11639995896905 Eh           22506.98148 eV

Virial components:
Potential Energy   :      -1139.15513455528662 Eh          -30997.98712 eV
Kinetic Energy     :        567.62849234134205 Eh           15445.95653 eV
Virial Ratio       :          2.00686743164798

DFT components:
N(Alpha)           :       40.000392144997 electrons
N(Beta)            :       40.000392144997 electrons
N(Total)           :       80.000784289994 electrons
E(X)               :      -70.508291968287 Eh       
E(C)               :       -2.734174613997 Eh       
E(XC)              :      -73.242466582284 Eh       

---------------
SCF CONVERGENCE
---------------

  Last Energy change         ...   -5.3807e-07  Tolerance :   1.0000e-05
  Last MAX-Density change    ...    3.4301e-04  Tolerance :   1.0000e-03
  Last RMS-Density change    ...    1.6804e-05  Tolerance :   1.0000e-04
  Last DIIS Error            ...    1.7927e-04  Tolerance :   5.0000e-04
  Last Orbital Gradient      ...    1.0628e-04  Tolerance :   1.0000e-04
  Last Orbital Rotation      ...    6.1617e-05  Tolerance :   1.0000e-04


----------------
ORBITAL ENERGIES
----------------

  NO   OCC          E(Eh)            E(eV) 
   0   2.0000     -18.777155      -510.9524 
   1   2.0000     -18.772884      -510.8362 
   2   2.0000     -18.759069      -510.4602 
   3   2.0000     -18.751838      -510.2635 
   4   2.0000     -18.738427      -509.8985 
   5   2.0000      -9.990511      -271.8556 
   6   2.0000      -9.940788      -270.5026 
   7   2.0000      -9.940081      -270.4833 
   8   2.0000      -9.934043      -270.3190 
   9   2.0000      -9.932378      -270.2738 
  10   2.0000      -0.991135       -26.9702 
  11   2.0000      -0.942082       -25.6354 
  12   2.0000      -0.934665       -25.4335 
  13   2.0000      -0.919369       -25.0173 
  14   2.0000      -0.909187       -24.7402 
  15   2.0000      -0.697524       -18.9806 
  16   2.0000      -0.681299       -18.5391 
  17   2.0000      -0.588894       -16.0246 
  18   2.0000      -0.574860       -15.6427 
  19   2.0000      -0.537064       -14.6143 
  20   2.0000      -0.489563       -13.3217 
  21   2.0000      -0.484736       -13.1903 
  22   2.0000      -0.478787       -13.0284 
  23   2.0000      -0.452661       -12.3175 
  24   2.0000      -0.435514       -11.8510 
  25   2.0000      -0.409247       -11.1362 
  26   2.0000      -0.399641       -10.8748 
  27   2.0000      -0.374671       -10.1953 
  28   2.0000      -0.360094        -9.7987 
  29   2.0000      -0.352427        -9.5900 
  30   2.0000      -0.343388        -9.3441 
  31   2.0000      -0.316121        -8.6021 
  32   2.0000      -0.297209        -8.0875 
  33   2.0000      -0.282631        -7.6908 
  34   2.0000      -0.267519        -7.2796 
  35   2.0000      -0.260197        -7.0803 
  36   2.0000      -0.249777        -6.7968 
  37   2.0000      -0.231103        -6.2886 
  38   2.0000      -0.218709        -5.9514 
  39   2.0000      -0.198047        -5.3891 
  40   0.0000       0.014532         0.3954 
  41   0.0000       0.023782         0.6471 
  42   0.0000       0.040451         1.1007 
  43   0.0000       0.060219         1.6386 
  44   0.0000       0.074198         2.0190 
  45   0.0000       0.082906         2.2560 
  46   0.0000       0.093133         2.5343 
  47   0.0000       0.104649         2.8477 
  48   0.0000       0.113618         3.0917 
  49   0.0000       0.123603         3.3634 
  50   0.0000       0.133872         3.6429 
*Only the first 10 virtual orbitals were printed.

                    ********************************
                    * MULLIKEN POPULATION ANALYSIS *
                    ********************************

-----------------------
MULLIKEN ATOMIC CHARGES
-----------------------
   0 C :    0.066599
   1 C :   -0.001903
   2 H :    0.062137
   3 C :    0.071937
   4 H :    0.056254
   5 C :    0.032182
   6 H :    0.078652
   7 C :    0.158525
   8 H :    0.072204
   9 O :   -0.305276
  10 O :   -0.418651
  11 O :   -0.427616
  12 O :   -0.407850
  13 O :   -0.400563
  14 H :    0.084894
  15 H :    0.064674
  16 H :    0.310590
  17 H :    0.304726
  18 H :    0.298266
  19 H :    0.300217
Sum of atomic charges:   -0.0000000

--------------------------------
MULLIKEN REDUCED ORBITAL CHARGES
--------------------------------
  0 C s       :     3.010086  s :     3.010086
      pz      :     0.998566  p :     2.862844
      px      :     0.798652
      py      :     1.065627
      dz2     :     0.014826  d :     0.060470
      dxz     :     0.013454
      dyz     :     0.005595
      dx2y2   :     0.012414
      dxy     :     0.014181

  1 C s       :     3.056944  s :     3.056944
      pz      :     0.986146  p :     2.876448
      px      :     0.864368
      py      :     1.025934
      dz2     :     0.016807  d :     0.068511
      dxz     :     0.015508
      dyz     :     0.007138
      dx2y2   :     0.012265
      dxy     :     0.016793

  2 H s       :     0.937863  s :     0.937863

  3 C s       :     3.065516  s :     3.065516
      pz      :     1.022628  p :     2.794079
      px      :     0.925097
      py      :     0.846354
      dz2     :     0.016350  d :     0.068468
      dxz     :     0.008656
      dyz     :     0.012101
      dx2y2   :     0.014204
      dxy     :     0.017157

  4 H s       :     0.943746  s :     0.943746

  5 C s       :     3.036739  s :     3.036739
      pz      :     1.047940  p :     2.863620
      px      :     0.926168
      py      :     0.889511
      dz2     :     0.015881  d :     0.067458
      dxz     :     0.009227
      dyz     :     0.008335
      dx2y2   :     0.017100
      dxy     :     0.016915

  6 H s       :     0.921348  s :     0.921348

  7 C s       :     3.013420  s :     3.013420
      pz      :     0.800782  p :     2.727582
      px      :     0.994713
      py      :     0.932087
      dz2     :     0.025400  d :     0.100473
      dxz     :     0.025494
      dyz     :     0.016554
      dx2y2   :     0.016722
      dxy     :     0.016303

  8 H s       :     0.927796  s :     0.927796

  9 O s       :     3.752047  s :     3.752047
      pz      :     1.680185  p :     4.537294
      px      :     1.290675
      py      :     1.566434
      dz2     :     0.002253  d :     0.015935
      dxz     :     0.003873
      dyz     :     0.002640
      dx2y2   :     0.003689
      dxy     :     0.003480

 10 O s       :     3.783146  s :     3.783146
      pz      :     1.400643  p :     4.620506
      px      :     1.766152
      py      :     1.453711
      dz2     :     0.005662  d :     0.014999
      dxz     :     0.001913
      dyz     :     0.001805
      dx2y2   :     0.002550
      dxy     :     0.003068

 11 O s       :     3.793374  s :     3.793374
      pz      :     1.386921  p :     4.618517
      px      :     1.649520
      py      :     1.582075
      dz2     :     0.005054  d :     0.015725
      dxz     :     0.001619
      dyz     :     0.003337
      dx2y2   :     0.002331
      dxy     :     0.003384

 12 O s       :     3.781051  s :     3.781051
      pz      :     1.851651  p :     4.611031
      px      :     1.558934
      py      :     1.200446
      dz2     :     0.002704  d :     0.015768
      dxz     :     0.001898
      dyz     :     0.001433
      dx2y2   :     0.001595
      dxy     :     0.008138

 13 O s       :     3.784738  s :     3.784738
      pz      :     1.609096  p :     4.600162
      px      :     1.269713
      py      :     1.721353
      dz2     :     0.002150  d :     0.015664
      dxz     :     0.005591
      dyz     :     0.003128
      dx2y2   :     0.001088
      dxy     :     0.003706

 14 H s       :     0.915106  s :     0.915106

 15 H s       :     0.935326  s :     0.935326

 16 H s       :     0.689410  s :     0.689410

 17 H s       :     0.695274  s :     0.695274

 18 H s       :     0.701734  s :     0.701734

 19 H s       :     0.699783  s :     0.699783


------------------------
MULLIKEN OVERLAP CHARGES
------------------------
B(  0-C ,  1-C ) :   0.4669 B(  0-C ,  2-H ) :  -0.0752 B(  0-C ,  7-C ) :  -0.1412 
B(  0-C ,  9-O ) :   0.5303 B(  0-C , 13-O ) :  -0.0957 B(  0-C , 14-H ) :   0.6824 
B(  0-C , 15-H ) :   0.6239 B(  1-C ,  2-H ) :   0.6307 B(  1-C ,  3-C ) :   0.0735 
B(  1-C ,  4-H ) :  -0.0821 B(  1-C ,  9-O ) :  -0.0692 B(  1-C , 12-O ) :  -0.1178 
B(  1-C , 13-O ) :   0.6220 B(  1-C , 19-H ) :  -0.0660 B(  2-H ,  3-C ) :  -0.0776 
B(  2-H , 13-O ) :  -0.0528 B(  3-C ,  4-H ) :   0.6147 B(  3-C ,  5-C ) :   0.3132 
B(  3-C , 11-O ) :  -0.1161 B(  3-C , 12-O ) :   0.6823 B(  3-C , 13-O ) :  -0.1124 
B(  3-C , 18-H ) :  -0.1045 B(  4-H ,  5-C ) :  -0.0599 B(  4-H , 12-O ) :  -0.0721 
B(  5-C ,  6-H ) :   0.6069 B(  5-C ,  7-C ) :   0.2289 B(  5-C ,  8-H ) :  -0.0660 
B(  5-C ,  9-O ) :  -0.0726 B(  5-C , 10-O ) :  -0.1248 B(  5-C , 11-O ) :   0.5908 
B(  5-C , 12-O ) :  -0.0739 B(  5-C , 17-H ) :  -0.1291 B(  6-H , 11-O ) :  -0.0710 
B(  7-C ,  8-H ) :   0.6842 B(  7-C ,  9-O ) :   0.6708 B(  7-C , 10-O ) :   0.5790 
B(  8-H ,  9-O ) :  -0.0771 B(  8-H , 10-O ) :  -0.0667 B(  9-O , 10-O ) :  -0.1328 
B(  9-O , 15-H ) :  -0.0663 B( 10-O , 16-H ) :   0.5075 B( 10-O , 17-H ) :   0.0557 
B( 11-O , 17-H ) :   0.5466 B( 11-O , 18-H ) :   0.0534 B( 12-O , 18-H ) :   0.5267 
B( 13-O , 19-H ) :   0.5209 B( 14-H , 15-H ) :  -0.0785 


                     *******************************
                     * LOEWDIN POPULATION ANALYSIS *
                     *******************************

----------------------
LOEWDIN ATOMIC CHARGES
----------------------
   0 C :   -0.134061
   1 C :   -0.076181
   2 H :    0.105198
   3 C :   -0.071406
   4 H :    0.104602
   5 C :   -0.091325
   6 H :    0.121321
   7 C :   -0.009749
   8 H :    0.099829
   9 O :   -0.149632
  10 O :   -0.317090
  11 O :   -0.312441
  12 O :   -0.318586
  13 O :   -0.311682
  14 H :    0.112396
  15 H :    0.102510
  16 H :    0.293522
  17 H :    0.282807
  18 H :    0.281157
  19 H :    0.288811

-------------------------------
LOEWDIN REDUCED ORBITAL CHARGES
-------------------------------
  0 C s       :     2.931033  s :     2.931033
      pz      :     1.078484  p :     3.064060
      px      :     0.893345
      py      :     1.092231
      dz2     :     0.035852  d :     0.138968
      dxz     :     0.029355
      dyz     :     0.011115
      dx2y2   :     0.027479
      dxy     :     0.035167

  1 C s       :     2.895028  s :     2.895028
      pz      :     1.035985  p :     3.021651
      px      :     0.918080
      py      :     1.067586
      dz2     :     0.039545  d :     0.159502
      dxz     :     0.035286
      dyz     :     0.013473
      dx2y2   :     0.026335
      dxy     :     0.044863

  2 H s       :     0.894802  s :     0.894802

  3 C s       :     2.893831  s :     2.893831
      pz      :     1.083712  p :     3.018311
      px      :     1.016857
      py      :     0.917741
      dz2     :     0.038133  d :     0.159265
      dxz     :     0.020367
      dyz     :     0.027194
      dx2y2   :     0.033147
      dxy     :     0.040424

  4 H s       :     0.895398  s :     0.895398

  5 C s       :     2.897373  s :     2.897373
      pz      :     1.077957  p :     3.035927
      px      :     1.000236
      py      :     0.957734
      dz2     :     0.037037  d :     0.158025
      dxz     :     0.020808
      dyz     :     0.017543
      dx2y2   :     0.042419
      dxy     :     0.040217

  6 H s       :     0.878679  s :     0.878679

  7 C s       :     2.884553  s :     2.884553
      pz      :     0.897244  p :     2.899066
      px      :     1.017352
      py      :     0.984469
      dz2     :     0.060947  d :     0.226131
      dxz     :     0.057221
      dyz     :     0.031762
      dx2y2   :     0.036779
      dxy     :     0.039422

  8 H s       :     0.900171  s :     0.900171

  9 O s       :     3.469639  s :     3.469639
      pz      :     1.705286  p :     4.649090
      px      :     1.350263
      py      :     1.593542
      dz2     :     0.003630  d :     0.030903
      dxz     :     0.007667
      dyz     :     0.003832
      dx2y2   :     0.007935
      dxy     :     0.007839

 10 O s       :     3.533804  s :     3.533804
      pz      :     1.477689  p :     4.756515
      px      :     1.773038
      py      :     1.505789
      dz2     :     0.011008  d :     0.026770
      dxz     :     0.003567
      dyz     :     0.003175
      dx2y2   :     0.004062
      dxy     :     0.004958

 11 O s       :     3.532832  s :     3.532832
      pz      :     1.452190  p :     4.752215
      px      :     1.672759
      py      :     1.627266
      dz2     :     0.008985  d :     0.027394
      dxz     :     0.003196
      dyz     :     0.005562
      dx2y2   :     0.003480
      dxy     :     0.006172

 12 O s       :     3.534587  s :     3.534587
      pz      :     1.868802  p :     4.756489
      px      :     1.613762
      py      :     1.273925
      dz2     :     0.004223  d :     0.027510
      dxz     :     0.002293
      dyz     :     0.002791
      dx2y2   :     0.003194
      dxy     :     0.015009

 13 O s       :     3.538048  s :     3.538048
      pz      :     1.674414  p :     4.746200
      px      :     1.333301
      py      :     1.738485
      dz2     :     0.003025  d :     0.027434
      dxz     :     0.010517
      dyz     :     0.004334
      dx2y2   :     0.002782
      dxy     :     0.006775

 14 H s       :     0.887604  s :     0.887604

 15 H s       :     0.897490  s :     0.897490

 16 H s       :     0.706478  s :     0.706478

 17 H s       :     0.717193  s :     0.717193

 18 H s       :     0.718843  s :     0.718843

 19 H s       :     0.711189  s :     0.711189


---------------------------------
LOEWDIN BOND ORDERS (THRESH 0.050000)
---------------------------------
B(  0-C ,  1-C ) :   1.0498 B(  0-C ,  3-C ) :   0.0567 B(  0-C ,  7-C ) :   0.0668 
B(  0-C ,  9-O ) :   1.1523 B(  0-C , 13-O ) :   0.0963 B(  0-C , 14-H ) :   0.9141 
B(  0-C , 15-H ) :   0.9018 B(  1-C ,  2-H ) :   0.8742 B(  1-C ,  3-C ) :   1.0265 
B(  1-C ,  5-C ) :   0.0575 B(  1-C ,  9-O ) :   0.0646 B(  1-C , 12-O ) :   0.0623 
B(  1-C , 13-O ) :   1.2186 B(  3-C ,  4-H ) :   0.8633 B(  3-C ,  5-C ) :   1.0161 
B(  3-C ,  7-C ) :   0.0549 B(  3-C , 11-O ) :   0.0796 B(  3-C , 12-O ) :   1.2294 
B(  3-C , 13-O ) :   0.0629 B(  5-C ,  6-H ) :   0.8710 B(  5-C ,  7-C ) :   1.0179 
B(  5-C ,  9-O ) :   0.0682 B(  5-C , 10-O ) :   0.0581 B(  5-C , 11-O ) :   1.2266 
B(  5-C , 12-O ) :   0.0813 B(  7-C ,  8-H ) :   0.8834 B(  7-C ,  9-O ) :   1.2160 
B(  7-C , 10-O ) :   1.2341 B(  7-C , 11-O ) :   0.0783 B(  9-O , 10-O ) :   0.0919 
B( 10-O , 16-H ) :   0.8741 B( 11-O , 17-H ) :   0.8720 B( 12-O , 18-H ) :   0.8711 
B( 13-O , 19-H ) :   0.8851 

------------------------------------------
LOEWDIN REDUCED ORBITAL POPULATIONS PER MO
-------------------------------------------
THRESHOLD FOR PRINTING IS 0.1%%
                      0         1         2         3         4         5   
                 -18.77716 -18.77288 -18.75907 -18.75184 -18.73843  -9.99051
                   2.00000   2.00000   2.00000   2.00000   2.00000   2.00000
                  --------  --------  --------  --------  --------  --------
 7 C  s               0.0       0.0       0.0       0.0       0.0      99.6
 9 O  s               0.0      99.9       0.0       0.0       0.0       0.0
10 O  s              99.9       0.0       0.0       0.0       0.0       0.0
10 O  pz              0.0       0.0       0.0       0.0       0.0       0.1
11 O  s               0.0       0.0      99.9       0.0       0.0       0.0
12 O  s               0.0       0.0       0.0       0.0      99.9       0.0
13 O  s               0.0       0.0       0.0      99.9       0.0       0.0

                      6         7         8         9        10        11   
                  -9.94079  -9.94008  -9.93404  -9.93238  -0.99114  -0.94208
                   2.00000   2.00000   2.00000   2.00000   2.00000   2.00000
                  --------  --------  --------  --------  --------  --------
 0 C  s               0.0       0.0      99.6       0.0       3.7       0.3
 0 C  pz              0.0       0.0       0.0       0.0       0.5       0.1
 0 C  px              0.0       0.0       0.0       0.0       3.1       0.9
 0 C  py              0.0       0.1       0.0       0.0       0.1       0.1
 0 C  dxz             0.0       0.0       0.0       0.0       0.1       0.0
 0 C  dx2y2           0.0       0.0       0.0       0.0       0.1       0.0
 1 C  s               0.1      99.5       0.0       0.0       0.6       1.0
 1 C  pz              0.0       0.0       0.0       0.0       0.0       0.2
 1 C  px              0.0       0.0       0.0       0.0       0.2       0.2
 1 C  py              0.0       0.0       0.1       0.1       0.1       0.5
 2 H  s               0.0       0.1       0.0       0.0       0.1       0.2
 3 C  s               0.0       0.0       0.0      99.6       0.6       4.6
 3 C  pz              0.0       0.0       0.0       0.0       0.1       0.3
 3 C  px              0.1       0.0       0.0       0.0       0.2       0.0
 3 C  py              0.0       0.1       0.0       0.0       0.0       1.5
 4 H  s               0.0       0.0       0.0       0.1       0.1       0.7
 5 C  s              99.5       0.1       0.0       0.0       2.6       7.5
 5 C  pz              0.0       0.0       0.0       0.0       0.4       1.3
 5 C  px              0.0       0.0       0.0       0.1       0.4       0.8
 5 C  py              0.0       0.0       0.0       0.0       0.8       4.5
 5 C  dyz             0.0       0.0       0.0       0.0       0.0       0.1
 5 C  dxy             0.0       0.0       0.0       0.0       0.0       0.3
 6 H  s               0.1       0.0       0.0       0.0       0.3       0.9
 7 C  s               0.0       0.0       0.0       0.0      15.9       0.2
 7 C  pz              0.0       0.0       0.0       0.0       1.8       0.0
 7 C  px              0.0       0.0       0.0       0.0       0.7       0.1
 7 C  py              0.1       0.0       0.0       0.0       1.7       2.9
 7 C  dxz             0.0       0.0       0.0       0.0       0.2       0.0
 7 C  dxy             0.0       0.0       0.0       0.0       0.2       0.1
 8 H  s               0.0       0.0       0.0       0.0       1.8       0.0
 9 O  s               0.0       0.0       0.0       0.0      24.7       4.9
 9 O  pz              0.0       0.0       0.0       0.0       1.0       0.1
 9 O  py              0.0       0.0       0.0       0.0       1.2       0.1
10 O  s               0.0       0.0       0.0       0.0      24.2       0.2
10 O  pz              0.0       0.0       0.0       0.0       1.7       0.0
10 O  py              0.0       0.0       0.0       0.0       0.5       0.1
11 O  s               0.0       0.0       0.0       0.0       2.2      36.2
11 O  pz              0.0       0.0       0.0       0.0       0.0       0.3
11 O  px              0.0       0.0       0.0       0.0       0.0       0.3
11 O  py              0.1       0.0       0.0       0.0       0.2       1.7
12 O  s               0.0       0.0       0.0       0.0       0.2      11.2
12 O  px              0.0       0.0       0.0       0.0       0.0       0.8
13 O  s               0.0       0.0       0.0       0.0       0.2       3.0
13 O  pz              0.0       0.0       0.0       0.0       0.0       0.1
14 H  s               0.0       0.0       0.1       0.0       0.4       0.0
15 H  s               0.0       0.0       0.1       0.0       0.6       0.0
16 H  s               0.0       0.0       0.0       0.0       4.9       0.1
17 H  s               0.0       0.0       0.0       0.0       0.8       7.2
18 H  s               0.0       0.0       0.0       0.0       0.1       2.8
19 H  s               0.0       0.0       0.0       0.0       0.0       0.6

                     12        13        14        15        16        17   
                  -0.93467  -0.91937  -0.90919  -0.69752  -0.68130  -0.58889
                   2.00000   2.00000   2.00000   2.00000   2.00000   2.00000
                  --------  --------  --------  --------  --------  --------
 0 C  s               2.7       2.2       0.2       4.0      15.2       8.7
 0 C  pz              0.1       0.8       0.0       0.1       0.1       0.0
 0 C  px              0.1       3.1       0.0       1.6       0.2       0.1
 0 C  py              0.5       0.0       0.0       2.4       0.1       2.1
 0 C  dxz             0.0       0.1       0.0       0.0       0.0       0.0
 0 C  dx2y2           0.0       0.1       0.0       0.1       0.0       0.0
 1 C  s               8.9       0.7       0.3      13.0       2.7       3.3
 1 C  pz              1.7       0.5       0.2       0.0       0.0       0.1
 1 C  px              2.8       2.8       1.2       5.4       0.6       0.0
 1 C  py              0.0       0.0       1.0       0.3       2.4       7.5
 1 C  dxz             0.3       0.1       0.1       0.1       0.0       0.0
 1 C  dx2y2           0.2       0.1       0.1       0.1       0.0       0.0
 2 H  s               1.1       0.1       0.0       2.5       0.5       0.8
 3 C  s               1.6       0.1       5.0      13.2       0.4       4.0
 3 C  pz              0.1       0.1       0.3       0.4       0.1       0.4
 3 C  px              1.7       0.2       1.4       0.4       1.9       4.9
 3 C  py              0.1       0.2       5.9       6.2       0.1       0.9
 3 C  dx2y2           0.0       0.0       0.2       0.0       0.1       0.0
 3 C  dxy             0.0       0.0       0.3       0.1       0.0       0.0
 4 H  s               0.2       0.0       0.5       2.5       0.0       1.3
 5 C  s               0.4       0.6       0.5       7.3       8.6       6.9
 5 C  pz              0.2       0.0       0.1       0.1       0.2       0.8
 5 C  px              1.3       0.0       2.6       3.0       0.0       0.8
 5 C  py              0.4       0.2       0.4       1.1       3.5       0.0
 5 C  dxy             0.0       0.0       0.1       0.0       0.1       0.0
 6 H  s               0.0       0.1       0.0       1.5       2.0       2.6
 7 C  s               0.1       0.0       0.0       0.2      13.9       0.2
 7 C  pz              1.6       7.0       0.3       0.1       2.1       0.4
 7 C  px              0.9       3.5       0.1       0.5       0.2       0.1
 7 C  py              0.7       0.7       0.1       3.9       1.2       7.3
 7 C  dz2             0.1       0.7       0.0       0.0       0.1       0.0
 7 C  dyz             0.0       0.1       0.0       0.0       0.0       0.1
 7 C  dxy             0.1       0.2       0.0       0.2       0.0       0.2
 8 H  s               0.0       0.0       0.0       0.0       3.5       0.0
 9 O  s               4.8      19.7       0.3       3.6       0.0       1.4
 9 O  pz              0.1       0.3       0.0       0.1       0.3       0.3
 9 O  px              0.2       0.3       0.0       0.9      10.9       7.0
 9 O  py              0.1       0.3       0.0       0.1       3.7       0.8
10 O  s               6.7      28.1       1.7       0.0       2.1       0.0
10 O  pz              0.1       0.3       0.0       0.1       3.1       0.4
10 O  px              0.0       0.1       0.0       0.1       0.7       0.2
10 O  py              0.1       0.7       0.1       0.3       1.3       1.2
11 O  s               5.3       3.1      11.4       2.0       2.4       1.5
11 O  pz              0.1       0.0       0.2       0.6       1.2       4.4
11 O  px              0.0       0.0       0.0       0.6       0.6       2.0
11 O  py              0.2       0.1       0.4       0.3       0.6       1.4
12 O  s               3.4       0.7      42.3       3.7       0.2       0.4
12 O  pz              0.0       0.0       0.2       0.0       0.0       0.1
12 O  px              0.2       0.0       2.2       0.1       0.0       0.4
12 O  py              0.1       0.0       0.1       3.1       0.0       5.2
13 O  s              36.5      11.6       7.0       3.3       0.9       0.2
13 O  pz              1.7       0.5       0.3       0.1       0.0       0.1
13 O  px              0.2       0.0       0.0       3.4       0.8       3.8
13 O  py              0.4       0.1       0.1       0.4       0.0       1.7
14 H  s               0.4       0.3       0.0       0.6       3.9       4.2
15 H  s               0.3       0.1       0.0       0.9       3.0       2.5
16 H  s               1.3       5.8       0.4       0.1       1.9       0.4
17 H  s               1.2       0.4       2.3       0.8       1.2       2.5
18 H  s               0.6       0.2       8.2       1.9       0.0       1.8
19 H  s               7.5       2.4       1.5       2.1       0.5       1.7

                     18        19        20        21        22        23   
                  -0.57486  -0.53706  -0.48956  -0.48474  -0.47879  -0.45266
                   2.00000   2.00000   2.00000   2.00000   2.00000   2.00000
                  --------  --------  --------  --------  --------  --------
 0 C  s               2.2       0.1       1.7       0.3       2.7       0.0
 0 C  pz              0.5       0.4       9.6       3.7       0.0       1.2
 0 C  px              3.6       2.5       0.4       1.9       2.7       1.0
 0 C  py              0.6       0.8       2.0       3.3       3.4       0.8
 0 C  dxz             0.1       0.0       0.0       0.1       0.1       0.2
 0 C  dx2y2           0.1       0.0       0.0       0.1       0.1       0.0
 1 C  s               3.5       4.6       1.4       0.1       0.7       0.7
 1 C  pz              0.0       2.0      18.3       0.5       2.0       4.5
 1 C  px              0.0       0.7       0.4       4.0       1.1       0.3
 1 C  py              2.6       0.7       0.2       3.6       0.2       0.7
 1 C  dxz             0.0       0.0       0.1       0.1       0.1       0.2
 1 C  dx2y2           0.0       0.0       0.0       0.0       0.2       0.0
 2 H  s               0.9       3.2       8.2       0.6       0.1       2.6
 3 C  s               4.3       4.4       0.5       0.1       1.5       0.0
 3 C  pz              0.0       3.9       6.7       0.5       0.4       0.8
 3 C  px              2.7       0.7       0.0       6.8       1.2       0.3
 3 C  py              0.5       0.1       0.5       1.7       2.2       0.3
 3 C  dxy             0.0       0.1       0.0       0.0       0.2       0.0
 4 H  s               1.0       4.3       2.7       0.7       0.0       0.2
 5 C  s               3.8       1.1       0.0       0.0       0.2       0.8
 5 C  pz              0.2       8.6       0.0       0.5       0.8       0.8
 5 C  px              4.9       1.2       0.8       4.1       0.0       1.2
 5 C  py              4.1       1.4       2.7       2.0       0.3      10.8
 5 C  dxy             0.1       0.1       0.0       0.0       0.1       0.2
 6 H  s               2.0       3.5       0.0       0.1       0.0       0.5
 7 C  s               8.2       0.0       0.3       0.0       1.6       0.3
 7 C  pz              0.2       7.7       0.6       2.2       5.5       6.2
 7 C  px              2.0       0.4       1.4       4.4       6.7       0.0
 7 C  py              0.2       0.7       2.2       0.9       0.2      12.3
 7 C  dz2             0.1       0.1       0.0       0.1       0.0       0.1
 7 C  dxy             0.0       0.0       0.0       0.0       0.0       0.2
 8 H  s               3.5       1.1       1.3       0.1       7.5       1.1
 9 O  s               2.2       0.0       0.1       1.4       0.4       0.2
 9 O  pz              0.1       1.4       0.7       0.1       0.7       3.1
 9 O  px              1.2       2.4       3.9       4.0       0.9       6.4
 9 O  py              1.2       0.6       0.2       7.2       0.1       0.4
10 O  s               0.8       0.0       0.6       0.1       0.5       0.2
10 O  pz              8.9       3.8       0.1       4.5       0.1       8.0
10 O  px              1.4       3.8       0.1       0.1       3.2       4.1
10 O  py              5.2       7.5       1.7       4.5       1.6       0.1
10 O  dz2             0.2       0.1       0.0       0.1       0.0       0.1
11 O  s               0.1       0.3       0.0       0.0       0.0       0.9
11 O  pz              2.8       6.5       3.9       6.2       1.1       5.5
11 O  px              3.3       0.9       2.0       0.7       1.6       5.6
11 O  py              0.1       0.0       0.1       1.1       0.2       0.7
12 O  s               1.7       0.3       0.1       0.1       0.0       0.2
12 O  pz              0.0       0.6       0.9       0.0       0.1       0.1
12 O  px              0.3       0.0       0.0       1.3       0.2       0.5
12 O  py              3.0       2.4       0.3       9.9      16.1       0.4
12 O  dxy             0.1       0.0       0.0       0.1       0.2       0.0
13 O  s               0.8       0.6       0.3       0.0       0.2       0.9
13 O  pz              0.2       0.7       1.7       0.3       0.0       1.0
13 O  px              3.8       4.2       8.2       2.5      11.7       3.8
13 O  py              0.1       0.2       0.7       2.8       2.4       2.1
14 H  s               0.7       0.0       0.7       0.1       5.1       0.0
15 H  s               0.8       0.3       6.0       1.5       1.0       0.4
16 H  s               4.5       4.4       0.2       2.1       0.8       1.6
17 H  s               1.6       1.9       1.9       1.8       0.6       2.9
18 H  s               1.1       0.8       0.1       3.1       4.6       0.0
19 H  s               1.3       1.3       2.8       1.2       4.0       1.7

                     24        25        26        27        28        29   
                  -0.43551  -0.40925  -0.39964  -0.37467  -0.36009  -0.35243
                   2.00000   2.00000   2.00000   2.00000   2.00000   2.00000
                  --------  --------  --------  --------  --------  --------
 0 C  s               0.2       0.0       0.0       0.0       0.2       0.0
 0 C  pz             10.0       0.1       0.4       5.0       1.3       2.7
 0 C  px              2.3       1.4       5.8       4.3       0.8       0.3
 0 C  py              0.5      10.5       0.1       4.7       8.7       0.4
 1 C  s               0.5       0.3       0.1       0.1       0.1       0.1
 1 C  pz              1.0       0.2       0.5       4.9       0.8       1.3
 1 C  px              0.3       7.6       3.5       4.0       0.1       3.9
 1 C  py              1.1       0.0       5.4       5.6       6.2       0.4
 1 C  dxz             0.0       0.2       0.0       0.1       0.2       0.0
 1 C  dxy             0.0       0.0       0.0       0.0       0.1       0.0
 2 H  s               0.9       0.0       0.1       5.1       1.5       0.7
 3 C  s               1.4       0.0       0.4       0.0       0.3       0.1
 3 C  pz              7.1       7.1       2.0       0.0       3.1      10.9
 3 C  px              5.5       5.2       0.1       0.2       1.6       0.0
 3 C  py              0.1       2.5       6.3       0.3       5.3       1.9
 3 C  dz2             0.1       0.0       0.0       0.0       0.2       0.2
 3 C  dxz             0.0       0.1       0.0       0.0       0.0       0.0
 3 C  dx2y2           0.0       0.1       0.0       0.2       0.0       0.0
 3 C  dxy             0.2       0.0       0.4       0.0       0.1       0.1
 4 H  s               5.6       2.4       0.2       0.0       3.9       5.8
 5 C  s               0.1       1.2       0.1       0.5       0.1       0.1
 5 C  pz              6.9       0.6       3.4       7.9       4.3       6.0
 5 C  px              0.3      12.3       3.3       1.4       0.4       0.2
 5 C  py              1.0       0.2       0.6       1.3       0.0       1.3
 5 C  dz2             0.0       0.2       0.0       0.0       0.1       0.1
 5 C  dx2y2           0.0       0.1       0.1       0.0       0.0       0.1
 5 C  dxy             0.0       0.2       0.0       0.0       0.1       0.0
 6 H  s               2.5       2.5       1.8       3.7       2.4       3.0
 7 C  s               0.0       0.0       0.1       0.2       0.3       0.5
 7 C  pz              0.5       0.5       0.4       0.3       0.1       0.6
 7 C  px              7.1       0.4      12.0       0.1       1.0       1.3
 7 C  py              0.2       1.0       0.8       0.6       0.1       0.0
 7 C  dz2             0.0       0.0       0.0       0.4       0.1       0.0
 7 C  dxz             0.0       0.0       0.0       0.2       0.0       0.0
 7 C  dyz             0.1       0.0       0.2       0.1       0.1       0.6
 7 C  dx2y2           0.0       0.0       0.2       0.1       0.1       0.0
 8 H  s               2.9       0.6       4.4       0.2       0.7       0.3
 9 O  s               1.6       0.2       0.1       0.4       0.6       1.9
 9 O  pz              7.1       0.0       1.7       7.7       1.7       4.8
 9 O  px              0.1       2.9       2.0       0.2       6.8       3.1
 9 O  py              3.4       1.8       5.4       1.6       2.6       2.0
10 O  s               0.0       0.0       1.4       2.3       2.6       1.6
10 O  pz              0.3       0.4       8.9       0.3       4.7       3.9
10 O  px              2.1       0.6       2.0       0.1       3.6       1.1
10 O  py              0.4       0.2       1.3       6.8       6.2      10.2
11 O  s               0.5       0.5       0.5       1.3       0.5       1.0
11 O  pz              0.1      10.1       0.1       1.2       2.5       0.4
11 O  px              3.0       0.2       0.8       0.8       1.9       3.6
11 O  py              0.3       1.7       4.7       9.2       1.7       7.1
12 O  s               1.5       0.7       0.4       0.1       0.0       0.5
12 O  pz              1.1       1.3       1.5       0.1       0.1       7.6
12 O  px              3.5       3.1       0.7       0.5       1.9       0.5
12 O  py              6.1       0.3       6.7       1.2       5.1       0.0
13 O  s               0.2       0.1       0.7       0.4       0.2       0.3
13 O  pz              0.7       0.7       1.7       5.3       0.1       3.8
13 O  px              0.1       7.3       1.0       0.3       3.3       0.3
13 O  py              0.2       0.6       1.0       1.9       0.8       0.1
14 H  s               1.5       4.1       1.4       0.0       3.5       0.4
15 H  s               4.7       0.2       0.1       3.7       1.7       1.3
16 H  s               0.0       0.2       0.0       2.2       1.2       0.6
17 H  s               0.2       2.7       0.1       0.2       0.2       0.0
18 H  s               2.3       0.0       2.4       0.1       0.9       0.1
19 H  s               0.0       2.0       0.0       0.0       0.6       0.0

                     30        31        32        33        34        35   
                  -0.34339  -0.31612  -0.29721  -0.28263  -0.26752  -0.26020
                   2.00000   2.00000   2.00000   2.00000   2.00000   2.00000
                  --------  --------  --------  --------  --------  --------
 0 C  s               0.0       0.4       0.1       0.3       0.2       0.0
 0 C  pz              9.0       0.0       0.0       0.2       0.9       5.6
 0 C  px              4.7       0.6       0.1       0.2       0.4       0.2
 0 C  py              4.3       1.0       0.5       0.1       1.6       0.0
 0 C  dz2             0.1       0.0       0.0       0.0       0.2       0.4
 0 C  dyz             0.1       0.0       0.0       0.0       0.0       0.1
 0 C  dx2y2           0.2       0.0       0.0       0.0       0.0       0.0
 0 C  dxy             0.3       0.3       0.0       0.1       0.4       0.0
 1 C  s               0.2       0.2       0.2       0.4       0.1       0.1
 1 C  pz              0.5       1.6       3.8       0.2       2.8       0.8
 1 C  px              2.0       0.2       0.8       0.8       0.1       0.3
 1 C  py              1.4       2.2       0.1       0.4       2.6       0.0
 1 C  dz2             0.0       0.0       0.4       0.0       0.3       0.1
 1 C  dyz             0.1       0.0       0.0       0.0       0.1       0.0
 1 C  dxy             0.0       0.1       0.3       0.1       0.1       0.0
 2 H  s               1.0       0.8       3.7       0.1       3.3       1.1
 3 C  s               0.0       0.0       0.5       0.6       0.6       0.1
 3 C  pz              0.9       0.8       1.1       2.1       0.2       0.2
 3 C  px              0.4       0.1       0.6       1.2       1.6       0.2
 3 C  py              3.5       0.8       2.0       0.4       1.3       0.4
 3 C  dx2y2           0.1       0.0       0.1       0.5       0.0       0.0
 3 C  dxy             0.0       0.0       0.0       0.0       0.2       0.0
 4 H  s               0.7       0.6       0.6       1.8       0.2       0.0
 5 C  s               0.1       1.1       0.0       0.1       0.2       0.2
 5 C  pz              2.4       2.4       3.2       0.3       0.7       0.2
 5 C  px              0.1       0.2       0.7       2.9       0.1       0.1
 5 C  py              0.7       0.1       2.1       2.3       1.3       1.1
 5 C  dz2             0.1       0.4       0.4       0.3       0.0       0.0
 5 C  dxz             0.0       0.1       0.2       0.0       0.0       0.0
 5 C  dx2y2           0.0       0.2       0.0       0.1       0.1       0.0
 5 C  dxy             0.1       0.0       0.0       0.0       0.1       0.0
 6 H  s               1.7       4.7       4.0       2.1       0.3       0.1
 7 C  s               0.4       1.0       0.3       0.0       0.1       0.2
 7 C  pz              1.1       2.8       0.1       0.3       0.3       1.5
 7 C  px              2.9       0.1       0.1       0.8       0.6       1.7
 7 C  py              0.2       0.3       1.6       1.9       2.6       1.3
 7 C  dz2             0.0       0.0       0.0       0.0       0.1       0.0
 7 C  dxz             0.0       0.1       0.0       0.0       0.3       1.7
 7 C  dx2y2           0.0       0.4       0.0       0.3       0.0       0.0
 7 C  dxy             0.1       0.0       0.1       0.0       0.4       0.0
 8 H  s               2.0       2.4       0.3       1.1       0.9       7.3
 9 O  s               0.3       1.9       0.1       0.7       0.5       1.4
 9 O  pz              0.5       0.3       0.6       1.3       7.6      12.0
 9 O  px              0.2       2.5       0.4       1.1       0.1       0.2
 9 O  py              0.7      12.1       0.5       4.6      10.2       0.5
10 O  s               1.6       0.9       0.0       0.2       0.1       0.4
10 O  pz              4.2       5.1       0.1       0.0       0.2      12.1
10 O  px              0.6       0.0       0.0       1.3      18.2      33.4
10 O  py             10.3       2.7       0.0       2.1       5.5       0.5
11 O  s               0.3       1.9       3.3       0.3       0.5       0.4
11 O  pz              0.2       2.0       4.6       5.2       0.1       0.4
11 O  px              0.1       2.2       0.2      12.9       0.8       0.0
11 O  py              0.2      12.7      15.0       1.4       7.7       2.0
12 O  s               1.0       1.6       1.0       3.9       0.6       0.0
12 O  pz              1.5       0.0       4.6       0.7       0.0       2.3
12 O  px              5.4       7.1       3.1      36.6       3.5       0.6
12 O  py              0.6       0.2       0.0       0.5       0.4       0.0
13 O  s               1.7       1.9       3.6       0.0       1.1       0.1
13 O  pz              8.2       2.1      21.6       0.5      10.0       0.1
13 O  px              0.4       0.5       1.5       0.0       0.1       0.2
13 O  py              2.8      11.4       7.7       1.6       0.0       1.7
14 H  s              11.1       0.8       0.0       0.0       3.7       0.7
15 H  s               4.3       0.3       0.1       0.0       2.0       4.6
16 H  s               0.9       0.2       0.1       0.3       0.1       0.3
17 H  s               0.7       1.5       1.9       0.3       0.3       0.2
18 H  s               0.0       0.5       0.2       2.0       0.6       0.0
19 H  s               0.3       0.8       1.2       0.0       0.8       0.1

                     36        37        38        39        40        41   
                  -0.24978  -0.23110  -0.21871  -0.19805   0.01453   0.02378
                   2.00000   2.00000   2.00000   2.00000   0.00000   0.00000
                  --------  --------  --------  --------  --------  --------
 0 C  s               0.2       0.2       0.8       0.2       1.3       0.9
 0 C  pz              0.5       0.1       0.5       0.2       0.4       1.0
 0 C  px              0.1       0.0       1.3       0.9       0.0       1.3
 0 C  py              0.1       0.5       3.8       1.6       0.8       1.2
 0 C  dz2             0.3       0.2       0.1       0.1       0.0       0.0
 0 C  dxz             0.1       0.0       0.1       0.0       0.0       0.2
 0 C  dyz             0.0       0.0       0.0       0.0       0.0       0.2
 0 C  dx2y2           0.1       0.0       0.0       0.0       0.0       0.3
 0 C  dxy             0.0       0.0       0.2       0.1       0.1       0.0
 1 C  s               0.0       0.9       0.1       0.1       0.2       0.9
 1 C  pz              2.2       0.2       0.5       0.3       0.3       4.3
 1 C  px              0.2       1.0       0.7       0.4       0.1       2.3
 1 C  py              2.1       0.9       3.3       1.8       0.1       0.0
 1 C  dz2             0.3       0.0       0.5       0.0       0.0       0.2
 1 C  dxz             0.0       0.0       0.0       0.1       0.0       0.5
 1 C  dx2y2           0.0       0.1       0.0       0.1       0.0       0.2
 1 C  dxy             0.1       0.2       0.5       0.3       0.0       0.0
 2 H  s               2.3       0.2       2.9       0.2       0.6       7.2
 3 C  s               0.1       0.1       0.0       0.4       0.6       0.0
 3 C  pz              0.1       0.6       0.9       2.8       0.4       0.1
 3 C  px              3.5       4.8       1.8       1.4       0.2       0.2
 3 C  py              0.2       0.4       0.2       0.1       0.1       0.0
 3 C  dz2             0.1       0.4       0.3       0.2       0.1       0.1
 3 C  dxz             0.0       0.0       0.2       0.2       0.0       0.2
 3 C  dyz             0.0       0.3       0.1       0.4       0.0       0.1
 3 C  dx2y2           0.0       0.0       0.0       0.1       0.0       0.1
 3 C  dxy             0.1       0.0       0.1       0.0       0.0       0.0
 4 H  s               0.7       3.0       2.7       2.4       1.2       0.8
 5 C  s               0.1       0.3       0.7       0.0       0.1       0.2
 5 C  pz              0.7       0.1       0.4       0.5       0.7       0.2
 5 C  px              0.5       0.6       1.3       4.6       0.0       0.3
 5 C  py              0.6       1.3       0.2       1.4       0.8       0.2
 5 C  dxz             0.1       0.1       0.0       0.0       0.0       0.0
 5 C  dyz             0.1       0.0       0.0       0.0       0.4       0.0
 5 C  dx2y2           0.1       0.5       0.1       0.4       0.0       0.0
 5 C  dxy             0.0       0.0       0.0       0.2       0.0       0.1
 6 H  s               0.5       0.1       0.3       0.3       1.4       0.0
 7 C  s               0.0       0.3       0.1       0.3       0.3       0.0
 7 C  pz              0.6       0.0       0.1       0.0       3.8       0.0
 7 C  px              0.3       0.6       0.1       0.9       0.8       0.1
 7 C  py              0.1       1.2       0.1       2.2       0.2       0.4
 7 C  dz2             0.6       0.1       0.1       0.1       0.2       0.0
 7 C  dxz             0.0       0.0       0.1       0.0       0.2       0.0
 7 C  dyz             0.0       0.0       0.0       0.0       0.3       0.0
 7 C  dx2y2           0.1       0.1       0.1       0.3       0.0       0.0
 8 H  s               0.0       0.4       0.1       1.3       4.6       0.2
 9 O  s               0.0       0.0       0.0       0.1       0.0       0.7
 9 O  pz             21.5       6.0       1.8       2.4       0.2       0.4
 9 O  px              2.5       1.3       3.2       2.6       0.1       0.5
 9 O  py              2.4       4.2       6.2       5.4       0.4       0.0
10 O  s               0.0       0.0       0.0       0.2       9.5       0.7
10 O  pz              1.2       0.3       0.8       0.0       0.1       0.1
10 O  px              8.5       1.6       0.0       1.6       0.7       0.1
10 O  py              3.4       0.5       0.2       0.0       3.8       0.9
11 O  s               0.3       0.0       0.1       0.0       1.7       0.0
11 O  pz              5.7       4.5       1.0       1.8       1.2       0.2
11 O  px             10.1      20.0       3.0       6.3       0.0       0.3
11 O  py              0.3       6.2       0.0       3.9       0.4       0.0
[...]
12 O  dxz             0.0       0.1       0.2       0.0       0.0       0.0
12 O  dyz             4.4       2.5       0.4       0.7       0.0       0.2
12 O  dx2y2           2.9       4.5      10.1       1.7       0.4       0.2
12 O  dxy             6.0       5.6      16.1       5.5       0.6       2.0
13 O  s               0.0       0.8       0.7       0.1       0.0       0.3
13 O  pz              0.0       0.2       0.1       0.0       0.0       0.0
13 O  px              0.1       0.2       0.1       0.0       0.0       0.4
13 O  dz2             0.3       1.0       0.2       0.6       0.3       0.0
13 O  dxz             0.6       3.2       2.0       1.0       0.0       4.6
13 O  dyz             0.7       0.3       0.9       0.1       0.4       0.1
13 O  dx2y2           1.1       2.2       1.2       0.3       0.2       1.9
13 O  dxy             0.7      34.6      15.9       2.1       2.0       0.0
16 H  s               1.0       0.0       0.7       0.6       0.0       0.4
17 H  s               0.5       0.1       0.1       0.5       0.0       0.2
18 H  s               2.5       0.7       1.7       0.2       0.0       0.1
19 H  s               0.0       2.8       1.6       0.3       0.0       0.1

                    156       157       158       159   
                   3.31267   3.32868   3.36188   3.39462
                   0.00000   0.00000   0.00000   0.00000
                  --------  --------  --------  --------
 0 C  s               0.0       0.0       0.0       1.4
 0 C  pz              0.0       0.0       0.0       0.3
 0 C  px              0.0       0.0       0.0       1.8
 0 C  dz2             0.2       0.0       0.0       0.2
 0 C  dxz             0.0       0.0       0.0       2.1
 0 C  dyz             0.0       0.0       0.0       0.1
 0 C  dx2y2           0.0       0.3       0.1       2.8
 0 C  dxy             0.1       0.4       0.0       0.2
 1 C  s               0.7       0.9       0.4       0.0
 1 C  pz              0.5       0.5       0.1       0.0
 1 C  px              1.0       1.3       0.1       0.1
 1 C  py              0.0       0.1       0.1       0.0
 1 C  dxz             3.0       3.4       0.6       0.3
 1 C  dx2y2           1.1       4.2       0.0       0.1
 1 C  dxy             0.0       0.0       0.2       0.1
 3 C  s               0.3       0.2       1.3       0.0
 3 C  pz              0.0       0.0       0.1       0.0
 3 C  px              0.6       0.1       0.5       0.0
 3 C  py              0.3       0.7       1.9       0.0
 3 C  dz2             0.4       0.1       1.1       0.0
 3 C  dxz             0.5       0.0       0.4       0.0
 3 C  dyz             0.0       0.0       1.7       0.0
 3 C  dx2y2           0.4       1.1       1.0       0.0
 3 C  dxy             0.7       3.3       3.5       0.0
 5 C  s               0.4       0.6       0.7       0.0
 5 C  pz              0.1       0.1       0.1       0.0
 5 C  px              0.5       0.4       0.1       0.0
 5 C  py              0.8       0.4       1.0       0.1
 5 C  dz2             0.1       0.4       0.2       0.0
 5 C  dxz             0.2       0.4       0.1       0.1
 5 C  dyz             0.9       0.2       1.6       0.0
 5 C  dx2y2           0.9       0.1       0.0       0.1
 5 C  dxy             3.1       2.9       1.8       0.1
 7 C  s               0.0       0.1       0.1       1.8
 7 C  pz              0.6       0.1       0.4       0.3
 7 C  px              0.1       0.0       0.1       1.2
 7 C  py              0.0       0.0       0.1       1.5
 7 C  dz2             2.2       0.2       1.5       1.4
 7 C  dxz             0.6       0.0       0.6       0.7
 7 C  dyz             0.1       0.0       0.0       0.6
 7 C  dx2y2           0.8       0.3       0.2       0.0
 7 C  dxy             0.2       0.0       0.1       4.8
 8 H  s               0.0       0.0       0.0       0.1
 9 O  s               0.1       0.0       0.0       0.1
 9 O  px              0.1       0.0       0.0       4.7
 9 O  py              0.1       0.0       0.0       1.4
 9 O  dz2             0.1       0.0       0.4       1.2
 9 O  dxz             1.2       0.3       0.3      24.0
 9 O  dyz             1.2       0.1       0.1       5.0
 9 O  dx2y2           0.7       0.5       0.2      18.2
 9 O  dxy             0.3       0.6       0.0      18.4
10 O  s               0.5       0.3       0.5       0.0
10 O  pz              0.6       0.1       0.5       0.0
10 O  px              0.0       0.0       0.2       0.0
10 O  py              0.1       0.0       0.2       0.0
10 O  dz2             9.0       0.5       6.6       0.1
10 O  dxz             1.2       0.7       0.5       0.3
10 O  dx2y2           0.1       0.0       0.5       0.0
10 O  dxy             0.0       0.1       0.0       0.1
11 O  s               1.2       1.1       1.5       0.1
11 O  pz              0.4       0.4       0.3       0.0
11 O  px              0.7       0.4       0.5       0.0
11 O  py              0.4       0.5       0.4       0.0
11 O  dz2             2.4       1.9       3.2       0.2
11 O  dxz             2.2       1.7       0.9       0.0
11 O  dyz             3.8       3.7       2.6       0.1
11 O  dx2y2           0.0       1.2       0.1       0.5
11 O  dxy            12.6       7.8       9.2       0.3
12 O  s               0.9       0.5       3.7       0.0
12 O  px              0.0       0.1       0.2       0.0
12 O  py              0.7       1.0       2.7       0.0
12 O  dz2             1.4       0.5       7.0       0.0
12 O  dxz             0.6       0.8       0.8       0.0
12 O  dyz             1.5       2.5       4.0       0.0
12 O  dx2y2           3.1       2.3       6.1       0.0
12 O  dxy             3.8       9.2      19.8       0.0
13 O  s               2.1       2.0       0.6       0.2
13 O  pz              0.2       0.3       0.0       0.0
13 O  px              1.4       2.1       0.2       0.1
13 O  py              0.1       0.1       0.0       0.0
13 O  dz2             0.2       0.0       0.2       0.1
13 O  dxz            14.2      22.6       1.9       0.7
13 O  dyz             0.1       0.2       0.0       0.1
13 O  dx2y2           7.9       9.9       1.1       0.7
13 O  dxy             0.1       0.1       0.0       0.1
16 H  s               0.1       0.0       0.2       0.0
17 H  s               0.2       0.1       0.2       0.0
18 H  s               0.1       0.3       0.4       0.0
19 H  s               0.2       0.4       0.0       0.0


                      *****************************
                      * MAYER POPULATION ANALYSIS *
                      *****************************

  NA   - Mulliken gross atomic population
  ZA   - Total nuclear charge
  QA   - Mulliken gross atomic charge
  VA   - Mayer's total valence
  BVA  - Mayer's bonded valence
  FA   - Mayer's free valence

  ATOM       NA         ZA         QA         VA         BVA        FA
  0 C      5.9334     6.0000     0.0666     3.9516     3.9516    -0.0000
  1 C      6.0019     6.0000    -0.0019     4.1036     4.1036     0.0000
  2 H      0.9379     1.0000     0.0621     0.9710     0.9710     0.0000
  3 C      5.9281     6.0000     0.0719     4.0236     4.0236    -0.0000
  4 H      0.9437     1.0000     0.0563     0.9897     0.9897    -0.0000
  5 C      5.9678     6.0000     0.0322     3.9653     3.9653    -0.0000
  6 H      0.9213     1.0000     0.0787     0.9724     0.9724     0.0000
  7 C      5.8415     6.0000     0.1585     4.1640     4.1640    -0.0000
  8 H      0.9278     1.0000     0.0722     0.9629     0.9629    -0.0000
  9 O      8.3053     8.0000    -0.3053     2.1664     2.1664    -0.0000
 10 O      8.4187     8.0000    -0.4187     2.0237     2.0237     0.0000
 11 O      8.4276     8.0000    -0.4276     2.0129     2.0129    -0.0000
 12 O      8.4079     8.0000    -0.4079     2.0309     2.0309    -0.0000
 13 O      8.4006     8.0000    -0.4006     2.0139     2.0139     0.0000
 14 H      0.9151     1.0000     0.0849     0.9584     0.9584     0.0000
 15 H      0.9353     1.0000     0.0647     0.9910     0.9910     0.0000
 16 H      0.6894     1.0000     0.3106     0.8879     0.8879    -0.0000
 17 H      0.6953     1.0000     0.3047     0.9050     0.9050    -0.0000
 18 H      0.7017     1.0000     0.2983     0.9050     0.9050    -0.0000
 19 H      0.6998     1.0000     0.3002     0.8799     0.8799    -0.0000

  Mayer bond orders larger than 0.100000
B(  0-C ,  1-C ) :   1.0438 B(  0-C ,  9-O ) :   0.9895 B(  0-C , 14-H ) :   0.9284 
B(  0-C , 15-H ) :   0.8901 B(  1-C ,  2-H ) :   0.8822 B(  1-C ,  3-C ) :   1.0164 
B(  1-C , 13-O ) :   1.0884 B(  3-C ,  4-H ) :   0.8782 B(  3-C ,  5-C ) :   0.9888 
B(  3-C , 12-O ) :   1.1020 B(  5-C ,  6-H ) :   0.8776 B(  5-C ,  7-C ) :   0.9901 
B(  5-C , 11-O ) :   1.0332 B(  7-C ,  8-H ) :   0.9031 B(  7-C ,  9-O ) :   1.0756 
B(  7-C , 10-O ) :   1.0588 B( 10-O , 16-H ) :   0.8388 B( 11-O , 17-H ) :   0.8361 
B( 12-O , 18-H ) :   0.8356 B( 13-O , 19-H ) :   0.8514 

-------
TIMINGS
-------

Total SCF time: 0 days 0 hours 0 min 1 sec 

Total time                  ....       1.965 sec
Sum of individual times     ....       1.950 sec  ( 99.2%)

SCF preparation             ....       0.038 sec  (  1.9%)
Fock matrix formation       ....       1.797 sec  ( 91.4%)
  Startup                   ....       0.002 sec  (  0.1% of F)
  Split-RI-J                ....       0.892 sec  ( 49.6% of F)
  XC integration            ....       0.898 sec  ( 50.0% of F)
    Basis function eval.    ....       0.361 sec  ( 40.1% of XC)
    Density eval.           ....       0.223 sec  ( 24.8% of XC)
    XC-Functional eval.     ....       0.058 sec  (  6.5% of XC)
    XC-Potential eval.      ....       0.225 sec  ( 25.1% of XC)
Diagonalization             ....       0.000 sec  (  0.0%)
Density matrix formation    ....       0.004 sec  (  0.2%)
Total Energy calculation    ....       0.000 sec  (  0.0%)
Population analysis         ....       0.091 sec  (  4.6%)
Orbital Transformation      ....       0.005 sec  (  0.3%)
Orbital Orthonormalization  ....       0.000 sec  (  0.0%)
DIIS solution               ....       0.005 sec  (  0.2%)
  MO trafo                  ....       0.000 sec  (  0.0 % of DIIS)
  Orb grad                  ....       0.000 sec  (  0.0 % of DIIS)
  Energy W gradient         ....       0.000 sec  (  0.0 % of DIIS)
  DIIS error                ....       0.001 sec  ( 12.9 % of DIIS)
  DIIS work                 ....       0.004 sec  ( 85.9 % of DIIS)
  Form Q                    ....       0.000 sec  (  0.0 % of DIIS)
  Form QpQm                 ....       0.000 sec  (  0.0 % of DIIS)
  Exp/Cayley                ....       0.000 sec  (  0.0 % of DIIS)
  Orb update                ....       0.000 sec  (  0.0 % of DIIS)
  Wake-sleep                ....       0.000 sec  (  1.2 % of DIIS)
SOSCF solution              ....       0.010 sec  (  0.5%)
  MO trafo                  ....       0.006 sec  ( 60.0 % of SOSCF)
  Orb grad                  ....       0.000 sec  (  2.2 % of SOSCF)
  Rot update                ....       0.000 sec  (  2.5 % of SOSCF)
  Step                      ....       0.004 sec  ( 33.9 % of SOSCF)
Finished LeanSCF after   2.0 sec

Maximum memory used throughout the entire LEANSCF-calculation: 15.4 MB


-------------------------------------------------------------------------------
                          DFT DISPERSION CORRECTION                            
                                                                               
                                DFTD4 V3.4.0                                   
-------------------------------------------------------------------------------
The PBE functional is recognized
Active option DFTDOPT                   ...         5   

-------------------------   ----------------
Dispersion correction           -0.019132988
-------------------------   ----------------

------------------   -----------------
gCP correction             0.127947901
------------------   -----------------

-------------------------   --------------------
FINAL SINGLE POINT ENERGY      -571.417827300419
-------------------------   --------------------


------------------------------------------------------------------------------
                              ORCA PROPERTY CALCULATIONS
------------------------------------------------------------------------------

GBWName                                 ... sp.gbw
Number of atoms                         ...     20
Number of basis functions               ...    160
Max core memory                         ...   1024 MB

Electric properties:
Dipole moment                           ... YES
Quadrupole moment                       ...  NO
Static polarizability (Dipole/Dipole)   ...  NO
Static polarizability (Dipole/Quad.)    ...  NO
Static polarizability (Quad./Quad.)     ...  NO
Static polarizability (Velocity)        ...  NO

Atomic electric properties:
Dipole moment                           ...  NO
Quadrupole moment                       ...  NO
Static polarizability                   ...  NO

Choice of electric origin               ... Center of mass
Position of electric origin             ...     0.000002     0.000007    -0.000003

General magnetic properties:
Magnetizability                         ...  NO

EPR properties:
g-Tensor (aka g-matrix)                 ...  NO
Zero-Field splitting spin-orbit         ...  NO
Zero-field splitting spin-spin          ...  NO
Hyperfine couplings                     ...  NO (   0 nuclei)
Quadrupole couplings                    ...  NO (   0 nuclei)
Contact density                         ...  NO (   0 nuclei)

NMR properties:
Chemical shifts                         ...  NO (   0 nuclei)
Spin-rotation constants                 ...  NO (   0 nuclei)
Spin-spin couplings                     ...  NO (   0 nuclei,    0 pairs)

Choice of magnetic origin               ... GIAO
Position of magnetic origin             ...     0.000000     0.000000     0.000000

Properties with geometric perturbations:
SCF Hessian                             ...  NO
IR spectrum                             ...  NO
VCD spectrum                            ...  NO
X-ray spectroscopy properties:
SCF XES/XAS/RIXS spectra                ...  NO


-------------
DIPOLE MOMENT
-------------

Method             : SCF
Type of density    : Electron Density
Multiplicity       :   1
Irrep              :   0
Energy             :  -571.5266422139444558 Eh
Relativity type    : 
Basis              : AO
                                X                 Y                 Z
Electronic contribution:     -0.779442202      -0.891241773      -0.013785302
Nuclear contribution   :      0.366124798       1.821125987       0.088863800
                        -----------------------------------------
Total Dipole Moment    :     -0.413317404       0.929884213       0.075078499
                        -----------------------------------------
Magnitude (a.u.)       :      1.020368908
Magnitude (Debye)      :      2.593571648



--------------------
Rotational spectrum 
--------------------
 
Rotational constants in cm-1:             0.056805             0.044796             0.029074 
Rotational constants in MHz :          1702.962658          1342.963368           871.631095 

Dipole components along the rotational axes: 
x,y,z [a.u.] :    -0.398759     0.936701     0.068811 
x,y,z [Debye]:    -1.013564     2.380905     0.174904 

 

Dipole moment calculation done in   0.0 sec 

Maximum memory used throughout the entire PROP-calculation: 10.1 MB

--------------------------------
SUGGESTED CITATIONS FOR THIS RUN
--------------------------------

Below you find a list of papers that are relevant to this ORCA run
We neither can nor want to force you to cite these papers, but we appreciate if you do
You receive ORCA, which is the product of decades of hard work by many enthusiastic individuals, for free
The only thing we kindly ask in return is that you cite our papers,
We deeply appreciate it, if you show your appreciation for ORCA by not just citing the generic ORCA reference.

Please note that relegating all ORCA citations to the supporting information does *not* help us.
SI sections are not indexed - citations you put there will not count into any citation statistics
But we need these citations in order to attract the funding resources that allow us to do what we are doing

Therefore, if you are a happy ORCA user, please consider citing a few of the papers listed below in the main body of your paper

In addition to the list printed below, the program has created the file sp.bibtex that contains the list in bibtex format
You can import this file easily into all common literature databanks and citation aid programs


List of essential papers. We consider these as the minimum necessary citations

  1. Neese,F.
     Software update: the ORCA program system, version 5.0
     WIRES Comput. Molec. Sci., 2022 12(1)e1606
     doi.org/10.1002/wcms.1606

List of papers to cite with high priority. The work reported in these papers was absolutely
necessary for this run to complete.
Our perspective: the developers of density functionals and basis sets usually get cited in chemistry papers
Good! But without the algorithms to do something with them, the functionals or basis sets would not do anything.
Hence, in our opinion, the algorithm design and method developments papers are equally worthy of getting cited

  1. Neese,F.
     An improvement of the resolution of the identity approximation for the formation of the Coulomb matrix
     J. Comp. Chem., 2003 24(14)1740-1747
     doi.org/10.1002/jcc.10318
  2. Neese,F.
     The SHARK Integral Generation and Digestion System
     J. Comp. Chem., 2022  1-16
     doi.org/10.1002/jcc.26942
  3. Caldeweyher,E.; Bannwarth,C.; Grimme,S.
     Extension of the D3 dispersion coefficient model
     J. Chem. Phys., 2017 147 034112
     doi.org/10.1063/1.4993215
  4. Caldeweyher,E.; Ehlert,S.; Hansen,A.; Neugebauer,H.; Spicher,S.; Bannwarth,C.; Grimme,S.
     A generally applicable atomic-charge dependent London dispersion correction
     J. Chem. Phys., 2019 150 154122
     doi.org/10.1063/1.5090222
  5. Caldeweyher,E.; Mewes,J.; Ehlert,S.; Grimme,S.
     Extension and evaluation of the D4 London-dispersion model for periodic systems
     Phys. Chem. Chem. Phys., 2020 22(16)8499-8512
     doi.org/10.1039/D0CP00502A
  6. Wittmann,L.; Gordiy,I.; Friede,M.; Helmich-Paris,B.; Grimme,S.; Hansen,A.; Bursch,M.
     Extension of the D3 and D4 London Dispersion Corrections to the full Actinides Series
     Phys. Chem. Chem. Phys., 2024 26(32)21379-21394
     doi.org/https://doi.org/10.1039/D4CP01514B 

List of suggested additional citations. These are papers that are important in the 'surrounding' of 
of this run, or papers that preceded the highly important papers. If you like your results we are grateful for a citation.

  1. Neese,F.
     The ORCA program system
     WIRES Comput. Molec. Sci., 2012 2(1)73-78
     doi.org/10.1002/wcms.81
  2. Neese,F.
     Software update: the ORCA program system, version 4.0
     WIRES Comput. Molec. Sci., 2018 8(1)1-6
     doi.org/10.1002/wcms.1327
  3. Neese,F.; Wennmohs,F.; Becker,U.; Riplinger,C.
     The ORCA quantum chemistry program package
     J. Chem. Phys., 2020 152 Art. No. L224108
     doi.org/10.1063/5.0004608

List of optional additional citations

  1. Neese,F.
     Approximate second-order SCF convergence for spin unrestricted wavefunctions
     Chem. Phys. Lett., 2000 325(1-3)93-98
     doi.org/10.1016/s0009-2614(00)00662-x

Timings for individual modules:

Sum of individual times          ...        2.612 sec (=   0.044 min)
Startup calculation              ...        0.497 sec (=   0.008 min)  19.0 %
SCF iterations                   ...        2.062 sec (=   0.034 min)  78.9 %
Property calculations            ...        0.054 sec (=   0.001 min)   2.1 %
                             ****ORCA TERMINATED NORMALLY****
TOTAL RUN TIME: 0 days 0 hours 0 minutes 2 seconds 724 msec
