9
 energy: -477.955436245355 gnorm: 0.014904456006 xtb: 6.7.1 (41059b4)
C           -1.70955041245755        0.36427113566142       -0.01542700020684
C           -0.60085553936626       -0.66289686369375        0.07349608403257
S            1.07344701817567        0.09251484094100       -0.02242412610994
H           -1.66204318653650        0.90356215520039       -0.95976494092530
H           -2.67452222918515       -0.13590144966022        0.04607294712042
H           -1.64073791662705        1.07913334057819        0.80256184655564
H           -0.66091796429287       -1.37938223121124       -0.74601710413058
H           -0.63937694888332       -1.20332413833322        1.01955178035179
H            0.66540902539486        1.35181451409902       -0.14112293716254
9
 energy: -477.955843765697 gnorm: 0.004808743484 xtb: 6.7.1 (41059b4)
C           -1.71138210357345        0.35943531810005       -0.01489715405977
C           -0.59228324651553       -0.66349059640177        0.07357243560326
S            1.09178648310155        0.09825797759244       -0.02372500414920
H           -1.66759635384912        0.90416492191726       -0.96130284298838
H           -2.68373608588973       -0.13756823312060        0.04618885877318
H           -1.64685029068139        1.07999652495736        0.80427340973378
H           -0.67165114418672       -1.38657438657873       -0.74217126544861
H           -0.65025359674180       -1.21108000259317        1.01767469608653
H            0.68281810268050        1.36664979318513       -0.14268652256098
9
 energy: -477.955873375540 gnorm: 0.001462998823 xtb: 6.7.1 (41059b4)
C           -1.71167536023426        0.36083184356068       -0.01507984690305
C           -0.59227962551481       -0.66448341202809        0.07367408415272
S            1.09626101451143        0.09556234033685       -0.02403509791153
H           -1.67096250543685        0.90718655903051       -0.96231285586771
H           -2.68469817245088       -0.13818924505317        0.04613408297461
H           -1.65039594575597        1.08310853352881        0.80472803699688
H           -0.67000142444834       -1.38846942862420       -0.74243484683050
H           -0.64832383530110       -1.21253566726308        1.01847707734923
H            0.68292760990254        1.36677980482580       -0.14222401674602
9
 energy: -477.955875938730 gnorm: 0.000575799250 xtb: 6.7.1 (41059b4)
C           -1.71203235642650        0.36090983222304       -0.01518724452790
C           -0.59391098859661       -0.66545093292872        0.07375575684669
S            1.09666432297851        0.09549180306690       -0.02487559153106
H           -1.67142781424425        0.90699513635564       -0.96260459740702
H           -2.68495619053792       -0.13873644302697        0.04607943899257
H           -1.65088554250158        1.08297776567164        0.80484097056507
H           -0.67021491952542       -1.38891155451068       -0.74284600755886
H           -0.64809765976784       -1.21229825243574        1.01927412575940
H            0.68571289584260        1.36881398886897       -0.14151019698408
9
 energy: -477.955875938730 gnorm: 0.000575799250 xtb: 6.7.1 (41059b4)
C           -1.71203235642650        0.36090983222304       -0.01518724452790
C           -0.59391098859661       -0.66545093292872        0.07375575684669
S            1.09666432297851        0.09549180306690       -0.02487559153106
H           -1.67142781424425        0.90699513635564       -0.96260459740702
H           -2.68495619053792       -0.13873644302697        0.04607943899257
H           -1.65088554250158        1.08297776567164        0.80484097056507
H           -0.67021491952542       -1.38891155451068       -0.74284600755886
H           -0.64809765976784       -1.21229825243574        1.01927412575940
H            0.68571289584260        1.36881398886897       -0.14151019698408
