 Entering Gaussian System
 *********************************************
 Gaussian 98:
 frequency output generated by the xtb code
 *********************************************
                         Standard orientation:
 --------------------------------------------------------------------
  Center     Atomic     Atomic              Coordinates (Angstroms)
  Number     Number      Type              X           Y           Z
 --------------------------------------------------------------------
    1          6             0        2.397655    0.000047    0.009012
    2          7             0        0.983872    0.000015   -0.289630
    3          6             0        0.322451    1.191365    0.211698
    4          6             0       -1.145203    1.185786   -0.229223
    5          7             0       -1.854231   -0.000056    0.213344
    6          6             0       -1.145147   -1.185857   -0.229243
    7          6             0        0.322507   -1.191374    0.211677
    8          1             0        2.854192   -0.885161   -0.431932
    9          1             0        2.606530    0.000044    1.091792
   10          1             0        2.854150    0.885281   -0.431920
   11          1             0        0.374776    1.247290    1.317778
   12          1             0        0.829718    2.068157   -0.197569
   13          1             0       -1.657577    2.069352    0.157340
   14          1             0       -1.187328    1.202262   -1.321351
   15          1             0       -1.903961   -0.000066    1.230161
   16          1             0       -1.657479   -2.069454    0.157304
   17          1             0       -1.187270   -1.202317   -1.321372
   18          1             0        0.374836   -1.247316    1.317757
   19          1             0        0.829816   -2.068135   -0.197604
 --------------------------------------------------------------------
     1 basis functions        1 primitive gaussians
     1 alpha electrons        1 beta electrons

 Harmonic frequencies (cm**-1), IR intensities (km*mol⁻¹),
 Raman scattering activities (A**4/amu), Raman depolarization ratios,
 reduced masses (AMU), force constants (mDyne/A) and normal coordinates:
                      1                      2                      3
                        a                      a                      a 
 Frequencies --   150.8346               207.2598               237.3403
 Red. masses --     2.6641                 1.2658                 1.4153
 Frc consts  --     0.0000                 0.0000                 0.0000
 IR Inten    --     0.0813                 0.0047                 0.1904
 Raman Activ --     0.0000                 0.0000                 0.0000
 Depolar     --     0.0000                 0.0000                 0.0000
 Atom AN      X      Y      Z        X      Y      Z        X      Y      Z
   1   6     0.05   0.00  -0.46    -0.00   0.04   0.00    -0.00   0.19   0.00
   2   7    -0.08  -0.00   0.21     0.00  -0.12  -0.00    -0.00   0.02   0.00
   3   6    -0.02  -0.05   0.35     0.07   0.00  -0.16    -0.04  -0.13   0.26
   4   6     0.08   0.03  -0.01    -0.07   0.05   0.25     0.12  -0.02  -0.18
   5   7    -0.08   0.00  -0.36     0.00  -0.09  -0.00    -0.00   0.12   0.00
   6   6     0.08  -0.03  -0.01     0.07   0.05  -0.25    -0.12  -0.02   0.18
   7   6    -0.02   0.05   0.35    -0.07   0.00   0.16     0.04  -0.13  -0.26
   8   1    -0.05   0.00  -0.20    -0.04  -0.19   0.36    -0.02  -0.11   0.30
   9   1     0.18   0.00  -0.17    -0.00   0.45   0.00    -0.00   0.42   0.00
  10   1    -0.05  -0.00  -0.20     0.04  -0.19  -0.36     0.02  -0.11  -0.30
  11   1    -0.07  -0.08   0.11     0.11   0.07  -0.05    -0.11  -0.16   0.09
  12   1     0.02   0.00   0.18    -0.00  -0.03  -0.14     0.04  -0.00   0.21
  13   1    -0.01  -0.00  -0.02     0.01  -0.02   0.20     0.02   0.03  -0.16
  14   1     0.12   0.04  -0.01    -0.11   0.13   0.08     0.13  -0.10  -0.06
  15   1    -0.15  -0.00  -0.10     0.00  -0.10  -0.00    -0.00   0.09   0.00
  16   1    -0.01   0.00  -0.02    -0.01  -0.02  -0.20    -0.02   0.03   0.16
  17   1     0.12  -0.04  -0.01     0.11   0.13  -0.08    -0.13  -0.10   0.06
  18   1    -0.07   0.08   0.11    -0.11   0.07   0.05     0.11  -0.16  -0.09
  19   1     0.02  -0.00   0.18     0.00  -0.03   0.14    -0.04  -0.00  -0.21
                      4                      5                      6
                        a                      a                      a 
 Frequencies --   337.3006               360.0025               408.6191
 Red. masses --     2.1904                 2.3679                 1.9315
 Frc consts  --     0.0000                 0.0000                 0.0000
 IR Inten    --    15.6870                 0.7150                 2.4385
 Raman Activ --     0.0000                 0.0000                 0.0000
 Depolar     --     0.0000                 0.0000                 0.0000
 Atom AN      X      Y      Z        X      Y      Z        X      Y      Z
   1   6    -0.00   0.00  -0.11    -0.00   0.48   0.00     0.06   0.00   0.02
   2   7    -0.09  -0.00   0.46     0.00  -0.38  -0.00     0.11   0.00  -0.35
   3   6    -0.09   0.16   0.00     0.06  -0.29  -0.11    -0.07  -0.26   0.11
   4   6    -0.00  -0.08  -0.24     0.08   0.09   0.02     0.01  -0.21  -0.13
   5   7     0.23   0.00   0.32    -0.00   0.15   0.00    -0.08  -0.00   0.29
   6   6    -0.00   0.08  -0.24    -0.08   0.09  -0.02     0.01   0.21  -0.13
   7   6    -0.09  -0.16   0.00    -0.06  -0.29   0.11    -0.07   0.26   0.11
   8   1    -0.06   0.00  -0.09     0.21   0.29  -0.09     0.05  -0.00   0.04
   9   1     0.15   0.00  -0.06    -0.00   0.08   0.00    -0.07  -0.00   0.02
  10   1    -0.06  -0.00  -0.09    -0.21   0.29   0.09     0.05   0.00   0.04
  11   1    -0.09   0.17  -0.00     0.03  -0.07  -0.03    -0.11  -0.28   0.05
  12   1     0.00  -0.00  -0.07     0.06  -0.11  -0.04    -0.02   0.01   0.23
  13   1    -0.05   0.01  -0.22     0.09   0.04   0.06     0.02   0.01  -0.17
  14   1     0.04  -0.19  -0.07    -0.02   0.07   0.01     0.05  -0.20  -0.04
  15   1     0.29   0.00   0.10    -0.00   0.04   0.00     0.14   0.00   0.09
  16   1    -0.05  -0.01  -0.22    -0.09   0.04  -0.06     0.02  -0.01  -0.17
  17   1     0.04   0.19  -0.07     0.02   0.07  -0.01     0.05   0.20  -0.04
  18   1    -0.09  -0.17  -0.00    -0.03  -0.07   0.03    -0.11   0.28   0.05
  19   1     0.00   0.00  -0.07    -0.06  -0.11   0.04    -0.02  -0.01   0.23
                      7                      8                      9
                        a                      a                      a 
 Frequencies --   425.9899               467.7282               588.0735
 Red. masses --     3.9374                 2.8591                 1.6461
 Frc consts  --     0.0000                 0.0000                 0.0000
 IR Inten    --     0.5499                 2.0252                 1.4514
 Raman Activ --     0.0000                 0.0000                 0.0000
 Depolar     --     0.0000                 0.0000                 0.0000
 Atom AN      X      Y      Z        X      Y      Z        X      Y      Z
   1   6     0.47   0.00  -0.02     0.00  -0.17  -0.00    -0.29  -0.00  -0.02
   2   7     0.38   0.00   0.23     0.00  -0.10  -0.00    -0.17  -0.00  -0.10
   3   6    -0.01  -0.07  -0.09    -0.32  -0.17  -0.07     0.15   0.06   0.06
   4   6    -0.16  -0.18   0.03    -0.33   0.25  -0.13     0.18  -0.23   0.11
   5   7    -0.49  -0.00   0.01    -0.00   0.12   0.00    -0.23  -0.00  -0.02
   6   6    -0.16   0.18   0.03     0.33   0.25   0.13     0.18   0.23   0.11
   7   6    -0.01   0.07  -0.09     0.32  -0.17   0.07     0.15  -0.06   0.06
   8   1     0.09   0.00  -0.05    -0.06  -0.08   0.01    -0.06  -0.00   0.02
   9   1     0.23   0.00  -0.03     0.00  -0.06  -0.00    -0.14  -0.00   0.01
  10   1     0.09  -0.00  -0.05     0.06  -0.08  -0.01    -0.06   0.00   0.02
  11   1     0.01   0.08  -0.03    -0.20  -0.13  -0.01     0.20   0.12  -0.00
  12   1    -0.09  -0.01  -0.11    -0.02  -0.03   0.10    -0.02  -0.02  -0.15
  13   1     0.02  -0.00  -0.01    -0.05   0.06   0.07     0.02   0.01  -0.20
  14   1    -0.06  -0.07   0.01    -0.18   0.14  -0.03     0.20  -0.24   0.02
  15   1    -0.21  -0.00  -0.00    -0.00   0.07   0.00    -0.33  -0.00  -0.02
  16   1     0.02   0.00  -0.01     0.05   0.06  -0.07     0.02  -0.01  -0.20
  17   1    -0.06   0.07   0.01     0.18   0.14   0.03     0.20   0.24   0.02
  18   1     0.01  -0.08  -0.03     0.20  -0.13   0.01     0.20  -0.12  -0.00
  19   1    -0.09   0.01  -0.11     0.02  -0.03  -0.10    -0.02   0.02  -0.15
                     10                     11                     12
                        a                      a                      a 
 Frequencies --   819.2052               852.8287               878.0821
 Red. masses --     2.7054                 1.4836                 1.6177
 Frc consts  --     0.0000                 0.0000                 0.0000
 IR Inten    --    20.0091                 0.0112               106.5616
 Raman Activ --     0.0000                 0.0000                 0.0000
 Depolar     --     0.0000                 0.0000                 0.0000
 Atom AN      X      Y      Z        X      Y      Z        X      Y      Z
   1   6    -0.33  -0.00  -0.00     0.00  -0.04  -0.00    -0.02  -0.00   0.02
   2   7    -0.04  -0.00   0.33     0.00  -0.18  -0.00     0.01  -0.00   0.11
   3   6     0.04  -0.37  -0.13    -0.15  -0.08   0.16    -0.12  -0.07  -0.15
   4   6     0.18  -0.19  -0.04    -0.20   0.14   0.18     0.01  -0.12   0.05
   5   7    -0.12  -0.00  -0.03    -0.00   0.13   0.00     0.52   0.00   0.06
   6   6     0.18   0.19  -0.04     0.20   0.14  -0.18     0.01   0.12   0.05
   7   6     0.04   0.37  -0.13     0.15  -0.08  -0.16    -0.12   0.07  -0.15
   8   1    -0.14  -0.00  -0.05     0.03  -0.00   0.01    -0.04   0.00  -0.03
   9   1     0.01   0.00  -0.01    -0.00   0.01   0.00     0.07   0.00  -0.01
  10   1    -0.14   0.00  -0.05    -0.03  -0.00  -0.01    -0.04  -0.00  -0.03
  11   1    -0.03  -0.02  -0.02     0.20   0.15   0.01    -0.16  -0.07  -0.03
  12   1     0.01  -0.11  -0.07    -0.11  -0.10  -0.22     0.00   0.00   0.06
  13   1     0.22  -0.04   0.17    -0.14   0.13  -0.27     0.01  -0.03   0.02
  14   1    -0.09   0.10   0.00     0.20  -0.22   0.03    -0.10  -0.09   0.01
  15   1     0.20   0.00   0.01     0.00  -0.05  -0.00    -0.69  -0.00  -0.05
  16   1     0.22   0.04   0.17     0.14   0.13   0.27     0.01   0.03   0.02
  17   1    -0.09  -0.10   0.00    -0.20  -0.22  -0.03    -0.10   0.09   0.01
  18   1    -0.03   0.02  -0.02    -0.20   0.15  -0.01    -0.16   0.07  -0.03
  19   1     0.01   0.11  -0.07     0.11  -0.10   0.22     0.00  -0.00   0.06
                     13                     14                     15
                        a                      a                      a 
 Frequencies --   933.1991               952.9340              1019.1107
 Red. masses --     2.1227                 2.0790                 2.3500
 Frc consts  --     0.0000                 0.0000                 0.0000
 IR Inten    --     3.5405                 1.1676                 7.7700
 Raman Activ --     0.0000                 0.0000                 0.0000
 Depolar     --     0.0000                 0.0000                 0.0000
 Atom AN      X      Y      Z        X      Y      Z        X      Y      Z
   1   6    -0.16  -0.00   0.01    -0.00   0.10   0.00     0.12   0.00   0.07
   2   7     0.02  -0.00   0.14    -0.00   0.26   0.00    -0.06  -0.00   0.02
   3   6     0.24   0.09  -0.13    -0.30  -0.21  -0.03    -0.16  -0.34  -0.03
   4   6     0.02   0.28  -0.10     0.25  -0.13   0.06     0.01   0.38   0.06
   5   7    -0.35  -0.00   0.24    -0.00   0.22   0.00     0.08   0.00   0.06
   6   6     0.02  -0.28  -0.10    -0.25  -0.13  -0.06     0.01  -0.38   0.06
   7   6     0.24  -0.09  -0.13     0.30  -0.21   0.03    -0.16   0.34  -0.03
   8   1    -0.06   0.01  -0.03    -0.21  -0.07  -0.03    -0.02   0.00  -0.03
   9   1     0.02   0.00  -0.01     0.00  -0.08  -0.00     0.11   0.00  -0.00
  10   1    -0.06  -0.01  -0.03     0.21  -0.07   0.03    -0.02  -0.00  -0.03
  11   1    -0.11  -0.10  -0.01    -0.02   0.11  -0.01     0.12   0.02  -0.02
  12   1     0.28  -0.00   0.17    -0.24  -0.03  -0.17    -0.05  -0.16  -0.17
  13   1     0.10   0.15  -0.08     0.22   0.02   0.10     0.01   0.19  -0.18
  14   1    -0.10  -0.04  -0.02     0.05   0.07   0.02     0.19  -0.05   0.00
  15   1    -0.24  -0.00   0.05    -0.00   0.09   0.00    -0.06  -0.00   0.01
  16   1     0.10  -0.15  -0.08    -0.22   0.02  -0.10     0.01  -0.19  -0.18
  17   1    -0.10   0.04  -0.02    -0.05   0.07  -0.02     0.19   0.05   0.00
  18   1    -0.11   0.10  -0.01     0.02   0.11   0.01     0.12  -0.02  -0.02
  19   1     0.28   0.00   0.17     0.24  -0.03   0.17    -0.05   0.16  -0.17
                     16                     17                     18
                        a                      a                      a 
 Frequencies --  1019.8685              1051.7628              1062.7488
 Red. masses --     1.5139                 2.6579                 1.5678
 Frc consts  --     0.0000                 0.0000                 0.0000
 IR Inten    --     8.0714                29.8507                 5.8177
 Raman Activ --     0.0000                 0.0000                 0.0000
 Depolar     --     0.0000                 0.0000                 0.0000
 Atom AN      X      Y      Z        X      Y      Z        X      Y      Z
   1   6    -0.00   0.06   0.00    -0.14  -0.00  -0.01     0.00  -0.35  -0.00
   2   7    -0.00   0.05   0.00     0.09   0.00   0.09     0.00  -0.19  -0.00
   3   6    -0.03   0.01  -0.31     0.31  -0.19   0.10    -0.21   0.18  -0.01
   4   6     0.07   0.03   0.27    -0.39  -0.04  -0.08     0.11  -0.09   0.08
   5   7    -0.00   0.07   0.00     0.20   0.00  -0.07    -0.00   0.16   0.00
   6   6    -0.07   0.03  -0.27    -0.39   0.04  -0.08    -0.11  -0.09  -0.08
   7   6     0.03   0.01   0.31     0.31   0.19   0.10     0.21   0.18   0.01
   8   1    -0.10  -0.03  -0.02    -0.04  -0.00  -0.01     0.44   0.11   0.06
   9   1     0.00  -0.04  -0.00    -0.03  -0.00   0.00    -0.00   0.16   0.00
  10   1     0.10  -0.03   0.02    -0.04   0.00  -0.01    -0.44   0.11  -0.06
  11   1    -0.13  -0.22  -0.05     0.20  -0.03   0.02    -0.11   0.01  -0.01
  12   1     0.02   0.10   0.17     0.16  -0.13  -0.04    -0.21   0.15   0.04
  13   1     0.09   0.15  -0.16    -0.25  -0.09  -0.04     0.07  -0.00   0.04
  14   1    -0.03  -0.30   0.06    -0.06  -0.03  -0.02     0.01   0.01   0.02
  15   1     0.00  -0.30  -0.00    -0.01  -0.00  -0.03    -0.00   0.02   0.00
  16   1    -0.09   0.15   0.16    -0.25   0.09  -0.04    -0.07  -0.00  -0.04
  17   1     0.03  -0.30  -0.06    -0.06   0.03  -0.02    -0.01   0.01  -0.02
  18   1     0.13  -0.22   0.05     0.20   0.03   0.02     0.11   0.01   0.01
  19   1    -0.02   0.10  -0.17     0.16   0.13  -0.04     0.21   0.15  -0.04
                     19                     20                     21
                        a                      a                      a 
 Frequencies --  1085.0595              1138.4086              1143.8365
 Red. masses --     1.4164                 2.4959                 1.1569
 Frc consts  --     0.0000                 0.0000                 0.0000
 IR Inten    --     1.0857                15.9038                 9.8364
 Raman Activ --     0.0000                 0.0000                 0.0000
 Depolar     --     0.0000                 0.0000                 0.0000
 Atom AN      X      Y      Z        X      Y      Z        X      Y      Z
   1   6     0.23   0.00  -0.29    -0.00   0.01   0.00    -0.00   0.07   0.00
   2   7    -0.25  -0.00   0.07     0.00  -0.15  -0.00     0.00  -0.14  -0.00
   3   6     0.02  -0.09   0.14    -0.23   0.09   0.00    -0.08   0.04  -0.19
   4   6     0.01   0.01  -0.14     0.30   0.25  -0.02     0.07   0.05   0.04
   5   7     0.02  -0.00   0.11     0.00  -0.45  -0.00     0.00  -0.09  -0.00
   6   6     0.01  -0.01  -0.14    -0.30   0.25   0.02    -0.07   0.05  -0.04
   7   6     0.02   0.09   0.14     0.23   0.09  -0.00     0.08   0.04   0.19
   8   1     0.27  -0.03   0.22    -0.01  -0.01   0.00    -0.10  -0.03  -0.01
   9   1    -0.47  -0.00   0.03     0.00  -0.01  -0.00     0.00  -0.05  -0.00
  10   1     0.27   0.03   0.22     0.01  -0.01  -0.00     0.10  -0.03   0.01
  11   1    -0.07   0.16   0.03    -0.21   0.16  -0.01     0.18  -0.26  -0.05
  12   1     0.07  -0.12  -0.09     0.19  -0.14  -0.05    -0.14   0.14   0.09
  13   1     0.12   0.03   0.06    -0.04  -0.01  -0.01    -0.26  -0.15  -0.00
  14   1    -0.12   0.04  -0.03     0.12   0.05  -0.00     0.35   0.19  -0.00
  15   1    -0.15  -0.00   0.01     0.00  -0.24  -0.00    -0.00   0.22   0.00
  16   1     0.12  -0.03   0.06     0.04  -0.01   0.01     0.26  -0.15   0.00
  17   1    -0.12  -0.04  -0.03    -0.12   0.05   0.00    -0.35   0.19   0.00
  18   1    -0.07  -0.16   0.03     0.21   0.16   0.01    -0.18  -0.26   0.05
  19   1     0.07   0.12  -0.09    -0.19  -0.14   0.05     0.14   0.14  -0.09
                     22                     23                     24
                        a                      a                      a 
 Frequencies --  1161.9380              1165.6235              1195.5566
 Red. masses --     1.8874                 2.3959                 1.8800
 Frc consts  --     0.0000                 0.0000                 0.0000
 IR Inten    --    17.2056                26.9105                 3.9800
 Raman Activ --     0.0000                 0.0000                 0.0000
 Depolar     --     0.0000                 0.0000                 0.0000
 Atom AN      X      Y      Z        X      Y      Z        X      Y      Z
   1   6    -0.03  -0.00   0.21     0.37   0.00   0.25     0.00  -0.11  -0.00
   2   7     0.02   0.00  -0.30    -0.60  -0.00  -0.16    -0.00   0.26   0.00
   3   6     0.02   0.02   0.28     0.03  -0.01  -0.04     0.10  -0.15  -0.01
   4   6    -0.01   0.01  -0.29     0.05  -0.12   0.04    -0.02   0.23  -0.15
   5   7     0.03  -0.00   0.20    -0.07  -0.00  -0.05     0.00  -0.46  -0.00
   6   6    -0.01  -0.01  -0.29     0.05   0.12   0.04     0.02   0.23   0.15
   7   6     0.02  -0.02   0.28     0.03   0.01  -0.04    -0.10  -0.15   0.01
   8   1    -0.13   0.02  -0.13    -0.00   0.03  -0.09     0.11   0.03   0.01
   9   1     0.28   0.00  -0.02     0.30   0.00  -0.01    -0.00   0.06   0.00
  10   1    -0.13  -0.02  -0.13    -0.00  -0.03  -0.09    -0.11   0.03  -0.01
  11   1     0.12   0.13   0.04    -0.05  -0.01  -0.00     0.19  -0.07  -0.00
  12   1    -0.13   0.01  -0.10     0.29  -0.17  -0.01    -0.24   0.13  -0.00
  13   1     0.20   0.05   0.09    -0.06  -0.09   0.04     0.24   0.20  -0.05
  14   1    -0.16   0.12  -0.06    -0.02  -0.03   0.01     0.04   0.05  -0.04
  15   1    -0.22  -0.00   0.03     0.06   0.00  -0.00     0.00  -0.15  -0.00
  16   1     0.20  -0.05   0.09    -0.06   0.09   0.04    -0.24   0.20   0.05
  17   1    -0.16  -0.12  -0.06    -0.02   0.03   0.01    -0.04   0.05   0.04
  18   1     0.12  -0.13   0.04    -0.05   0.01  -0.00    -0.19  -0.07   0.00
  19   1    -0.13  -0.01  -0.10     0.29   0.17  -0.01     0.24   0.13   0.00
                     25                     26                     27
                        a                      a                      a 
 Frequencies --  1268.4051              1278.0142              1284.2238
 Red. masses --     2.2092                 1.4702                 1.3361
 Frc consts  --     0.0000                 0.0000                 0.0000
 IR Inten    --    20.6184                17.8407                 0.8042
 Raman Activ --     0.0000                 0.0000                 0.0000
 Depolar     --     0.0000                 0.0000                 0.0000
 Atom AN      X      Y      Z        X      Y      Z        X      Y      Z
   1   6     0.00  -0.22  -0.00     0.17   0.00  -0.01     0.07   0.00   0.03
   2   7    -0.00   0.57   0.00    -0.35  -0.00   0.27    -0.18  -0.00   0.03
   3   6     0.07  -0.25  -0.17     0.05   0.05  -0.13     0.11   0.01   0.02
   4   6    -0.05   0.00   0.11    -0.07  -0.05  -0.13    -0.14  -0.00   0.14
   5   7    -0.00   0.04   0.00     0.01  -0.00   0.14     0.15   0.00  -0.32
   6   6     0.05   0.00  -0.11    -0.07   0.05  -0.13    -0.14   0.00   0.14
   7   6    -0.07  -0.25   0.17     0.05  -0.05  -0.13     0.11  -0.01   0.02
   8   1     0.21   0.06  -0.00     0.04  -0.02   0.05    -0.00  -0.00  -0.00
   9   1    -0.00   0.14   0.00    -0.01  -0.00   0.01     0.02   0.00   0.00
  10   1    -0.21   0.06   0.00     0.04   0.02   0.05    -0.00   0.00  -0.00
  11   1    -0.15   0.06  -0.02     0.33  -0.29  -0.02     0.04  -0.04   0.01
  12   1     0.16  -0.12  -0.01    -0.17   0.17   0.09    -0.12   0.10   0.03
  13   1    -0.16  -0.07  -0.02     0.08   0.01   0.04     0.29   0.24  -0.10
  14   1     0.21   0.03   0.02     0.16   0.16  -0.04    -0.29  -0.28   0.04
  15   1    -0.00   0.11   0.00    -0.09  -0.00   0.02     0.20   0.00  -0.07
  16   1     0.16  -0.07   0.02     0.08  -0.01   0.04     0.29  -0.24  -0.10
  17   1    -0.21   0.03  -0.02     0.16  -0.16  -0.04    -0.29   0.28   0.04
  18   1     0.15   0.06   0.02     0.33   0.29  -0.02     0.04   0.04   0.01
  19   1    -0.16  -0.12   0.01    -0.17  -0.17   0.09    -0.12  -0.10   0.03
                     28                     29                     30
                        a                      a                      a 
 Frequencies --  1299.7874              1329.3900              1331.9193
 Red. masses --     1.3157                 1.3887                 1.3170
 Frc consts  --     0.0000                 0.0000                 0.0000
 IR Inten    --     0.0853                25.6627                 4.1714
 Raman Activ --     0.0000                 0.0000                 0.0000
 Depolar     --     0.0000                 0.0000                 0.0000
 Atom AN      X      Y      Z        X      Y      Z        X      Y      Z
   1   6    -0.00   0.03   0.00    -0.07  -0.00  -0.01     0.00  -0.11  -0.00
   2   7     0.00  -0.10  -0.00     0.14   0.00  -0.06    -0.00   0.21   0.00
   3   6    -0.06   0.15  -0.03    -0.08   0.10  -0.01    -0.28   0.08  -0.01
   4   6    -0.23  -0.16   0.08    -0.28  -0.17   0.05     0.08  -0.03  -0.06
   5   7     0.00  -0.12  -0.00     0.13   0.00  -0.02    -0.00   0.04   0.00
   6   6     0.23  -0.16  -0.08    -0.28   0.17   0.05    -0.08  -0.03   0.06
   7   6     0.06   0.15   0.03    -0.08  -0.10  -0.01     0.28   0.08   0.01
   8   1    -0.02  -0.01  -0.00     0.01   0.01  -0.01     0.09   0.03  -0.01
   9   1     0.00  -0.02  -0.00     0.01   0.00  -0.00    -0.00   0.07   0.00
  10   1     0.02  -0.01   0.00     0.01  -0.01  -0.01    -0.09   0.03   0.01
  11   1    -0.04  -0.00  -0.01    -0.06   0.05  -0.00     0.42  -0.23  -0.01
  12   1     0.21  -0.07   0.04     0.23  -0.11   0.02     0.28  -0.18  -0.01
  13   1     0.36   0.22  -0.01     0.33   0.19   0.02     0.04  -0.02   0.04
  14   1     0.29   0.13   0.01     0.34   0.13   0.00    -0.13  -0.05  -0.01
  15   1    -0.00   0.27   0.00     0.03   0.00  -0.01     0.00  -0.05  -0.00
  16   1    -0.36   0.22   0.01     0.33  -0.19   0.02    -0.04  -0.02  -0.04
  17   1    -0.29   0.13  -0.01     0.34  -0.13   0.00     0.13  -0.05   0.01
  18   1     0.04  -0.00   0.01    -0.06  -0.05  -0.00    -0.42  -0.23   0.01
  19   1    -0.21  -0.07  -0.04     0.23   0.11   0.02    -0.28  -0.18   0.01
                     31                     32                     33
                        a                      a                      a 
 Frequencies --  1351.5842              1407.5864              1419.0359
 Red. masses --     1.4788                 1.2216                 1.1743
 Frc consts  --     0.0000                 0.0000                 0.0000
 IR Inten    --     6.9447                17.3121                 1.2209
 Raman Activ --     0.0000                 0.0000                 0.0000
 Depolar     --     0.0000                 0.0000                 0.0000
 Atom AN      X      Y      Z        X      Y      Z        X      Y      Z
   1   6     0.08   0.00   0.07     0.00  -0.00  -0.00     0.38   0.00   0.04
   2   7    -0.21  -0.00  -0.06    -0.00   0.00   0.00     0.06   0.00   0.01
   3   6     0.33  -0.13  -0.04    -0.02  -0.01  -0.00    -0.05   0.02  -0.00
   4   6    -0.11   0.02   0.03     0.12   0.10   0.15     0.00  -0.00  -0.01
   5   7     0.02  -0.00   0.05     0.00  -0.31  -0.00    -0.00  -0.00  -0.00
   6   6    -0.11  -0.02   0.03    -0.12   0.10  -0.15     0.00   0.00  -0.01
   7   6     0.33   0.13  -0.04     0.02  -0.01   0.00    -0.05  -0.02  -0.00
   8   1    -0.07  -0.01  -0.04     0.01   0.00   0.00    -0.46  -0.18  -0.16
   9   1    -0.02  -0.00   0.00     0.00  -0.00  -0.00    -0.53  -0.00   0.10
  10   1    -0.07   0.01  -0.04    -0.01   0.00  -0.00    -0.46   0.18  -0.16
  11   1    -0.38   0.16   0.00    -0.00   0.03   0.00     0.05   0.02   0.00
  12   1    -0.26   0.17  -0.00    -0.01   0.01   0.02     0.06  -0.01   0.03
  13   1    -0.03   0.01  -0.01    -0.03   0.05  -0.08     0.01  -0.00   0.02
  14   1     0.21   0.09  -0.00    -0.24  -0.17   0.04    -0.01  -0.02  -0.00
  15   1    -0.02  -0.00   0.01    -0.00   0.78   0.00    -0.00   0.00  -0.00
  16   1    -0.03  -0.01  -0.01     0.03   0.05   0.08     0.01   0.00   0.02
  17   1     0.21  -0.09  -0.00     0.24  -0.17  -0.04    -0.01   0.02  -0.00
  18   1    -0.38  -0.16   0.00     0.00   0.03  -0.00     0.05  -0.02   0.00
  19   1    -0.26  -0.17  -0.00     0.01   0.01  -0.02     0.06   0.01   0.03
                     34                     35                     36
                        a                      a                      a 
 Frequencies --  1460.8625              1471.9366              1478.2799
 Red. masses --     1.0816                 1.0928                 1.0851
 Frc consts  --     0.0000                 0.0000                 0.0000
 IR Inten    --     0.1280                 1.7539                 4.4272
 Raman Activ --     0.0000                 0.0000                 0.0000
 Depolar     --     0.0000                 0.0000                 0.0000
 Atom AN      X      Y      Z        X      Y      Z        X      Y      Z
   1   6     0.00  -0.02  -0.00    -0.02  -0.00  -0.00    -0.00   0.04   0.00
   2   7    -0.00   0.03   0.00    -0.00   0.00  -0.00     0.00  -0.05  -0.00
   3   6     0.02   0.01   0.01    -0.02  -0.03  -0.02    -0.10  -0.13  -0.09
   4   6     0.08  -0.14   0.10    -0.06   0.16  -0.11     0.01  -0.04   0.01
   5   7     0.00  -0.00  -0.00    -0.02  -0.00  -0.01    -0.00   0.03   0.00
   6   6    -0.08  -0.14  -0.10    -0.06  -0.16  -0.11    -0.01  -0.04  -0.01
   7   6    -0.02   0.01  -0.01    -0.02   0.03  -0.02     0.10  -0.13   0.09
   8   1    -0.00   0.01  -0.02     0.02   0.00   0.01     0.03  -0.02   0.07
   9   1    -0.00   0.04   0.00     0.03   0.00  -0.01     0.00  -0.13  -0.00
  10   1     0.00   0.01   0.02     0.02  -0.00   0.01    -0.03  -0.02  -0.07
  11   1    -0.03  -0.07   0.00     0.04   0.08  -0.01     0.22   0.42  -0.03
  12   1    -0.01  -0.03  -0.07     0.00   0.04   0.08     0.09   0.14   0.43
  13   1    -0.08   0.13  -0.45     0.07  -0.14   0.44    -0.02   0.01  -0.07
  14   1    -0.20   0.43   0.02     0.20  -0.43  -0.02    -0.03   0.07  -0.00
  15   1     0.00  -0.08  -0.00     0.00   0.00  -0.00     0.00  -0.05  -0.00
  16   1     0.08   0.13   0.45     0.07   0.14   0.44     0.02   0.01   0.07
  17   1     0.20   0.43  -0.02     0.20   0.43  -0.02     0.03   0.07   0.00
  18   1     0.03  -0.07  -0.00     0.04  -0.08  -0.01    -0.22   0.42   0.03
  19   1     0.01  -0.03   0.07     0.00  -0.04   0.08    -0.09   0.14  -0.43
                     37                     38                     39
                        a                      a                      a 
 Frequencies --  1482.2814              1491.5476              1493.2635
 Red. masses --     1.0955                 1.0543                 1.0594
 Frc consts  --     0.0000                 0.0000                 0.0000
 IR Inten    --     1.0369                 7.8929                 0.3244
 Raman Activ --     0.0000                 0.0000                 0.0000
 Depolar     --     0.0000                 0.0000                 0.0000
 Atom AN      X      Y      Z        X      Y      Z        X      Y      Z
   1   6    -0.02  -0.00   0.05    -0.03  -0.00   0.20     0.00  -0.21  -0.00
   2   7    -0.03  -0.00  -0.02     0.02  -0.00   0.06     0.00  -0.09  -0.00
   3   6    -0.07  -0.16  -0.10     0.01   0.03   0.01    -0.01  -0.00  -0.00
   4   6     0.01  -0.03   0.02    -0.00   0.01  -0.01    -0.00  -0.00  -0.00
   5   7     0.01   0.00   0.00    -0.00   0.00   0.00    -0.00   0.00   0.00
   6   6     0.01   0.03   0.02    -0.00  -0.01  -0.01     0.00  -0.00   0.00
   7   6    -0.07   0.16  -0.10     0.01  -0.03   0.01     0.01  -0.00   0.00
   8   1     0.08   0.09  -0.09     0.22   0.35  -0.46    -0.22   0.08  -0.40
   9   1    -0.03  -0.00   0.01    -0.37  -0.00   0.07    -0.00   0.70   0.00
  10   1     0.08  -0.09  -0.09     0.22  -0.35  -0.46     0.22   0.08   0.40
  11   1     0.20   0.41  -0.03    -0.02  -0.10   0.01     0.02   0.08  -0.00
  12   1     0.07   0.15   0.42    -0.03  -0.02  -0.09    -0.00   0.04   0.08
  13   1    -0.02   0.02  -0.08     0.00  -0.01   0.02     0.01  -0.00   0.01
  14   1    -0.04   0.08   0.00     0.01  -0.02  -0.00    -0.00  -0.01  -0.00
  15   1    -0.01  -0.00  -0.00    -0.00  -0.00   0.00    -0.00   0.00   0.00
  16   1    -0.02  -0.02  -0.08     0.00   0.01   0.02    -0.01  -0.00  -0.01
  17   1    -0.04  -0.08   0.00     0.01   0.02  -0.00     0.00  -0.01   0.00
  18   1     0.20  -0.41  -0.03    -0.02   0.10   0.01    -0.02   0.08   0.00
  19   1     0.07  -0.15   0.42    -0.03   0.02  -0.09     0.00   0.04  -0.08
                     40                     41                     42
                        a                      a                      a 
 Frequencies --  2758.0987              2768.5157              2833.7164
 Red. masses --     1.0707                 1.0677                 1.0688
 Frc consts  --     0.0000                 0.0000                 0.0000
 IR Inten    --    20.3545               171.1905               127.9686
 Raman Activ --     0.0000                 0.0000                 0.0000
 Depolar     --     0.0000                 0.0000                 0.0000
 Atom AN      X      Y      Z        X      Y      Z        X      Y      Z
   1   6     0.00  -0.00  -0.00     0.00   0.00  -0.03     0.01  -0.00   0.25
   2   7    -0.00   0.03   0.00    -0.02  -0.00   0.03     0.02   0.00   0.02
   3   6     0.01  -0.02   0.18     0.01  -0.01   0.17    -0.00  -0.00   0.02
   4   6     0.00  -0.00   0.00     0.00  -0.00  -0.00     0.00  -0.00  -0.00
   5   7     0.00  -0.00  -0.00    -0.00   0.00  -0.00     0.00   0.00  -0.00
   6   6    -0.00  -0.00  -0.00     0.00   0.00  -0.00     0.00   0.00  -0.00
   7   6    -0.01  -0.02  -0.18     0.01   0.01   0.17    -0.00   0.00   0.02
   8   1    -0.00   0.01   0.00    -0.00   0.01  -0.00     0.02  -0.04   0.03
   9   1    -0.00   0.00   0.00     0.01  -0.00   0.11    -0.17   0.00  -0.94
  10   1     0.00   0.01  -0.00    -0.00  -0.01  -0.00     0.02   0.04   0.03
  11   1    -0.03  -0.02  -0.68    -0.03  -0.03  -0.68     0.00  -0.01  -0.08
  12   1     0.03   0.04   0.02     0.02   0.03   0.02     0.01   0.01  -0.00
  13   1    -0.00   0.01   0.00    -0.00   0.01   0.00    -0.00   0.00   0.00
  14   1     0.00  -0.00   0.02     0.00   0.00   0.03    -0.00   0.00   0.01
  15   1    -0.00   0.00   0.00     0.00   0.00   0.00     0.00  -0.00   0.00
  16   1     0.00   0.01  -0.00    -0.00  -0.01   0.00    -0.00  -0.00   0.00
  17   1    -0.00  -0.00  -0.02     0.00  -0.00   0.03    -0.00  -0.00   0.01
  18   1     0.03  -0.02   0.68    -0.03   0.03  -0.68     0.00   0.01  -0.08
  19   1    -0.03   0.04  -0.02     0.02  -0.03   0.02     0.01  -0.01  -0.00
                     43                     44                     45
                        a                      a                      a 
 Frequencies --  2965.5184              2965.5576              2967.0358
 Red. masses --     1.0660                 1.0735                 1.0858
 Frc consts  --     0.0000                 0.0000                 0.0000
 IR Inten    --    21.2564                32.0501                 4.9677
 Raman Activ --     0.0000                 0.0000                 0.0000
 Depolar     --     0.0000                 0.0000                 0.0000
 Atom AN      X      Y      Z        X      Y      Z        X      Y      Z
   1   6     0.00   0.00  -0.01     0.00  -0.02  -0.00     0.00  -0.02  -0.00
   2   7    -0.00  -0.00   0.00    -0.00   0.01   0.00    -0.00   0.01   0.00
   3   6    -0.08  -0.13   0.06     0.06   0.09  -0.03     0.06   0.09  -0.05
   4   6    -0.02   0.02  -0.04    -0.00   0.02   0.14     0.04  -0.07  -0.13
   5   7     0.00   0.00  -0.00     0.00  -0.01  -0.00     0.00  -0.00  -0.00
   6   6    -0.02  -0.02  -0.04     0.00   0.02  -0.14    -0.04  -0.07   0.13
   7   6    -0.08   0.13   0.06    -0.06   0.09   0.03    -0.06   0.09   0.05
   8   1    -0.00   0.01   0.00    -0.02   0.03   0.02    -0.01   0.03   0.02
   9   1     0.00   0.00   0.01     0.00  -0.00   0.00     0.00  -0.00  -0.00
  10   1    -0.00  -0.01   0.00     0.02   0.03  -0.02     0.01   0.03  -0.02
  11   1    -0.01  -0.02   0.05     0.01   0.01  -0.05     0.01   0.01  -0.03
  12   1     0.29   0.51  -0.25    -0.20  -0.35   0.17    -0.21  -0.37   0.18
  13   1     0.05  -0.08  -0.04     0.03  -0.06  -0.01    -0.17   0.29   0.12
  14   1     0.00   0.00   0.22    -0.02   0.00  -0.51     0.02  -0.01   0.35
  15   1     0.00   0.00  -0.00     0.00  -0.00  -0.00    -0.00   0.00  -0.00
  16   1     0.05   0.08  -0.04    -0.03  -0.06   0.01     0.17   0.29  -0.12
  17   1     0.00  -0.00   0.22     0.02   0.00   0.51    -0.02  -0.01  -0.35
  18   1    -0.01   0.02   0.05    -0.01   0.01   0.05    -0.01   0.01   0.03
  19   1     0.29  -0.51  -0.25     0.20  -0.36  -0.17     0.21  -0.37  -0.18
                     46                     47                     48
                        a                      a                      a 
 Frequencies --  2971.1639              2975.4038              2977.9566
 Red. masses --     1.0861                 1.0601                 1.0557
 Frc consts  --     0.0000                 0.0000                 0.0000
 IR Inten    --    93.2813                15.2706               126.8987
 Raman Activ --     0.0000                 0.0000                 0.0000
 Depolar     --     0.0000                 0.0000                 0.0000
 Atom AN      X      Y      Z        X      Y      Z        X      Y      Z
   1   6    -0.00  -0.00  -0.00    -0.00  -0.00   0.00    -0.00   0.01   0.00
   2   7     0.00   0.00   0.00     0.00   0.00  -0.00     0.00  -0.00  -0.00
   3   6     0.02   0.03  -0.03     0.02   0.04  -0.01    -0.02  -0.05   0.02
   4   6     0.02  -0.05  -0.18    -0.08   0.14   0.01     0.08  -0.12   0.02
   5   7     0.01   0.00  -0.01     0.00   0.00   0.00     0.00  -0.01  -0.00
   6   6     0.02   0.05  -0.18    -0.08  -0.14   0.01    -0.08  -0.12  -0.02
   7   6     0.02  -0.03  -0.03     0.02  -0.04  -0.01     0.02  -0.05  -0.02
   8   1     0.00  -0.00  -0.00     0.00  -0.01  -0.00     0.01  -0.03  -0.01
   9   1     0.00   0.00   0.01    -0.00   0.00  -0.00    -0.00   0.00   0.00
  10   1     0.00   0.00  -0.00     0.00   0.01  -0.00    -0.01  -0.03   0.01
  11   1     0.00   0.01   0.01     0.00   0.00  -0.01    -0.00  -0.01   0.02
  12   1    -0.08  -0.14   0.07    -0.07  -0.13   0.06     0.11   0.18  -0.09
  13   1    -0.11   0.18   0.06     0.30  -0.51  -0.24    -0.27   0.47   0.22
  14   1     0.02  -0.01   0.62    -0.00   0.02   0.20     0.00  -0.01  -0.29
  15   1    -0.00   0.00  -0.02     0.00   0.00  -0.00     0.00  -0.00  -0.00
  16   1    -0.11  -0.18   0.06     0.30   0.51  -0.24     0.27   0.47  -0.22
  17   1     0.02   0.01   0.62    -0.00  -0.02   0.20    -0.00  -0.01   0.29
  18   1     0.00  -0.01   0.01     0.00  -0.00  -0.01     0.00  -0.01  -0.02
  19   1    -0.08   0.14   0.07    -0.07   0.13   0.06    -0.11   0.18   0.09
                     49                     50                     51
                        a                      a                      a 
 Frequencies --  3011.3021              3012.5507              3327.8513
 Red. masses --     1.0919                 1.0439                 1.0705
 Frc consts  --     0.0000                 0.0000                 0.0000
 IR Inten    --    51.4036                40.2644                20.7834
 Raman Activ --     0.0000                 0.0000                 0.0000
 Depolar     --     0.0000                 0.0000                 0.0000
 Atom AN      X      Y      Z        X      Y      Z        X      Y      Z
   1   6    -0.00   0.29  -0.00     0.14  -0.00  -0.13    -0.00   0.00  -0.00
   2   7     0.00   0.01   0.00     0.01  -0.00  -0.00     0.00   0.00  -0.00
   3   6     0.01   0.01  -0.00     0.00   0.00  -0.00    -0.00  -0.00  -0.00
   4   6    -0.00   0.00   0.00    -0.00   0.00  -0.00    -0.00  -0.00  -0.01
   5   7     0.00  -0.00   0.00     0.00   0.00   0.00     0.03   0.00  -0.25
   6   6     0.00   0.00  -0.00    -0.00  -0.00  -0.00    -0.00   0.00  -0.01
   7   6    -0.01   0.01   0.00     0.00  -0.00  -0.00    -0.00   0.00  -0.00
   8   1     0.29  -0.54  -0.29    -0.27   0.58   0.27    -0.00   0.00   0.00
   9   1    -0.00   0.05  -0.00     0.00  -0.00  -0.08     0.00  -0.00   0.00
  10   1    -0.29  -0.54   0.29    -0.27  -0.58   0.27    -0.00  -0.00   0.00
  11   1     0.00   0.00  -0.01    -0.00   0.00   0.00     0.00   0.00   0.00
  12   1    -0.03  -0.05   0.02    -0.00  -0.01   0.00    -0.00  -0.00   0.00
  13   1     0.00  -0.01  -0.00     0.00  -0.00  -0.00    -0.00   0.00   0.00
  14   1    -0.00   0.00   0.00     0.00   0.00   0.00     0.00   0.00   0.01
  15   1    -0.00   0.00  -0.00    -0.00  -0.00  -0.00    -0.08  -0.00   0.96
  16   1    -0.00  -0.01   0.00     0.00   0.00  -0.00    -0.00  -0.00   0.00
  17   1     0.00   0.00  -0.00     0.00  -0.00   0.00     0.00  -0.00   0.01
  18   1    -0.00   0.00   0.01    -0.00  -0.00   0.00     0.00  -0.00   0.00
  19   1     0.03  -0.05  -0.02    -0.00   0.01   0.00    -0.00   0.00   0.00
