
                                 *****************
                                 * O   R   C   A *
                                 *****************

                                            #,                                       
                                            ###                                      
                                            ####                                     
                                            #####                                    
                                            ######                                   
                                           ########,                                 
                                     ,,################,,,,,                         
                               ,,#################################,,                 
                          ,,##########################################,,             
                       ,#########################################, ''#####,          
                    ,#############################################,,   '####,        
                  ,##################################################,,,,####,       
                ,###########''''           ''''###############################       
              ,#####''   ,,,,##########,,,,          '''####'''          '####       
            ,##' ,,,,###########################,,,                        '##       
           ' ,,###''''                  '''############,,,                           
         ,,##''                                '''############,,,,        ,,,,,,###''
      ,#''                                            '''#######################'''  
     '                                                          ''''####''''         
             ,#######,   #######,   ,#######,      ##                                
            ,#'     '#,  ##    ##  ,#'     '#,    #''#        ,####,   ,####,        
            ##       ##  ##   ,#'  ##            #'  '#       #'       #'  '#        
            ##       ##  #######   ##           ,######,      #####,   #    #        
            '#,     ,#'  ##    ##  '#,     ,#' ,#      #,     #,   #   #,  ,#        
             '#######'   ##     ##  '#######'  #'      '#     '####' # '####'        



                #########################################################
                #                        -***-                          #
                #          Department of theory and spectroscopy        #
                #                                                       #
                #                      Frank Neese                      #
                #                                                       #
                #     Directorship, Architecture, Infrastructure        #
                #                    SHARK, DRIVERS                     #
                #        Core code/Algorithms in most modules           #
                #                                                       #
                #        Max Planck Institute fuer Kohlenforschung      #
                #                Kaiser Wilhelm Platz 1                 #
                #                 D-45470 Muelheim/Ruhr                 #
                #                      Germany                          #
                #                                                       #
                #                  All rights reserved                  #
                #                        -***-                          #
                #########################################################


                         Program Version 6.0.1  -  RELEASE   -


 With contributions from (in alphabetic order):
[Max-Planck-Institut fuer Kohlenforschung]                               
  Daniel Aravena         : Magnetic Suceptibility                        
  Michael Atanasov       : Ab Initio Ligand Field Theory (pilot matlab implementation)
  Alexander A. Auer      : GIAO ZORA, VPT2 properties, NMR spectrum      
  Ute Becker             : All parallelization in ORCA, NUMFREQ, NUMCALC 
  Giovanni Bistoni       : ED, misc. LED, open-shell LED, HFLD           
  Martin Brehm           : Molecular dynamics                            
  Dmytro Bykov           : pre 5.0 version of the SCF Hessian            
  Marcos Casanova-Páez   : Triplet and SCS-CIS(D). UHF-(DLPNO)-IP/EA/STEOM-CCSD. UHF-CVS-IP/STEOM-CCSD   
  Vijay G. Chilkuri      : MRCI spin determinant printing, contributions to CSF-ICE 
  Pauline Colinet        : FMM embedding                                 
  Dipayan Datta          : RHF DLPNO-CCSD density                        
  Achintya Kumar Dutta   : EOM-CC, STEOM-CC                              
  Nicolas Foglia         : Exact transition moments, OPA infrastructure, MCD improvements    
  Dmitry Ganyushin       : Spin-Orbit,Spin-Spin,Magnetic field MRCI      
  Miquel Garcia-Rates    : C-PCM and meta-GGA Hessian, CCSD/C-PCM, Gaussian charge scheme 
  Tiago L. C. Gouveia    : GS-ROHF, GS-ROCIS                             
  Yang Guo               : DLPNO-NEVPT2, F12-NEVPT2, CIM, IAO-localization        
  Andreas Hansen         : Spin unrestricted coupled pair/coupled cluster methods 
  Ingolf Harden          : AUTO-CI MPn and infrastructure                
  Benjamin Helmich-Paris : MC-RPA, TRAH-(SCF,CASSCF), AVAS, COSX integrals, SCF dyn. polar. 
  Lee Huntington         : MR-EOM, pCC                                   
  Robert Izsak           : Overlap fitted RIJCOSX, COSX-SCS-MP3, EOM     
  Riya Kayal             : Wick's Theorem for AUTO-CI, AUTO-CI UHF-CCSDT 
  Emily Kempfer          : AUTO-CI, RHF CISDT and CCSDT                  
  Christian Kollmar      : KDIIS, OOCD, Brueckner-CCSD(T), CCSD density, CASPT2, CASPT2-K, improved NEVPT2 
  Axel Koslowski         : Symmetry handling                             
  Simone Kossmann        : meta-GGA functionals, TD-DFT gradient, OOMP2, (MP2 Hessian; deprecated post 5.0) 
  Lucas Lang             : DCDCAS                                        
  Marvin Lechner         : AUTO-CI (C++ implementation), FIC-MRCC        
  Spencer Leger          : CASSCF response                               
  Dagmar Lenk            : GEPOL surface, SMD, ORCA-2-JSON               
  Dimitrios Liakos       : Extrapolation schemes; Compound Job, initial MDCI parallelization 
  Dimitrios Manganas     : Further ROCIS development; embedding schemes. LFT, Crystal Embedding 
  Dimitrios Pantazis     : SARC Basis sets                               
  Anastasios Papadopoulos: AUTO-CI, single reference methods and gradients 
  Taras Petrenko         : pre 6.0 DFT Hessian and TD-DFT gradient, (ASA, deprecated), ECA, 1-Electron XAS/XES, NRVS 
  Peter Pinski           : DLPNO-MP2, DLPNO-MP2 Gradient                 
  Christoph Reimann      : Effective Core Potentials                     
  Marius Retegan         : Local ZFS, SOC                                
  Christoph Riplinger    : Optimizer, TS searches, QM/MM, DLPNO-CCSD(T), (RO)-DLPNO pert. Triples 
  Michael Roemelt        : Original ROCIS implementation                 
  Masaaki Saitow         : Open-shell DLPNO-CCSD energy and density      
  Barbara Sandhoefer     : DKH picture change effects                    
  Kantharuban Sivalingam : CASSCF convergence/infrastructure, NEVPT2 and variants, FIC-MRCI 
  Bernardo de Souza      : ESD, SOC TD-DFT                               
  Georgi L. Stoychev     : AutoAux, RI-MP2 NMR, DLPNO-MP2 response, X2C  
  Van Anh Tran           : RI-MP2 g-tensors                              
  Willem Van den Heuvel  : Paramagnetic NMR                              
  Zikuan Wang            : NOTCH, Electric field optimization            
  Frank Wennmohs         : Technical directorship and infrastructure     
  Hang Xu                : AUTO-CI-Response properties                   
                                                                         
[FACCTs GmbH]                                                            
  Markus Bursch, Miquel Garcia-Rates, Christoph Riplinger, Bernardo de Souza, Georgi L. Stoychev 
                                                                 
  APM, Basis sets (HGBS, AHGBS, def-TZVP (Ac-Lr), def2-XVPD (La-Lu)), CI-OPT, improved COSX, DLPNO-Multilevel,           
  DOCKER, DRACO, updates on ESD, GOAT, IRC, LR-CPCM, MBIS, meta-GGA TD-DFT gradient, ML-optimized integration grids, 
  MM, NACMEs, nearIR, NEB, NEB-TS, NL-DFT gradient (VV10), 2- and 3-layer-ONIOM, interface openCOSMO-RS, QMMM,   
  Crystal-QMMM, SF, symmetry and pop. for TD-DFT, r2SCAN hybrids, SOLVATOR                                   
                                                                         
[Other institutions]                                                     
  V. Asgeirsson          : NEB                                           
  Christoph Bannwarth    : sTDA-DFT, sTD-DFT, PBEh-3c, B97-3c, D3        
  Sebastian Ehlert       : rSCAN, r2SCAN, r2SCAN-3c, D4, dhf basis sets  
  Marvin Friede          : D4 for Fr, Ra, Ac-Lr                          
  Lars Goerigk           : TD-DFT with DH, B97 family of functionals     
  Stefan Grimme          : VdW corrections, initial TS optimization, DFT functionals, gCP, sTDA/sTD-DF 
  Waldemar Hujo          : DFT-NL                                        
  H. Jonsson             : NEB                                           
  Holger Kruse           : gCP                                           
  Marcel Mueller         : wB97X-3c, vDZP basis set                      
  Hagen Neugebauer       : wr2SCAN                                       
  Tobias Risthaus        : range-separated hybrid DFT                    
  Lukas Wittmann         : regularized MP2, r2SCAN double-hybrids, wr2SCAN        
                                                                         
We gratefully acknowledge several colleagues who have allowed us to      
interface, adapt or use parts of their codes:                            
  Ed Valeev, F. Pavosevic, A. Kumar             : LibInt (2-el integral package), F12 methods 
  Garnet Chan, S. Sharma, J. Yang, R. Olivares  : DMRG                   
  Ulf Ekstrom                                   : XCFun DFT Library      
  Mihaly Kallay                                 : mrcc  (arbitrary order and MRCC methods)
  Frank Weinhold                                : gennbo (NPA and NBO analysis)           
  Simon Mueller                                 : openCOSMO-RS                            
  Christopher J. Cramer and Donald G. Truhlar   : smd solvation model                     
  S Lehtola, MJT Oliveira, MAL Marques          : LibXC Library                           
  Liviu Ungur et al                             : ANISO software                          


 Your calculation uses the libint2 library for the computation of 2-el integrals
 For citations please refer to: http://libint.valeyev.net

 Your ORCA version has been built with support for libXC version: 6.2.2
 For citations please refer to: https://libxc.gitlab.io

 This ORCA versions uses:
   CBLAS   interface :  Fast vector & matrix operations
   LAPACKE interface :  Fast linear algebra routines
   SCALAPACK package :  Parallel linear algebra routines
   Shared memory     :  Shared parallel matrices
   BLAS/LAPACK       :  OpenBLAS 0.3.27  USE64BITINT DYNAMIC_ARCH NO_AFFINITY Zen SINGLE_THREADED
        Core in use  :  Zen
   Copyright (c) 2011-2014, The OpenBLAS Project


Your calculation utilizes the geometrical counterpoise correction gCP
Please cite in your paper:
H.Kruse, S. Grimme J.Chem.Phys., 136, (2012), 154101 
   

Your calculation utilizes the DFT-NL dispersion correction.
Cite in your paper:
Vydrov, O. A.; Van Voorhis, T. J. Chem. Phys. 2010, 133, 244103
Hujo, W.; Grimme, S. J. Chem. Theory Comput. 2011, 7, 3866 
   

================================================================================

----- Orbital basis set information -----
Your calculation utilizes the basis: def2-TZVP
   F. Weigend and R. Ahlrichs, Phys. Chem. Chem. Phys. 7, 3297 (2005).

----- AuxJ basis set information -----
Your calculation utilizes the auxiliary basis: def2/J
   F. Weigend, Phys. Chem. Chem. Phys. 8, 1057 (2006).

================================================================================
                                        WARNINGS
                       Please study these warnings very carefully!
================================================================================

WARNING: Old DensityContainer found on disk!
         Will remove this file - 
         If you want to keep old densities, please start your calculation with a different basename. 


================================================================================
                                       INPUT FILE
================================================================================
NAME = sp.inp
|  1> ! wb97x-v def2-tzvp def2/J RIJCOSX DEFGRID2 scfconv7 GCP(DFT/TZ) printgap
|  2> %output
|  3>     printlevel normal
|  4> end
|  5> * xyz 0 1
|  6> C -1.2566070369296927 -0.1681550039732736 7.538424122992266e-06
|  7> C 0.12580505916637677 0.4158074313335387 7.748440147882564e-05
|  8> O 1.1450386019161054 -0.23191112612162496 6.155769863308481e-05
|  9> H -1.8051914479871745 0.1950167646410804 0.8779083750838333
| 10> H -1.8048021184218273 0.1943574435455602 -0.8784173968311074
| 11> H -1.2205761809165525 -1.2584451237807375 0.0003912791756799475
| 12> H 0.16591292853853645 1.5315320128398031 -0.00014597903841921363
| 13> *
| 14> 
| 15>                          ****END OF INPUT****
================================================================================

                       ****************************
                       * Single Point Calculation *
                       ****************************

---------------------------------
CARTESIAN COORDINATES (ANGSTROEM)
---------------------------------
  C     -1.256607   -0.168155    0.000008
  C      0.125805    0.415807    0.000077
  O      1.145039   -0.231911    0.000062
  H     -1.805191    0.195017    0.877908
  H     -1.804802    0.194357   -0.878417
  H     -1.220576   -1.258445    0.000391
  H      0.165913    1.531532   -0.000146

----------------------------
CARTESIAN COORDINATES (A.U.)
----------------------------
  NO LB      ZA    FRAG     MASS         X           Y           Z
   0 C     6.0000    0    12.011   -2.374643   -0.317767    0.000014
   1 C     6.0000    0    12.011    0.237737    0.785762    0.000146
   2 O     8.0000    0    15.999    2.163809   -0.438249    0.000116
   3 H     1.0000    0     1.008   -3.411317    0.368528    1.659006
   4 H     1.0000    0     1.008   -3.410582    0.367282   -1.659968
   5 H     1.0000    0     1.008   -2.306555   -2.378117    0.000739
   6 H     1.0000    0     1.008    0.313530    2.894176   -0.000276

--------------------------------
INTERNAL COORDINATES (ANGSTROEM)
--------------------------------
 C      0   0   0     0.000000000000     0.00000000     0.00000000
 C      1   0   0     1.500691618613     0.00000000     0.00000000
 O      2   1   0     1.207632537071   124.66390990     0.00000000
 H      1   2   3     1.097063566336   109.37693426   121.97618614
 H      1   2   3     1.097070411987   109.37568898   238.07935219
 H      1   2   3     1.090885381326   111.00753689     0.02538083
 H      2   1   3     1.116445266414   114.95907695   179.98334223

---------------------------
INTERNAL COORDINATES (A.U.)
---------------------------
 C      0   0   0     0.000000000000     0.00000000     0.00000000
 C      1   0   0     2.835896170649     0.00000000     0.00000000
 O      2   1   0     2.282094765476   124.66390990     0.00000000
 H      1   2   3     2.073149691878   109.37693426   121.97618614
 H      1   2   3     2.073162628283   109.37568898   238.07935219
 H      1   2   3     2.061474614205   111.00753689     0.02538083
 H      2   1   3     2.109775797036   114.95907695   179.98334223

---------------------
BASIS SET INFORMATION
---------------------
There are 3 groups of distinct atoms

 Group   1 Type C   : 11s6p2d1f contracted to 5s3p2d1f pattern {62111/411/11/1}
 Group   2 Type O   : 11s6p2d1f contracted to 5s3p2d1f pattern {62111/411/11/1}
 Group   3 Type H   : 5s1p contracted to 3s1p pattern {311/1}

Atom   0C    basis set group =>   1
Atom   1C    basis set group =>   1
Atom   2O    basis set group =>   2
Atom   3H    basis set group =>   3
Atom   4H    basis set group =>   3
Atom   5H    basis set group =>   3
Atom   6H    basis set group =>   3
---------------------------------
AUXILIARY/J BASIS SET INFORMATION
---------------------------------
There are 3 groups of distinct atoms

 Group   1 Type C   : 12s5p4d2f1g contracted to 6s4p3d1f1g pattern {711111/2111/211/2/1}
 Group   2 Type O   : 12s5p4d2f1g contracted to 6s4p3d1f1g pattern {711111/2111/211/2/1}
 Group   3 Type H   : 5s2p1d contracted to 3s1p1d pattern {311/2/1}

Atom   0C    basis set group =>   1
Atom   1C    basis set group =>   1
Atom   2O    basis set group =>   2
Atom   3H    basis set group =>   3
Atom   4H    basis set group =>   3
Atom   5H    basis set group =>   3
Atom   6H    basis set group =>   3

Checking for AutoStart:
The File: sp.gbw exists
Trying to determine its content:
     ... Fine, the file contains calculation information
     ... Fine, the calculation information was read
     ... Fine, the file contains a basis set
     ... Fine, the basis set was read
     ... Fine, the file contains a geometry
     ... Fine, the geometry was read
     ... Fine, the file contains a set of orbitals
     ... Fine, the orbitals can be read
     => possible old guess file was deleted
     => GBW file was renamed to GES file
     => GES file is set as startup file
     => Guess is set to MORead
     ... now leaving AutoStart

------------------------------------------------------------------------------
                             ORCA STARTUP CALCULATIONS
                           -- RI-GTO INTEGRALS CHOSEN --
------------------------------------------------------------------------------
------------------------------------------------------------------------------
                   ___                                                        
                  /   \      - P O W E R E D   B Y -                         
                 /     \                                                     
                 |  |  |   _    _      __       _____    __    __             
                 |  |  |  | |  | |    /  \     |  _  \  |  |  /  |          
                  \  \/   | |  | |   /    \    | | | |  |  | /  /          
                 / \  \   | |__| |  /  /\  \   | |_| |  |  |/  /          
                |  |  |   |  __  | /  /__\  \  |    /   |      \           
                |  |  |   | |  | | |   __   |  |    \   |  |\   \          
                \     /   | |  | | |  |  |  |  | |\  \  |  | \   \       
                 \___/    |_|  |_| |__|  |__|  |_| \__\ |__|  \__/        
                                                                              
                      - O R C A' S   B I G   F R I E N D -                    
                                      &                                       
                       - I N T E G R A L  F E E D E R -                       
                                                                              
 v1 FN, 2020, v2 2021, v3 2022-2024                                           
------------------------------------------------------------------------------


----------------------
SHARK INTEGRAL PACKAGE
----------------------

Number of atoms                             ...      7
Number of basis functions                   ...    117
Number of shells                            ...     49
Maximum angular momentum                    ...      3
Integral batch strategy                     ... SHARK/LIBINT Hybrid
RI-J (if used) integral strategy            ... SPLIT-RIJ (Revised 2003 algorithm where possible)
Printlevel                                  ...      1
Contraction scheme used                     ... SEGMENTED contraction
Prescreening option                         ... SCHWARTZ
   Thresh                                   ... 3.000e-11
   Tcut                                     ... 1.000e-12
   Tpresel                                  ... 1.000e-12 
Coulomb Range Separation                    ... NOT USED
Exchange Range Separation                   ... Long Range
   Mu parameter                             ... 3.000e-01
   Scaling (regular/separated)              ... 1.670e-01 8.330e-01
Multipole approximations                    ... NOT USED
Finite Nucleus Model                        ... NOT USED
CABS basis                                  ... NOT available
Auxiliary Coulomb fitting basis             ... AVAILABLE
   # of basis functions in Aux-J            ...    191
   # of shells in Aux-J                     ...     65
   Maximum angular momentum in Aux-J        ...      4
Auxiliary J/K fitting basis                 ... NOT available
Auxiliary Correlation fitting basis         ... NOT available
Auxiliary 'external' fitting basis          ... NOT available

Checking pre-screening integrals            ... done (  0.0 sec) Dimension = 49
Check shell pair data                       ... done (  0.0 sec)
Shell pair information
Shell pair cut-off parameter TPreSel        ...   1.0e-12
Total number of shell pairs                 ...      1225
Shell pairs after pre-screening             ...      1213
Total number of primitive shell pairs       ...      3648
Primitive shell pairs kept                  ...      3091
          la=0 lb=0:    367 shell pairs
          la=1 lb=0:    351 shell pairs
          la=1 lb=1:     91 shell pairs
          la=2 lb=0:    161 shell pairs
          la=2 lb=1:     78 shell pairs
          la=2 lb=2:     21 shell pairs
          la=3 lb=0:     81 shell pairs
          la=3 lb=1:     39 shell pairs
          la=3 lb=2:     18 shell pairs
          la=3 lb=3:      6 shell pairs

Calculating one electron integrals          ... done (  0.0 sec)
Calculating RI/J V-Matrix + Cholesky decomp.... done (  0.0 sec)
Calculating Nuclear repulsion               ... done (  0.0 sec) ENN=     69.673720526605 Eh

Diagonalization of the overlap matrix:
Smallest eigenvalue                        ... 5.343e-04
Time for diagonalization                   ...    0.001 sec
Threshold for overlap eigenvalues          ... 1.000e-07
Number of eigenvalues below threshold      ... 0
Time for construction of square roots      ...    0.000 sec
Total time needed                          ...    0.002 sec

-------------------
DFT GRID GENERATION
-------------------

General Integration Accuracy     IntAcc      ... 4.388
Radial Grid Type                 RadialGrid  ... OptM3 with GC (2021)
Angular Grid (max. ang.)         AngularGrid ... 4 (Lebedev-302)
Angular grid pruning method      GridPruning ... 4 (adaptive)
Weight generation scheme         WeightScheme... mBecke (2022)
Basis function cutoff            BFCut       ... 1.0000e-11
Integration weight cutoff        WCut        ... 1.0000e-14
Partially contracted basis set               ... off
Rotationally invariant grid construction     ... off
Angular grids for H and He will be reduced by one unit

Total number of grid points                  ...    31333
Total number of batches                      ...      492
Average number of points per batch           ...       63
Average number of grid points per atom       ...     4476

--------------------
COSX GRID GENERATION
--------------------

GRIDX 1
-------
General Integration Accuracy     IntAcc      ... 3.816
Radial Grid Type                 RadialGrid  ... OptM3 with GC (2021)
Angular Grid (max. ang.)         AngularGrid ... 1 (Lebedev-50)
Angular grid pruning method      GridPruning ... 4 (adaptive)
Weight generation scheme         WeightScheme... mBecke (2022)
Basis function cutoff            BFCut       ... 1.0000e-11
Integration weight cutoff        WCut        ... 1.0000e-14
Partially contracted basis set               ... on
Rotationally invariant grid construction     ... off
Angular grids for H and He will be reduced by one unit

Total number of grid points                  ...     4023
Total number of batches                      ...       35
Average number of points per batch           ...      114
Average number of grid points per atom       ...      575
UseSFitting                                  ... on

GRIDX 2
-------
General Integration Accuracy     IntAcc      ... 4.020
Radial Grid Type                 RadialGrid  ... OptM3 with GC (2021)
Angular Grid (max. ang.)         AngularGrid ... 2 (Lebedev-110)
Angular grid pruning method      GridPruning ... 4 (adaptive)
Weight generation scheme         WeightScheme... mBecke (2022)
Basis function cutoff            BFCut       ... 1.0000e-11
Integration weight cutoff        WCut        ... 1.0000e-14
Partially contracted basis set               ... on
Rotationally invariant grid construction     ... off
Angular grids for H and He will be reduced by one unit

Total number of grid points                  ...     8727
Total number of batches                      ...       72
Average number of points per batch           ...      121
Average number of grid points per atom       ...     1247
UseSFitting                                  ... on

GRIDX 3
-------
General Integration Accuracy     IntAcc      ... 4.338
Radial Grid Type                 RadialGrid  ... OptM3 with GC (2021)
Angular Grid (max. ang.)         AngularGrid ... 3 (Lebedev-194)
Angular grid pruning method      GridPruning ... 4 (adaptive)
Weight generation scheme         WeightScheme... mBecke (2022)
Basis function cutoff            BFCut       ... 1.0000e-11
Integration weight cutoff        WCut        ... 1.0000e-14
Partially contracted basis set               ... on
Rotationally invariant grid construction     ... off
Angular grids for H and He will be reduced by one unit

Total number of grid points                  ...    19234
Total number of batches                      ...      153
Average number of points per batch           ...      125
Average number of grid points per atom       ...     2748
UseSFitting                                  ... on
Initializing property integral containers    ... done (  0.0 sec)

SHARK setup successfully completed in   0.3 seconds

Maximum memory used throughout the entire STARTUP-calculation: 16.3 MB
-------------------------------------------------------------------------------
                                 ORCA GUESS
                   Start orbitals & Density for SCF / CASSCF
-------------------------------------------------------------------------------

------------
SCF SETTINGS
------------
Hamiltonian:
 Density Functional     Method          .... DFT(GTOs)
 Exchange Functional    Exchange        .... WB97X-V
 Correlation Functional Correlation     .... WB97X-V
 Gradients option       PostSCFGGA      .... off
 Hybrid DFT is turned on
   Fraction HF Exchange ScalHFX         ....  0.167000
   Scaling of DF-GGA-X  ScalDFX         ....  0.000000
   Scaling of DF-GGA-C  ScalDFC         ....  1.000000
   Scaling of DF-LDA-C  ScalLDAC        ....  1.000000
   Perturbative correction              ....  0.000000
 Long-range corrected/Screened/Range-Separated Hybrid DFT is turned on
   Amount of maximum screened exact exchange              ....  0.833000
   Range separation parameter mu (erf(mu*r12)/r12)        ....  0.300000
   NL short-range parameter             ....  6.000000
   NL long-range parameter              ....  0.010000
 RI-approximation to the Coulomb term is turned on
   Number of AuxJ basis functions       .... 191
   RIJ-COSX (HFX calculated with COS-X)).... on


General Settings:
 Integral files         IntName         .... sp
 Hartree-Fock type      HFTyp           .... RHF
 Total Charge           Charge          ....    0
 Multiplicity           Mult            ....    1
 Number of Electrons    NEL             ....   24
 Basis Dimension        Dim             ....  117
 Nuclear Repulsion      ENuc            ....     69.6737205266 Eh

Convergence Acceleration:
 AO-DIIS                CNVDIIS         .... on
   Start iteration      DIISMaxIt       ....    12
   Startup error        DIISStart       ....  0.200000
   # of expansion vecs  DIISMaxEq       ....     5
   Bias factor          DIISBfac        ....   1.050
   Max. coefficient     DIISMaxC        ....  10.000
 MO-DIIS                CNVKDIIS        .... off
 Trust-Rad. Augm. Hess. CNVTRAH         .... auto
   Auto Start mean grad. ratio tolernc. ....  1.125000
   Auto Start start iteration           ....     1
   Auto Start num. interpolation iter.  ....    10
   Max. Number of Micro iterations      ....    24
   Max. Number of Macro iterations      .... Maxiter - #DIIS iter
   Number of Davidson start vectors     ....     2
   Converg. threshold    (grad. norm)   ....   1.000e-04
   Grad. Scal. Fac. for Micro threshold ....   0.100
   Minimum threshold for Micro iter.    ....   1.000e-02
   NR start threshold (gradient norm)   ....   1.000e-04
   Initial trust radius                 ....   0.400
   Minimum AH scaling param. (alpha)    ....   1.000
   Maximum AH scaling param. (alpha)    .... 1000.000
   Quad. conv. algorithm                .... NR
   White noise on init. David. guess    .... on
   Maximum white noise                  ....   0.010
   Pseudo random numbers                .... off
   Inactive MOs                         .... canonical
   Orbital update algorithm             .... Taylor
   Preconditioner                       .... Diag
   Full preconditioner red. dimension   ....   250
 SOSCF                  CNVSOSCF        .... on
   Start iteration      SOSCFMaxIt      ....   150
   Startup grad/error   SOSCFStart      ....  0.003300
   Hessian update       SOSCFHessUp     .... L-BFGS
 Level Shifting         CNVShift        .... on
   Level shift para.    LevelShift      ....    0.2500
   Turn off err/grad.   ShiftErr        ....    0.0010
 Zerner damping         CNVZerner       .... off
 Static damping         CNVDamp         .... on
   Fraction old density DampFac         ....    0.7000
   Max. Damping (<1)    DampMax         ....    0.9800
   Min. Damping (>=0)   DampMin         ....    0.0000
   Turn off err/grad.   DampErr         ....    0.1000

SCF Procedure:
 Maximum # iterations   MaxIter         ....   125
 SCF integral mode      SCFMode         .... Direct
   Integral package                     .... SHARK and LIBINT hybrid scheme
 Reset frequency        DirectResetFreq ....    20
 Integral Threshold     Thresh          ....  3.000e-11 Eh
 Primitive CutOff       TCut            ....  1.000e-12 Eh

Convergence Tolerance:
 Convergence Check Mode ConvCheckMode   .... Total+1el-Energy
 Convergence forced     ConvForced      .... 0
 Energy Change          TolE            ....  1.000e-07 Eh
 1-El. energy change                    ....  1.000e-04 Eh
 Orbital Gradient       TolG            ....  1.000e-04
 Orbital Rotation angle TolX            ....  1.000e-04
 DIIS Error             TolErr          ....  1.000e-07

---------------------
INITIAL GUESS: MOREAD
---------------------
Guess MOs are being read from file: sp.ges
Input Geometry matches current geometry (good)
Atom 0: N(Shells)= 11 and 9 - projection required
Input basis set needs projection
NBasis(read)= 82
NBasis(calc)= 117
Basis set overlap was calculated
Using GuessMode=FMatrix for the initial guess
C*T matrix was formed
Effective Fockian was calculated
Effective Fockian was diagonalized
Initial density was built
                      ------------------
                      INITIAL GUESS DONE (   0.0 sec)
                      ------------------
             **** ENERGY FILE WAS UPDATED (sp.en.tmp) ****
Finished Guess after   0.0 sec
Maximum memory used throughout the entire GUESS-calculation: 10.1 MB

-------------------------------------------------------------------------------------------
                                      ORCA LEAN-SCF
                              memory conserving SCF solver
-------------------------------------------------------------------------------------------

----------------------------------------D-I-I-S--------------------------------------------
Iteration    Energy (Eh)           Delta-E    RMSDP     MaxDP     DIISErr   Damp  Time(sec)
-------------------------------------------------------------------------------------------
               ***  Starting incremental Fock matrix formation  ***
    1    -153.9312009012959095     0.00e+00  1.52e-03  3.72e-02  5.09e-02  0.700   1.0
    2    -153.9332159372557101    -2.02e-03  1.43e-03  3.59e-02  3.66e-02  0.700   0.5
                               ***Turning on AO-DIIS***
    3    -153.9347411550939739    -1.53e-03  1.25e-03  3.16e-02  2.60e-02  0.700   0.5
    4    -153.9358666745547737    -1.13e-03  3.23e-03  8.18e-02  1.83e-02  0.000   0.5
                              *** Initializing SOSCF ***
---------------------------------------S-O-S-C-F--------------------------------------
Iteration    Energy (Eh)           Delta-E    RMSDP     MaxDP     MaxGrad    Time(sec)
--------------------------------------------------------------------------------------
    5    -153.9387444737266151    -2.88e-03  2.00e-04  6.70e-03  1.31e-03     0.6
               *** Restarting incremental Fock matrix formation ***
    6    -153.9387507622199962    -6.29e-06  7.68e-05  2.20e-03  4.81e-04     1.0
    7    -153.9387532413541351    -2.48e-06  3.03e-05  6.94e-04  1.36e-04     0.9
    8    -153.9387535485631417    -3.07e-07  8.31e-06  2.98e-04  6.79e-05     0.8
    9    -153.9387535713123611    -2.27e-08  3.58e-06  4.05e-05  5.25e-05     0.8
                 **** Energy Check signals convergence ****

               *****************************************************
               *                     SUCCESS                       *
               *           SCF CONVERGED AFTER   9 CYCLES          *
               *****************************************************


------------------
NL GRID GENERATION
------------------

General Integration Accuracy     IntAcc      ... 4.004
Radial Grid Type                 RadialGrid  ... OptM3 with GC (2021)
Angular Grid (max. ang.)         AngularGrid ... 2 (Lebedev-110)
Angular grid pruning method      GridPruning ... 4 (adaptive)
Weight generation scheme         WeightScheme... mBecke (2022)
Basis function cutoff            BFCut       ... 1.0000e-10
Integration weight cutoff        WCut        ... 1.0000e-14
Partially contracted basis set               ... off
Rotationally invariant grid construction     ... off
Angular grids for H and He will be reduced by one unit

Total number of grid points                  ...     9716
Total number of batches                      ...      155
Average number of points per batch           ...       62
Average number of grid points per atom       ...     1388
Final grid set up in    0.0 sec

-------------------------------------------------------------------------------
                    post-SCF DFT-NL dispersion correction                      
-------------------------------------------------------------------------------

SCF Energy:     -153.938753571 
NL    Energy:      0.097073954 
SC+NL Energy:   -153.841679617 
NL done in  :              0.3 sec
-------------------------------------------------------------------------------
Recomputing exchange energy using gridx3       ... done (    1.791 sec)
Old exchange energy                            :     -6.475100510 Eh
New exchange energy                            :     -6.475092825 Eh
Exchange energy change after final integration :      0.000007685 Eh
Total energy after final integration           :   -153.841671932 Eh
             **** ENERGY FILE WAS UPDATED (sp.en.tmp) ****

----------------
TOTAL SCF ENERGY
----------------

Total Energy       :       -153.84167193249198 Eh           -4186.24472 eV

Components:
Nuclear Repulsion  :         69.67372052660482 Eh            1895.91832 eV
Electronic Energy  :       -223.61247409791719 Eh           -6084.80477 eV
One Electron Energy:       -346.03220174405124 Eh           -9416.01491 eV
Two Electron Energy:        122.41972764613406 Eh            3331.21014 eV

Virial components:
Potential Energy   :       -307.10546666605950 Eh           -8356.76460 eV
Kinetic Energy     :        153.26379473356752 Eh            4170.51988 eV
Virial Ratio       :          2.00377047429844

DFT components:
N(Alpha)           :       11.999999748448 electrons
N(Beta)            :       11.999999748448 electrons
N(Total)           :       23.999999496896 electrons
E(X)               :      -13.498499164827 Eh       
E(C)               :       -0.983339492287 Eh       
NL Energy, E(C,NL) :        0.097073954225 Eh       
E(XC)              :      -14.384764702889 Eh       

---------------
SCF CONVERGENCE
---------------

  Last Energy change         ...    2.2749e-08  Tolerance :   1.0000e-07
  Last MAX-Density change    ...    4.0487e-05  Tolerance :   1.0000e-05
  Last RMS-Density change    ...    3.5848e-06  Tolerance :   1.0000e-06
  Last DIIS Error            ...    1.3098e-03  Tolerance :   1.0000e-07
  Last Orbital Gradient      ...    5.2461e-05  Tolerance :   1.0000e-04
  Last Orbital Rotation      ...    6.9236e-05  Tolerance :   1.0000e-04


----------------
ORBITAL ENERGIES
----------------

  NO   OCC          E(Eh)            E(eV) 
   0   2.0000     -19.216328      -522.9029 
   1   2.0000     -10.369185      -282.1599 
   2   2.0000     -10.285550      -279.8840 
   3   2.0000      -1.184436       -32.2301 
   4   2.0000      -0.892596       -24.2888 
   5   2.0000      -0.707815       -19.2606 
   6   2.0000      -0.600827       -16.3493 
   7   2.0000      -0.563592       -15.3361 
   8   2.0000      -0.554851       -15.0983 
   9   2.0000      -0.512270       -13.9396 
  10   2.0000      -0.476843       -12.9756 
  11   2.0000      -0.369390       -10.0516 
  12   0.0000       0.061931         1.6852 
  13   0.0000       0.117802         3.2055 
  14   0.0000       0.153158         4.1676 
  15   0.0000       0.176208         4.7949 
  16   0.0000       0.185236         5.0405 
  17   0.0000       0.215528         5.8648 
  18   0.0000       0.243202         6.6179 
  19   0.0000       0.292715         7.9652 
  20   0.0000       0.313947         8.5429 
  21   0.0000       0.327218         8.9040 
  22   0.0000       0.345125         9.3913 
*Only the first 10 virtual orbitals were printed.

                    ********************************
                    * MULLIKEN POPULATION ANALYSIS *
                    ********************************

-----------------------
MULLIKEN ATOMIC CHARGES
-----------------------
   0 C :   -0.280289
   1 C :    0.123208
   2 O :   -0.279336
   3 H :    0.124493
   4 H :    0.124511
   5 H :    0.124186
   6 H :    0.063227
Sum of atomic charges:   -0.0000000

--------------------------------
MULLIKEN REDUCED ORBITAL CHARGES
--------------------------------
  0 C s       :     3.165011  s :     3.165011
      pz      :     1.044704  p :     3.066866
      px      :     0.963878
      py      :     1.058284
      dz2     :     0.006292  d :     0.045417
      dxz     :     0.012004
      dyz     :     0.004439
      dx2y2   :     0.011304
      dxy     :     0.011378
      f0      :     0.000186  f :     0.002996
      f+1     :     0.000683
      f-1     :     0.000354
      f+2     :     0.000166
      f-2     :     0.000030
      f+3     :     0.000572
      f-3     :     0.001006

  1 C s       :     3.231180  s :     3.231180
      pz      :     0.696694  p :     2.458353
      px      :     0.835547
      py      :     0.926112
      dz2     :     0.006393  d :     0.172574
      dxz     :     0.040986
      dyz     :     0.007686
      dx2y2   :     0.085163
      dxy     :     0.032347
      f0      :     0.001971  f :     0.014685
      f+1     :     0.001111
      f-1     :     0.000656
      f+2     :     0.000657
      f-2     :     0.002067
      f+3     :     0.005496
      f-3     :     0.002727

  2 O s       :     3.803044  s :     3.803044
      pz      :     1.283541  p :     4.442341
      px      :     1.490665
      py      :     1.668134
      dz2     :     0.002570  d :     0.032090
      dxz     :     0.009035
      dyz     :     0.003555
      dx2y2   :     0.008457
      dxy     :     0.008473
      f0      :     0.000155  f :     0.001860
      f+1     :     0.000103
      f-1     :     0.000052
      f+2     :     0.000095
      f-2     :     0.000418
      f+3     :     0.000575
      f-3     :     0.000462

  3 H s       :     0.854276  s :     0.854276
      pz      :     0.009631  p :     0.021231
      px      :     0.006836
      py      :     0.004764

  4 H s       :     0.854258  s :     0.854258
      pz      :     0.009637  p :     0.021231
      px      :     0.006832
      py      :     0.004762

  5 H s       :     0.854501  s :     0.854501
      pz      :     0.004055  p :     0.021313
      px      :     0.003764
      py      :     0.013494

  6 H s       :     0.917482  s :     0.917482
      pz      :     0.002168  p :     0.019291
      px      :     0.002668
      py      :     0.014455


------------------------
MULLIKEN OVERLAP CHARGES
------------------------
B(  0-C ,  1-C ) :   0.4988 B(  0-C ,  2-O ) :  -0.2368 B(  0-C ,  3-H ) :   0.7391 
B(  0-C ,  4-H ) :   0.7391 B(  0-C ,  5-H ) :   0.7136 B(  0-C ,  6-H ) :  -0.3370 
B(  1-C ,  2-O ) :   1.3654 B(  1-C ,  6-H ) :   0.8472 B(  2-O ,  6-H ) :  -0.1384 



                     *******************************
                     * LOEWDIN POPULATION ANALYSIS *
                     *******************************

----------------------
LOEWDIN ATOMIC CHARGES
----------------------
   0 C :   -0.292468
   1 C :   -0.314291
   2 O :    0.106212
   3 H :    0.133584
   4 H :    0.133599
   5 H :    0.127531
   6 H :    0.105833

-------------------------------
LOEWDIN REDUCED ORBITAL CHARGES
-------------------------------
  0 C s       :     2.839702  s :     2.839702
      pz      :     1.064051  p :     3.203460
      px      :     1.063433
      py      :     1.075977
      dz2     :     0.035223  d :     0.225949
      dxz     :     0.059160
      dyz     :     0.015026
      dx2y2   :     0.066177
      dxy     :     0.050363
      f0      :     0.001338  f :     0.023357
      f+1     :     0.003981
      f-1     :     0.003114
      f+2     :     0.001389
      f-2     :     0.003331
      f+3     :     0.004469
      f-3     :     0.005735

  1 C s       :     2.845170  s :     2.845170
      pz      :     0.684669  p :     2.719314
      px      :     1.028297
      py      :     1.006348
      dz2     :     0.038924  d :     0.656035
      dxz     :     0.114683
      dyz     :     0.017969
      dx2y2   :     0.305303
      dxy     :     0.179156
      f0      :     0.006990  f :     0.093772
      f+1     :     0.008015
      f-1     :     0.004654
      f+2     :     0.003248
      f-2     :     0.013820
      f+3     :     0.040978
      f-3     :     0.016066

  2 O s       :     3.411823  s :     3.411823
      pz      :     1.217684  p :     4.404977
      px      :     1.555684
      py      :     1.631610
      dz2     :     0.007864  d :     0.070852
      dxz     :     0.009619
      dyz     :     0.003844
      dx2y2   :     0.024741
      dxy     :     0.024785
      f0      :     0.000349  f :     0.006135
      f+1     :     0.000671
      f-1     :     0.000370
      f+2     :     0.000137
      f-2     :     0.000599
      f+3     :     0.002234
      f-3     :     0.001775

  3 H s       :     0.805525  s :     0.805525
      pz      :     0.027476  p :     0.060891
      px      :     0.018212
      py      :     0.015203

  4 H s       :     0.805510  s :     0.805510
      pz      :     0.027492  p :     0.060891
      px      :     0.018205
      py      :     0.015194

  5 H s       :     0.811083  s :     0.811083
      pz      :     0.012450  p :     0.061386
      px      :     0.011713
      py      :     0.037223

  6 H s       :     0.840388  s :     0.840388
      pz      :     0.006775  p :     0.053779
      px      :     0.007926
      py      :     0.039078


---------------------------------
LOEWDIN BOND ORDERS (THRESH 0.050000)
---------------------------------
B(  0-C ,  1-C ) :   1.3386 B(  0-C ,  2-O ) :   0.1863 B(  0-C ,  3-H ) :   0.8863 
B(  0-C ,  4-H ) :   0.8863 B(  0-C ,  5-H ) :   0.9022 B(  0-C ,  6-H ) :   0.0791 
B(  1-C ,  2-O ) :   2.7839 B(  1-C ,  3-H ) :   0.0960 B(  1-C ,  4-H ) :   0.0960 
B(  1-C ,  5-H ) :   0.0845 B(  1-C ,  6-H ) :   0.8756 B(  2-O ,  6-H ) :   0.0844 


------------------------------------------
LOEWDIN REDUCED ORBITAL POPULATIONS PER MO
-------------------------------------------
THRESHOLD FOR PRINTING IS 0.1%%
                      0         1         2         3         4         5   
                 -19.21633 -10.36919 -10.28555  -1.18444  -0.89260  -0.70781
                   2.00000   2.00000   2.00000   2.00000   2.00000   2.00000
                  --------  --------  --------  --------  --------  --------
 0 C  s               0.0       0.0      99.4       1.1      35.7       4.3
 0 C  px              0.0       0.1       0.0       2.2       0.4       7.1
 0 C  py              0.0       0.0       0.0       0.0       0.5       6.3
 0 C  dz2             0.0       0.0       0.0       0.1       0.0       0.2
 0 C  dx2y2           0.0       0.1       0.0       0.5       0.0       0.1
 0 C  dxy             0.0       0.1       0.0       0.0       0.2       1.4
 0 C  f-3             0.0       0.0       0.0       0.0       0.1       0.0
 1 C  s               0.0      99.1       0.0      18.2       8.2      14.1
 1 C  px              0.1       0.0       0.1       9.8      16.9       0.3
 1 C  py              0.0       0.0       0.0       4.2       0.1      17.2
 1 C  dz2             0.0       0.0       0.0       1.1       0.1       0.1
 1 C  dx2y2           0.0       0.0       0.1       0.7       0.2       0.8
 1 C  dxy             0.1       0.0       0.1       2.4       1.6       0.2
 1 C  f+1             0.0       0.0       0.0       0.2       0.1       0.0
 1 C  f-3             0.1       0.0       0.0       0.6       0.0       0.0
 2 O  s              99.6       0.0       0.0      50.1       3.3       5.6
 2 O  px              0.0       0.2       0.0       4.2       1.4       3.1
 2 O  py              0.0       0.1       0.0       1.7       0.1       7.6
 2 O  dz2             0.0       0.1       0.0       0.1       0.0       0.1
 2 O  dxy             0.0       0.2       0.0       0.3       0.0       0.3
 3 H  s               0.0       0.0       0.1       0.1       9.1       2.2
 3 H  pz              0.0       0.0       0.0       0.0       0.6       0.1
 3 H  px              0.0       0.0       0.0       0.0       0.3       0.0
 3 H  py              0.0       0.0       0.0       0.0       0.1       0.1
 4 H  s               0.0       0.0       0.1       0.1       9.1       2.2
 4 H  pz              0.0       0.0       0.0       0.0       0.6       0.1
 4 H  px              0.0       0.0       0.0       0.0       0.3       0.0
 4 H  py              0.0       0.0       0.0       0.0       0.1       0.1
 5 H  s               0.0       0.0       0.1       0.2       7.7       5.7
 5 H  py              0.0       0.0       0.0       0.0       0.8       0.4
 6 H  s               0.0       0.0       0.0       1.5       2.1      18.3
 6 H  py              0.0       0.0       0.0       0.1       0.2       1.4

                      6         7         8         9        10        11   
                  -0.60083  -0.56359  -0.55485  -0.51227  -0.47684  -0.36939
                   2.00000   2.00000   2.00000   2.00000   2.00000   2.00000
                  --------  --------  --------  --------  --------  --------
 0 C  s               0.4       0.0       0.1       0.1       0.0       0.9
 0 C  pz              0.0      39.5       0.0       0.0      13.7       0.0
 0 C  px             19.5       0.0      10.8       4.8       0.0       8.3
 0 C  py              4.1       0.0      10.7      31.3       0.0       0.8
 0 C  dz2             0.6       0.0       0.0       0.7       0.0       0.0
 0 C  dxz             0.0       0.2       0.0       0.0       2.8       0.0
 0 C  dyz             0.0       0.7       0.0       0.0       0.1       0.0
 0 C  dx2y2           0.3       0.0       0.3       2.1       0.0       0.0
 0 C  dxy             0.0       0.0       0.2       0.6       0.0       0.0
 0 C  f-2             0.0       0.0       0.0       0.0       0.1       0.0
 1 C  s               1.3       0.0       0.6       0.6       0.0       0.1
 1 C  pz              0.0      19.2       0.0       0.0      15.1       0.0
 1 C  px              2.8       0.0      18.9       1.2       0.0       1.5
 1 C  py             19.5       0.0       0.8       5.5       0.0       3.0
 1 C  dz2             0.2       0.0       0.1       0.1       0.0       0.0
 1 C  dxz             0.0       0.2       0.0       0.0       5.6       0.0
 1 C  dyz             0.0       0.6       0.0       0.0       0.3       0.0
 1 C  dx2y2           0.7       0.0       0.0       1.2       0.0      11.5
 1 C  dxy             0.4       0.0       1.0       1.0       0.0       2.2
 1 C  f0              0.0       0.3       0.0       0.0       0.1       0.0
 1 C  f+2             0.0       0.2       0.0       0.0       0.0       0.0
 1 C  f-2             0.0       0.0       0.0       0.0       0.7       0.0
 1 C  f+3             0.1       0.0       0.2       0.4       0.0       1.4
 2 O  s               4.2       0.0       6.6       1.2       0.0       0.0
 2 O  pz              0.0      13.8       0.0       0.0      47.1       0.0
 2 O  px             26.0       0.0      13.3      12.6       0.0      17.0
 2 O  py              1.4       0.0      28.2       0.4       0.0      42.1
 2 O  dxz             0.0       0.2       0.0       0.0       0.2       0.0
 2 O  dyz             0.0       0.1       0.0       0.0       0.1       0.0
 2 O  dx2y2           0.6       0.0       0.0       0.1       0.0       0.3
 2 O  dxy             0.0       0.0       0.3       0.0       0.0       0.1
 3 H  s               5.0      11.8       0.4       4.5       6.7       0.4
 3 H  pz              0.3       0.0       0.0       0.3       0.0       0.0
 3 H  px              0.0       0.3       0.1       0.0       0.1       0.1
 3 H  py              0.0       0.1       0.2       0.2       0.1       0.0
 4 H  s               5.0      11.8       0.4       4.5       6.7       0.4
 4 H  pz              0.3       0.0       0.0       0.3       0.0       0.0
 4 H  px              0.0       0.3       0.1       0.0       0.1       0.1
 4 H  py              0.0       0.1       0.2       0.2       0.1       0.0
 5 H  s               0.8       0.0       5.6      20.0       0.0       0.5
 5 H  pz              0.0       0.4       0.0       0.0       0.2       0.0
 5 H  px              0.2       0.0       0.2       0.0       0.0       0.1
 5 H  py              0.0       0.0       0.2       0.4       0.0       0.0
 6 H  s               5.8       0.0       0.0       5.4       0.0       8.9
 6 H  pz              0.0       0.2       0.0       0.0       0.2       0.0
 6 H  px              0.0       0.0       0.3       0.0       0.0       0.0
 6 H  py              0.2       0.0       0.0       0.1       0.0       0.0

                     12        13        14        15        16        17   
                   0.06193   0.11780   0.15316   0.17621   0.18524   0.21553
                   0.00000   0.00000   0.00000   0.00000   0.00000   0.00000
                  --------  --------  --------  --------  --------  --------
 0 C  s               0.0      10.2       2.0       0.0       0.5       1.2
 0 C  pz              0.1       0.0       0.0      13.9       0.0       0.0
 0 C  px              0.0       4.0       2.3       0.0       0.5      23.6
 0 C  py              0.0       0.1       6.2       0.0       8.4       4.0
 0 C  dz2             0.0       0.7       0.4       0.0       5.8       1.0
 0 C  dxz             7.4       0.0       0.0       2.5       0.0       0.0
 0 C  dyz             0.3       0.0       0.0       5.4       0.0       0.0
 0 C  dx2y2           0.0       0.0       0.0       0.0       5.2       0.4
 0 C  dxy             0.0       0.9       3.0       0.0       0.6       2.2
 0 C  f0              0.2       0.0       0.0       0.0       0.0       0.0
 0 C  f-2             0.3       0.0       0.0       0.0       0.0       0.0
 0 C  f-3             0.0       0.0       0.2       0.0       0.0       0.0
 1 C  s               0.0       3.3       5.4       0.0       4.4      10.9
 1 C  pz             47.7       0.0       0.0       7.2       0.0       0.0
 1 C  px              0.0       0.4       0.6       0.0       4.5      24.9
 1 C  py              0.0       1.1      11.6       0.0       0.9       4.3
 1 C  dz2             0.0       0.9       3.0       0.0       3.4       1.7
 1 C  dxz             2.8       0.0       0.0       0.9       0.0       0.0
 1 C  dyz             3.3       0.0       0.0       3.5       0.0       0.0
 1 C  dx2y2           0.0       0.2       0.2       0.0       1.1       0.0
 1 C  dxy             0.0       0.0       0.9       0.0       2.8       2.2
 1 C  f0              0.7       0.0       0.0       0.1       0.0       0.0
 1 C  f+2             0.2       0.0       0.0       0.0       0.0       0.0
 1 C  f-2             0.5       0.0       0.0       0.1       0.0       0.0
 1 C  f+3             0.0       0.1       0.0       0.0       0.0       0.1
 1 C  f-3             0.0       0.0       0.2       0.0       0.0       0.2
 2 O  s               0.0       0.3       0.2       0.0       0.3       4.7
 2 O  pz             26.9       0.0       0.0       0.2       0.0       0.0
 2 O  px              0.0       0.3       0.2       0.0       0.2       2.1
 2 O  py              0.0       0.9       0.1       0.0       1.5       0.4
 2 O  dxz             2.1       0.0       0.0       0.0       0.0       0.0
 2 O  dyz             0.9       0.0       0.0       0.1       0.0       0.0
 2 O  dx2y2           0.0       0.1       0.1       0.0       0.0       0.1
 2 O  dxy             0.0       0.1       0.4       0.0       0.1       0.0
 2 O  f-2             0.1       0.0       0.0       0.0       0.0       0.0
 3 H  s               2.2      25.2       0.7      29.4       5.4       2.5
 3 H  pz              0.0       2.3       0.0       0.9       0.7       0.1
 3 H  px              0.1       0.3       0.1       1.2       0.1       0.2
 3 H  py              0.0       0.4       0.0       0.8       0.6       0.0
 4 H  s               2.2      25.2       0.7      29.4       5.4       2.5
 4 H  pz              0.0       2.3       0.0       0.9       0.7       0.1
 4 H  px              0.1       0.3       0.1       1.2       0.1       0.2
 4 H  py              0.0       0.4       0.0       0.8       0.6       0.0
 5 H  s               0.0      10.5       9.5       0.0      38.0       7.6
 5 H  pz              0.0       0.0       0.0       1.2       0.0       0.0
 5 H  px              0.0       0.3       0.2       0.0       0.0       0.3
 5 H  py              0.0       1.3       1.3       0.0       3.7       0.4
 6 H  s               0.0       7.2      44.5       0.0       3.6       0.8
 6 H  pz              1.6       0.0       0.0       0.2       0.0       0.0
 6 H  px              0.0       0.0       0.1       0.0       0.4       0.8
 6 H  py              0.0       0.5       5.5       0.0       0.4       0.0

                     18        19        20        21        22        23   
                   0.24320   0.29271   0.31395   0.32722   0.34512   0.38974
                   0.00000   0.00000   0.00000   0.00000   0.00000   0.00000
                  --------  --------  --------  --------  --------  --------
 0 C  s               0.4       0.0       0.2       0.0       0.7       0.4
 0 C  pz              0.0      62.6       0.0       7.6       0.0       0.0
 0 C  px             34.1       0.0       3.3       0.0       6.0       0.3
 0 C  py              7.5       0.0      54.0       0.0       1.0       1.6
 0 C  dz2             4.7       0.0       8.8       0.0       0.3       0.7
 0 C  dxz             0.0       1.2       0.0       0.1       0.0       0.0
 0 C  dyz             0.0      11.3       0.0       0.6       0.0       0.0
 0 C  dx2y2           8.9       0.0       0.1       0.0       0.0       4.4
 0 C  dxy             2.4       0.0       3.2       0.0       4.2       1.2
 0 C  f0              0.0       0.0       0.0       0.2       0.0       0.0
 0 C  f+1             0.0       0.0       0.1       0.0       0.2       0.0
 0 C  f-1             0.1       0.0       0.0       0.0       0.0       0.0
 0 C  f+2             0.0       0.1       0.0       0.1       0.0       0.0
 0 C  f-2             0.0       0.0       0.0       0.2       0.0       0.0
 1 C  s               2.9       0.0       1.2       0.0      34.6       1.4
 1 C  pz              0.0       9.6       0.0      75.8       0.0       0.0
 1 C  px             16.7       0.0       3.7       0.0      13.5      10.6
 1 C  py              2.8       0.0       8.4       0.0       1.7      39.8
 1 C  dz2             0.3       0.0       0.3       0.0      15.3       0.0
 1 C  dxz             0.0       0.1       0.0       0.1       0.0       0.0
 1 C  dyz             0.0       1.8       0.0       1.2       0.0       0.0
 1 C  dx2y2           0.1       0.0       0.0       0.0       0.0       0.6
 1 C  dxy             0.6       0.0       0.0       0.0       6.6       0.2
 1 C  f-1             0.0       0.0       0.0       0.0       0.0       0.5
 1 C  f+3             0.0       0.0       0.1       0.0       0.2       0.3
 1 C  f-3             0.0       0.0       0.2       0.0       0.2       0.0
 2 O  s               0.9       0.0       1.6       0.0       0.1       0.6
 2 O  pz              0.0       1.5       0.0       4.5       0.0       0.0
 2 O  px              1.1       0.0       1.5       0.0       0.4       2.2
 2 O  py              0.0       0.0       1.3       0.0       0.7      19.8
 2 O  dz2             0.0       0.0       0.0       0.0       0.6       0.0
 2 O  dxz             0.0       0.0       0.0       1.1       0.0       0.0
 2 O  dyz             0.0       0.4       0.0       0.2       0.0       0.0
 2 O  dx2y2           0.4       0.0       0.0       0.0       0.3       0.2
 2 O  dxy             0.0       0.0       0.1       0.0       0.0       0.1
 2 O  f-2             0.0       0.0       0.0       0.1       0.0       0.0
 3 H  s               1.1       4.4       0.8       3.5       2.1       0.7
 3 H  pz              0.7       0.2       0.3       0.2       0.2       0.0
 3 H  px              0.6       0.1       0.4       0.3       0.2       0.1
 3 H  py              0.4       0.2       0.7       0.0       0.1       0.1
 4 H  s               1.1       4.4       0.8       3.5       2.1       0.7
 4 H  pz              0.7       0.2       0.3       0.2       0.2       0.0
 4 H  px              0.6       0.1       0.4       0.3       0.2       0.1
 4 H  py              0.3       0.2       0.7       0.0       0.1       0.1
 5 H  s               2.4       0.0       4.2       0.0       0.7       3.7
 5 H  pz              0.0       1.5       0.0       0.1       0.0       0.0
 5 H  px              0.7       0.0       0.0       0.0       0.7       0.6
 5 H  py              0.0       0.0       0.2       0.0       0.0       0.5
 6 H  s               7.0       0.0       1.3       0.0       4.7       8.1
 6 H  pz              0.0       0.2       0.0       0.1       0.0       0.0
 6 H  px              0.1       0.0       0.1       0.0       2.0       0.2
 6 H  py              0.2       0.0       1.4       0.0       0.1       0.1

                     24        25        26        27        28        29   
                   0.46569   0.48468   0.50196   0.51947   0.53384   0.55181
                   0.00000   0.00000   0.00000   0.00000   0.00000   0.00000
                  --------  --------  --------  --------  --------  --------
 0 C  s              52.6      13.0       5.0       2.9       0.0       0.0
 0 C  pz              0.0       0.0       0.0       0.0      27.0       0.0
 0 C  px             10.2      17.9       0.1       1.7       0.0      10.2
 0 C  py              0.0       2.6      11.8       1.1       0.0       2.0
 0 C  dz2             1.0       0.2       0.6       0.6       0.0       5.5
 0 C  dxz             0.0       0.0       0.0       0.0       9.7       0.0
 0 C  dyz             0.0       0.0       0.0       0.0       4.1       0.0
 0 C  dx2y2           0.4       1.9       6.1       3.2       0.0       0.0
 0 C  dxy             3.7       1.3       0.4       2.1       0.0       0.1
 0 C  f+1             0.0       0.7       0.3       0.0       0.0       0.0
 0 C  f-1             0.0       0.0       0.0       0.0       0.0       0.1
 0 C  f+2             0.0       0.0       0.0       0.0       0.1       0.0
 0 C  f-2             0.0       0.0       0.0       0.0       0.6       0.0
 0 C  f+3             0.0       0.1       0.4       0.0       0.0       0.0
 0 C  f-3             0.1       0.8       0.2       0.0       0.0       0.1
 1 C  s               4.0      24.5       1.7       1.1       0.0       3.0
 1 C  pz              0.0       0.0       0.0       0.0       1.4       0.0
 1 C  px              0.8       5.2       0.5       1.1       0.0      10.8
 1 C  py              1.1       2.1      14.2       0.9       0.0       6.3
 1 C  dz2             0.5       2.9       0.0       1.8       0.0       5.2
 1 C  dxz             0.0       0.0       0.0       0.0       1.4       0.0
 1 C  dyz             0.0       0.0       0.0       0.0       1.1       0.0
 1 C  dx2y2           1.5       1.3       5.6       0.0       0.0       2.0
 1 C  dxy             0.0       1.2       1.3       2.2       0.0       5.0
 1 C  f0              0.0       0.0       0.0       0.0       0.4       0.0
 1 C  f+1             0.1       0.4       0.0       0.0       0.0       0.1
 1 C  f-1             0.2       0.1       0.1       0.0       0.0       0.7
 1 C  f+2             0.0       0.0       0.0       0.0       0.2       0.0
 1 C  f-2             0.0       0.0       0.0       0.0       0.1       0.0
 1 C  f+3             0.1       0.4       0.4       0.0       0.0       0.1
 1 C  f-3             0.0       1.4       0.4       0.1       0.0       0.4
 2 O  s               0.3       0.4       0.4       0.6       0.0       1.1
 2 O  pz              0.0       0.0       0.0       0.0       1.2       0.0
 2 O  px              2.3       3.2       3.0      58.3       0.0       0.5
 2 O  py              4.5       2.1       0.1      10.7       0.0       5.8
 2 O  dz2             0.0       0.8       0.1       1.3       0.0       0.8
 2 O  dxz             0.0       0.0       0.0       0.0       0.2       0.0
 2 O  dx2y2           0.0       2.3       1.6       1.0       0.0       0.7
 2 O  dxy             1.0       0.0       0.0       2.4       0.0       4.2
 2 O  f+3             0.0       0.1       0.1       0.0       0.0       0.2
 3 H  s               3.1       1.7       1.9       0.1      21.4       4.4
 3 H  pz              1.3       0.7       0.1       0.4       1.9       1.3
 3 H  px              0.3       0.8       0.0       0.1       1.9       0.0
 3 H  py              0.6       0.0       0.0       0.0       0.7       0.0
 4 H  s               3.1       1.7       1.9       0.1      21.5       4.4
 4 H  pz              1.3       0.7       0.1       0.4       1.9       1.3
 4 H  px              0.3       0.8       0.0       0.1       1.9       0.0
 4 H  py              0.6       0.0       0.0       0.0       0.7       0.0
 5 H  s               0.3       0.8      16.5       2.6       0.0       2.9
 5 H  pz              0.0       0.0       0.0       0.0       0.6       0.0
 5 H  px              0.2       0.2       0.0       0.2       0.0       0.0
 5 H  py              0.7       0.8       2.3       0.2       0.0       0.4
 6 H  s               2.9       3.8      19.0       1.7       0.0      15.0
 6 H  pz              0.0       0.0       0.0       0.0       0.2       0.0
 6 H  px              0.0       0.1       0.0       0.6       0.0       0.6
 6 H  py              0.9       0.9       3.5       0.3       0.0       4.6

                     30        31        32        33        34        35   
                   0.62785   0.62925   0.65896   0.72390   0.72831   0.82951
                   0.00000   0.00000   0.00000   0.00000   0.00000   0.00000
                  --------  --------  --------  --------  --------  --------
 0 C  s               5.9       0.0      10.1       0.0       5.7       0.0
 0 C  pz              0.0       1.3       0.0       1.9       0.0       4.5
 0 C  px              0.2       0.0       2.9       0.0       1.7       0.0
 0 C  py              9.2       0.0       2.2       0.0       0.5       0.0
 0 C  dz2             3.8       0.0       1.2       0.0       1.9       0.0
 0 C  dxz             0.0       0.0       0.0      16.7       0.0       0.2
 0 C  dyz             0.0       0.2       0.0      27.8       0.0       7.2
 0 C  dx2y2           0.2       0.0       0.1       0.0       0.2       0.0
 0 C  dxy             3.9       0.0       0.9       0.0       0.5       0.0
 0 C  f+1             0.3       0.0       2.2       0.0       0.1       0.0
 0 C  f-1             1.9       0.0       1.1       0.0       0.1       0.0
 0 C  f+2             0.0       0.1       0.0       0.0       0.0       1.3
 0 C  f-2             0.0       0.0       0.0       0.1       0.0       1.1
 0 C  f+3             0.2       0.0       0.4       0.0       0.0       0.0
 0 C  f-3             1.0       0.0       0.7       0.0       0.0       0.0
 1 C  s               2.3       0.0       1.8       0.0       0.1       0.0
 1 C  pz              0.0       3.9       0.0       1.3       0.0       4.9
 1 C  px              2.5       0.0      11.7       0.0       3.5       0.0
 1 C  py              5.3       0.0       2.3       0.0      11.6       0.0
 1 C  dz2             3.0       0.0       0.4       0.0       1.5       0.0
 1 C  dxz             0.0       0.3       0.0      19.9       0.0       5.6
 1 C  dyz             0.0       1.7       0.0      13.8       0.0      46.8
 1 C  dx2y2           1.6       0.0       0.5       0.0       0.4       0.0
 1 C  dxy             3.4       0.0       6.7       0.0       0.2       0.0
 1 C  f0              0.0       0.2       0.0       0.1       0.0       0.6
 1 C  f+1             0.2       0.0       0.1       0.0       0.1       0.0
 1 C  f-1             0.0       0.0       0.1       0.0       0.1       0.0
 1 C  f+2             0.0       0.1       0.0       0.1       0.0       0.6
 1 C  f-2             0.0       0.4       0.0       0.3       0.0       0.6
 1 C  f+3             0.0       0.0       0.1       0.0       0.7       0.0
 1 C  f-3             0.2       0.0       0.7       0.0       0.0       0.0
 2 O  s               1.2       0.0       1.9       0.0       0.9       0.0
 2 O  pz              0.0      88.0       0.0       0.5       0.0       5.0
 2 O  px              5.1       0.0       3.3       0.0      13.1       0.0
 2 O  py              1.1       0.0       2.4       0.0      48.4       0.0
 2 O  dz2             0.3       0.0       2.5       0.0       0.6       0.0
 2 O  dxz             0.0       0.7       0.0       0.0       0.0       7.3
 2 O  dyz             0.0       0.4       0.0       2.4       0.0       0.1
 2 O  dx2y2           0.8       0.0       0.2       0.0       3.0       0.0
 2 O  dxy             1.8       0.0       1.7       0.0       0.8       0.0
 2 O  f+2             0.0       0.0       0.0       0.0       0.0       0.1
 3 H  s               2.4       0.9      13.1       0.2       0.4       2.3
 3 H  pz              0.0       0.0       4.7       0.3       0.0       0.5
 3 H  px              0.3       0.2       0.8       0.8       0.2       1.9
 3 H  py              0.8       0.0       0.1       3.4       0.0       0.0
 4 H  s               2.4       0.9      13.1       0.2       0.4       2.3
 4 H  pz              0.0       0.0       4.7       0.3       0.0       0.5
 4 H  px              0.3       0.2       0.8       0.8       0.2       1.9
 4 H  py              0.9       0.0       0.1       3.4       0.0       0.0
 5 H  s              23.8       0.0       2.4       0.0       0.5       0.0
 5 H  pz              0.0       0.0       0.0       3.3       0.0       0.0
 5 H  px              0.4       0.0       0.0       0.0       0.1       0.0
 5 H  py              9.7       0.0       0.2       0.0       0.2       0.0
 6 H  s               1.7       0.0       0.3       0.0       2.1       0.0
 6 H  pz              0.0       0.3       0.0       2.4       0.0       4.5
 6 H  px              0.8       0.0       1.2       0.0       0.3       0.0
 6 H  py              0.7       0.0       0.0       0.0       0.0       0.0

                     36        37        38        39        40        41   
                   0.85700   0.88997   1.01022   1.07284   1.09143   1.12689
                   0.00000   0.00000   0.00000   0.00000   0.00000   0.00000
                  --------  --------  --------  --------  --------  --------
 0 C  s               0.5       0.1       2.5       0.6       0.0       0.0
 0 C  pz              0.0       0.0       0.0       0.0       7.2       3.4
 0 C  px              0.6       0.2       8.3       0.2       0.0       0.0
 0 C  py              4.0       2.5       3.3       2.0       0.0       0.0
 0 C  dz2            10.7       2.7       2.5       8.6       0.0       0.0
 0 C  dxz             0.0       0.0       0.0       0.0      16.9      17.6
 0 C  dyz             0.0       0.0       0.0       0.0      14.3       2.6
 0 C  dx2y2           0.4       2.7      11.8      19.1       0.0       0.0
 0 C  dxy             4.5      14.1      11.6       3.9       0.0       0.0
 0 C  f0              0.0       0.0       0.0       0.0       0.1       1.8
 0 C  f+1             0.7       0.0       0.0       1.4       0.0       0.0
 0 C  f-1             0.0       0.1       0.9       0.0       0.0       0.0
 0 C  f+2             0.0       0.0       0.0       0.0       0.0       0.6
 0 C  f-2             0.0       0.0       0.0       0.0       0.9       3.1
 0 C  f+3             0.2       0.5       0.0       1.1       0.0       0.0
 0 C  f-3             0.7       0.0       0.0       1.0       0.0       0.0
 1 C  s               1.4       2.4       8.0       1.8       0.0       0.0
 1 C  pz              0.0       0.0       0.0       0.0       0.6       3.7
 1 C  px              1.9       1.3       6.1       2.0       0.0       0.0
 1 C  py              3.4       2.3       2.0       5.3       0.0       0.0
 1 C  dz2             9.8       0.6      11.8       1.9       0.0       0.0
 1 C  dxz             0.0       0.0       0.0       0.0       5.7      38.2
 1 C  dyz             0.0       0.0       0.0       0.0       5.0       0.9
 1 C  dx2y2           1.8       1.6       1.6       0.8       0.0       0.0
 1 C  dxy             0.1       1.0       8.9       0.5       0.0       0.0
 1 C  f0              0.0       0.0       0.0       0.0       0.5       0.5
 1 C  f+1             0.4       0.1       0.1       1.3       0.0       0.0
 1 C  f-1             0.7       1.0       0.1       0.3       0.0       0.0
 1 C  f+2             0.0       0.0       0.0       0.0       0.5       1.2
 1 C  f-2             0.0       0.0       0.0       0.0       0.2       4.0
 1 C  f+3             0.4       0.4       1.0       0.2       0.0       0.0
 1 C  f-3             2.0       0.1       0.2       1.8       0.0       0.0
 2 O  s              29.6      43.6       2.3       2.7       0.0       0.0
 2 O  pz              0.0       0.0       0.0       0.0       1.4       1.5
 2 O  px              2.6       1.5       1.3       4.2       0.0       0.0
 2 O  py              0.5       0.9       1.9       3.5       0.0       0.0
 2 O  dz2             0.1       2.6       1.9       0.6       0.0       0.0
 2 O  dxz             0.0       0.0       0.0       0.0       2.9       0.0
 2 O  dyz             0.0       0.0       0.0       0.0       0.6      10.1
 2 O  dx2y2           0.4       2.2       0.9       1.0       0.0       0.0
 2 O  dxy             4.9       1.3       0.0       1.5       0.0       0.0
 2 O  f+2             0.0       0.0       0.0       0.0       0.0       0.1
 2 O  f-3             0.1       0.0       0.0       0.1       0.0       0.0
 3 H  s               0.7       0.0       0.2       2.2      10.4       0.6
 3 H  pz              0.0       0.6       0.4       1.1       6.0       0.6
 3 H  px              0.8       0.9       0.5       0.1       1.3       1.9
 3 H  py              0.1       0.1       0.1       1.6       0.1       2.1
 4 H  s               0.7       0.0       0.2       2.3      10.3       0.6
 4 H  pz              0.0       0.6       0.4       1.1       6.0       0.6
 4 H  px              0.8       0.9       0.5       0.1       1.3       1.9
 4 H  py              0.1       0.1       0.1       1.6       0.1       2.1
 5 H  s               2.0       0.4       1.8      12.4       0.0       0.0
 5 H  pz              0.0       0.0       0.0       0.0       3.9       0.4
 5 H  px              1.7       4.5       1.3       1.3       0.0       0.0
 5 H  py              1.0       0.3       2.4       7.2       0.0       0.0
 6 H  s               5.4       2.7       0.6       0.8       0.0       0.0
 6 H  pz              0.0       0.0       0.0       0.0       3.5       0.0
 6 H  px              0.9       0.4       2.2       0.2       0.0       0.0
 6 H  py              3.4       2.6       0.1       0.3       0.0       0.0

                     42        43        44        45        46        47   
                   1.13130   1.20694   1.33686   1.49758   1.51734   1.56925
                   0.00000   0.00000   0.00000   0.00000   0.00000   0.00000
                  --------  --------  --------  --------  --------  --------
 0 C  s               1.5       3.4       0.9      10.1       0.0       0.0
 0 C  pz              0.0       0.0       0.0       0.0       0.1      35.7
 0 C  px             10.4       5.6       0.3       0.8       0.0       0.0
 0 C  py              1.5       4.2       0.9       0.5       0.0       0.0
 0 C  dz2            11.0       1.5       2.3       0.4       0.0       0.0
 0 C  dxz             0.0       0.0       0.0       0.0       0.1       0.5
 0 C  dyz             0.0       0.0       0.0       0.0       0.3       0.1
 0 C  dx2y2           2.6       3.1       1.4       0.4       0.0       0.0
 0 C  dxy             0.4       6.6       1.7       1.2       0.0       0.0
 0 C  f0              0.0       0.0       0.0       0.0       0.2       0.4
 0 C  f+1             1.0       0.4       0.3       0.3       0.0       0.0
 0 C  f-1             0.0       0.4       0.5       0.0       0.0       0.0
 0 C  f+2             0.0       0.0       0.0       0.0       0.6       0.1
 0 C  f-2             0.0       0.0       0.0       0.0       0.0       2.9
 0 C  f+3             0.5       0.7       1.7       1.5       0.0       0.0
 0 C  f-3             0.1       4.9       2.1       2.4       0.0       0.0
 1 C  s               4.9       3.4       6.7      45.0       0.0       0.0
 1 C  pz              0.0       0.0       0.0       0.0      68.9      11.4
 1 C  px              1.0      19.6       1.8       1.6       0.0       0.0
 1 C  py              1.2       0.6       1.8       3.2       0.0       0.0
 1 C  dz2            16.2       0.0       7.4       0.4       0.0       0.0
 1 C  dxz             0.0       0.0       0.0       0.0       0.2       0.7
 1 C  dyz             0.0       0.0       0.0       0.0       0.2       0.4
 1 C  dx2y2           7.0       6.4      14.3       1.4       0.0       0.0
 1 C  dxy             0.3      10.2       4.9       0.2       0.0       0.0
 1 C  f0              0.0       0.0       0.0       0.0       0.3       1.1
 1 C  f+1             1.0       2.9       0.5       0.0       0.0       0.0
 1 C  f-1             0.1       0.0       1.0       0.0       0.0       0.0
 1 C  f+2             0.0       0.0       0.0       0.0       2.8       3.4
 1 C  f+3             0.0       0.2       1.4       0.5       0.0       0.0
 1 C  f-3             2.5       0.7       1.3       9.3       0.0       0.0
 2 O  s               0.3       1.4       4.9       2.7       0.0       0.0
 2 O  pz              0.0       0.0       0.0       0.0       0.6       0.3
 2 O  px              3.6       4.7       1.1       1.1       0.0       0.0
 2 O  py              0.3       0.2       4.6       2.1       0.0       0.0
 2 O  dz2             5.7       0.6       0.1       1.5       0.0       0.0
 2 O  dxz             0.0       0.0       0.0       0.0       7.5       3.2
 2 O  dyz             0.0       0.0       0.0       0.0       5.0      15.1
 2 O  dx2y2           1.0       2.9       2.2       3.4       0.0       0.0
 2 O  dxy             1.3       0.7       7.4       2.0       0.0       0.0
 2 O  f+1             0.2       0.0       0.1       0.4       0.0       0.0
 2 O  f-1             0.1       0.0       0.0       0.2       0.0       0.0
 2 O  f-3             0.0       0.2       0.3       0.8       0.0       0.0
 3 H  s               1.6       0.7       0.8       0.2       0.1       1.8
 3 H  pz              0.2       0.2       0.0       0.0       0.7       1.3
 3 H  px              3.5       0.0       0.2       0.2       1.0       2.8
 3 H  py              0.5       0.7       1.8       1.7       0.2       2.1
 4 H  s               1.7       0.7       0.8       0.2       0.1       1.9
 4 H  pz              0.2       0.2       0.0       0.0       0.7       1.3
 4 H  px              3.5       0.0       0.2       0.2       1.0       2.8
 4 H  py              0.6       0.7       1.8       1.7       0.2       2.2
 5 H  s               0.7       2.4       0.8       0.2       0.0       0.0
 5 H  pz              0.0       0.0       0.0       0.0       1.1       0.2
 5 H  px              0.5       0.2       3.6       0.5       0.0       0.0
 5 H  py              0.7       0.4       0.7       0.0       0.0       0.0
 6 H  s               6.3       2.7       5.1       0.8       0.0       0.0
 6 H  pz              0.0       0.0       0.0       0.0       8.0       8.0
 6 H  px              0.0       5.3       8.4       0.6       0.0       0.0
 6 H  py              4.6       0.3       2.0       0.0       0.0       0.0

                     48        49        50        51        52        53   
                   1.56938   1.59477   1.61707   1.67676   1.69684   1.71220
                   0.00000   0.00000   0.00000   0.00000   0.00000   0.00000
                  --------  --------  --------  --------  --------  --------
 0 C  s               9.8      40.7       0.0       0.5       0.0       0.7
 0 C  pz              0.0       0.0       1.9       0.0       9.7       0.0
 0 C  px              0.6      19.9       0.0       0.2       0.0       1.0
 0 C  py             10.8       1.4       0.0      32.8       0.0       5.6
 0 C  dz2             0.0       0.3       0.0       0.0       0.0       0.1
 0 C  dxz             0.0       0.0       0.1       0.0       0.3       0.0
 0 C  dx2y2           0.3       0.1       0.0       1.6       0.0       0.2
 0 C  dxy             0.4       0.1       0.0       0.0       0.0       0.0
[...]
                   5.28276   5.28838   5.65444   5.74772   6.19675   6.41779
                   0.00000   0.00000   0.00000   0.00000   0.00000   0.00000
                  --------  --------  --------  --------  --------  --------
 0 C  s               0.0       0.0       0.0       0.3       0.0       0.0
 0 C  px              0.0       0.0       0.0       0.3       0.0       0.0
 0 C  py              0.0       0.0       0.0       0.2       0.0       0.1
 0 C  dz2             0.0       0.0       0.0       0.2       0.0       0.0
 0 C  dxz             0.1       0.0       0.6       0.0       0.0       0.0
 0 C  dyz             0.0       0.0       0.1       0.0       0.1       0.0
 0 C  dx2y2           0.0       0.1       0.0       0.4       0.0       0.0
 0 C  dxy             0.0       0.0       0.0       0.4       0.0       0.1
 0 C  f+2             0.1       0.0       0.0       0.0       0.3       0.0
 0 C  f-2             0.0       0.0       0.9       0.0       0.0       0.0
 0 C  f+3             0.0       0.0       0.0       0.0       0.0       0.1
 0 C  f-3             0.0       0.1       0.0       0.2       0.0       0.1
 1 C  s               0.0       0.0       0.0       1.0       0.0       4.9
 1 C  pz              0.1       0.0       0.1       0.0       1.1       0.0
 1 C  px              0.0       0.0       0.0       0.6       0.0       3.4
 1 C  py              0.0       0.2       0.0       0.4       0.0       1.5
 1 C  dz2             0.0       0.0       0.0       0.0       0.0       1.7
 1 C  dxz             0.0       0.0       0.1       0.0       5.7       0.0
 1 C  dyz             0.0       0.0       0.4       0.0       2.1       0.0
 1 C  dx2y2           0.0       0.1       0.0       0.1       0.0       0.7
 1 C  dxy             0.0       0.0       0.0       0.2       0.0       4.4
 1 C  f0              0.8       0.0       0.1       0.0       1.8       0.0
 1 C  f+1             0.0       0.4       0.0       2.7       0.0       0.0
 1 C  f-1             0.0       0.8       0.0       1.5       0.0       0.0
 1 C  f+2             0.1       0.0       6.6       0.0       1.2       0.0
 1 C  f-2             0.4       0.0       1.5       0.0       2.2       0.0
 1 C  f+3             0.0       0.1       0.0       0.1       0.0       0.3
 1 C  f-3             0.0       0.0       0.0       6.5       0.0       0.1
 2 O  s               0.0       0.0       0.0       0.3       0.0       4.5
 2 O  pz              0.0       0.0       0.0       0.0       2.3       0.0
 2 O  px              0.0       0.0       0.0       0.2       0.0       4.8
 2 O  py              0.0       0.0       0.0       0.0       0.0       1.2
 2 O  dz2             0.0       0.0       0.0       2.9       0.0       3.1
 2 O  dxz             0.0       0.0       1.7       0.0      21.5       0.0
 2 O  dyz             0.0       0.0       1.6       0.0       9.7       0.0
 2 O  dx2y2           0.0       0.0       0.0       0.1       0.0       7.4
 2 O  dxy             0.0       0.0       0.0       0.4       0.0      13.2
 2 O  f0             61.8       0.0       0.0       0.0      19.1       0.0
 2 O  f+1             0.0      24.8       0.0      35.7       0.0      12.4
 2 O  f-1             0.0      67.4       0.0      11.5       0.0       4.7
 2 O  f+2             5.1       0.0      74.4       0.0       3.7       0.0
 2 O  f-2            31.2       0.0      11.6       0.0      29.1       0.0
 2 O  f+3             0.0       5.1       0.0       1.6       0.0       0.0
 2 O  f-3             0.0       0.0       0.0      30.9       0.0      31.1
 6 H  s               0.0       0.3       0.0       1.1       0.0       0.1
 6 H  pz              0.1       0.0       0.1       0.0       0.0       0.0
 6 H  px              0.0       0.0       0.0       0.2       0.0       0.0

                    108       109       110       111       112       113   
                   6.44220   6.46692   6.53963   6.88478   7.01006   7.14314
                   0.00000   0.00000   0.00000   0.00000   0.00000   0.00000
                  --------  --------  --------  --------  --------  --------
 0 C  s               0.0       0.1       0.6       0.0       0.0       0.0
 0 C  pz              0.1       0.0       0.0       0.0       0.0       0.0
 0 C  px              0.0       0.1       0.3       0.0       0.0       0.0
 0 C  py              0.0       0.1       0.1       0.0       0.1       0.0
 0 C  dx2y2           0.0       0.6       0.0       0.0       0.0       0.0
 0 C  dxy             0.0       0.3       0.1       0.0       0.1       0.0
 0 C  f+3             0.0       0.7       0.1       0.0       0.0       0.0
 0 C  f-3             0.0       0.0       0.0       0.0       0.1       0.0
 1 C  s               0.0       0.1       0.8       0.0       0.1       3.6
 1 C  pz              0.0       0.0       0.0       1.7       0.0       0.0
 1 C  px              0.0       0.4       0.9       0.0       0.5       1.6
 1 C  py              0.0       0.2       0.0       0.0       1.1       0.7
 1 C  dz2             0.0       0.0       0.3       0.0       0.0       0.2
 1 C  dxz             0.1       0.0       0.0       1.8       0.0       0.0
 1 C  dyz             0.2       0.0       0.0       0.8       0.0       0.0
 1 C  dx2y2           0.0       5.4       1.3       0.0       2.7       0.1
 1 C  dxy             0.0       1.3       0.3       0.0       0.6       0.3
 1 C  f0              0.0       0.0       0.0       0.1       0.0       0.0
 1 C  f+1             0.0       0.4       0.0       0.0       0.0       0.3
 1 C  f-1             0.0       0.0       0.1       0.0       0.0       0.2
 1 C  f+2             0.1       0.0       0.0       0.0       0.0       0.0
 1 C  f-2             0.0       0.0       0.0       0.2       0.0       0.0
 1 C  f+3             0.0       7.7       2.1       0.0       0.1       0.0
 1 C  f-3             0.0       0.1       0.0       0.0       0.0       1.5
 2 O  s               0.0       0.0       0.3       0.0       0.0       2.0
 2 O  pz              0.0       0.0       0.0       1.9       0.0       0.0
 2 O  px              0.0       0.4       0.0       0.0       0.9       2.2
 2 O  py              0.0       1.5       0.6       0.0       1.6       0.9
 2 O  dz2             0.0      14.7      58.4       0.0       0.4      17.5
 2 O  dxz            26.9       0.0       0.0      51.5       0.0       0.0
 2 O  dyz            69.7       0.0       0.0      19.5       0.0       0.0
 2 O  dx2y2           0.0       7.8      18.4       0.0      54.5      10.4
 2 O  dxy             0.0      17.4       4.3       0.0      16.1      44.6
 2 O  f0              0.0       0.0       0.0       8.3       0.0       0.0
 2 O  f+1             0.0       0.1       0.6       0.0       0.6       4.2
 2 O  f-1             0.0       3.8       0.1       0.0       0.6       1.7
 2 O  f+2             2.0       0.0       0.0       2.7       0.0       0.0
 2 O  f-2             0.6       0.0       0.0      11.4       0.0       0.0
 2 O  f+3             0.0      35.0       8.9       0.0      19.2       0.2
 2 O  f-3             0.0       1.4       1.0       0.0       0.3       7.8
 6 H  s               0.0       0.1       0.2       0.0       0.1       0.0
 6 H  px              0.0       0.1       0.2       0.0       0.0       0.0

                    114       115       116   
                  22.35610  22.77612  43.76003
                   0.00000   0.00000   0.00000
                  --------  --------  --------
 0 C  s              97.3       1.4       0.0
 1 C  s               1.4      96.0       0.0
 1 C  px              0.1       0.2       0.0
 1 C  dz2             0.0       0.1       0.0
 2 O  s               0.0       0.9      99.9
 2 O  px              0.0       0.4       0.0
 2 O  py              0.0       0.2       0.0
 3 H  s               0.2       0.0       0.0
 4 H  s               0.2       0.0       0.0
 5 H  s               0.2       0.0       0.0
 5 H  py              0.1       0.0       0.0
 6 H  s               0.0       0.2       0.0
 6 H  py              0.0       0.1       0.0


                      *****************************
                      * MAYER POPULATION ANALYSIS *
                      *****************************

  NA   - Mulliken gross atomic population
  ZA   - Total nuclear charge
  QA   - Mulliken gross atomic charge
  VA   - Mayer's total valence
  BVA  - Mayer's bonded valence
  FA   - Mayer's free valence

  ATOM       NA         ZA         QA         VA         BVA        FA
  0 C      6.2803     6.0000    -0.2803     3.7116     3.7116    -0.0000
  1 C      5.8768     6.0000     0.1232     4.0802     4.0802    -0.0000
  2 O      8.2793     8.0000    -0.2793     2.1627     2.1627    -0.0000
  3 H      0.8755     1.0000     0.1245     0.9764     0.9764    -0.0000
  4 H      0.8755     1.0000     0.1245     0.9764     0.9764    -0.0000
  5 H      0.8758     1.0000     0.1242     1.0001     1.0001    -0.0000
  6 H      0.9368     1.0000     0.0632     0.9553     0.9553    -0.0000

  Mayer bond orders larger than 0.100000
B(  0-C ,  1-C ) :   0.9531 B(  0-C ,  3-H ) :   0.9511 B(  0-C ,  4-H ) :   0.9511 
B(  0-C ,  5-H ) :   0.9605 B(  1-C ,  2-O ) :   2.1388 B(  1-C ,  6-H ) :   0.9626 


-------
TIMINGS
-------

Total SCF time: 0 days 0 hours 0 min 8 sec 

Total time                  ....       8.819 sec
Sum of individual times     ....       8.537 sec  ( 96.8%)

SCF preparation             ....       0.035 sec  (  0.4%)
Fock matrix formation       ....       8.383 sec  ( 95.1%)
  Startup                   ....       0.001 sec  (  0.0% of F)
  Split-RI-J                ....       0.255 sec  (  3.0% of F)
  Chain of spheres X        ....       6.980 sec  ( 83.3% of F)
  XC integration            ....       1.407 sec  ( 16.8% of F)
    XC Preparation          ....       0.000 sec  (  0.0% of XC)
    Basis function eval.    ....       0.405 sec  ( 28.8% of XC)
    Density eval.           ....       0.227 sec  ( 16.1% of XC)
    XC-Functional eval.     ....       0.432 sec  ( 30.7% of XC)
    XC-Potential eval.      ....       0.307 sec  ( 21.8% of XC)
Diagonalization             ....       0.000 sec  (  0.0%)
Density matrix formation    ....       0.016 sec  (  0.2%)
Total Energy calculation    ....       0.001 sec  (  0.0%)
Population analysis         ....       0.031 sec  (  0.3%)
Orbital Transformation      ....       0.018 sec  (  0.2%)
Orbital Orthonormalization  ....       0.000 sec  (  0.0%)
DIIS solution               ....       0.018 sec  (  0.2%)
  MO trafo                  ....       0.000 sec  (  0.0 % of DIIS)
  Orb grad                  ....       0.000 sec  (  0.0 % of DIIS)
  Energy W gradient         ....       0.000 sec  (  0.0 % of DIIS)
  DIIS error                ....       0.001 sec  (  5.1 % of DIIS)
  DIIS work                 ....       0.008 sec  ( 43.9 % of DIIS)
  Form Q                    ....       0.000 sec  (  0.0 % of DIIS)
  Form QpQm                 ....       0.000 sec  (  0.0 % of DIIS)
  Exp/Cayley                ....       0.000 sec  (  0.0 % of DIIS)
  Orb update                ....       0.000 sec  (  0.0 % of DIIS)
  Wake-sleep                ....       0.000 sec  (  1.0 % of DIIS)
SOSCF solution              ....       0.010 sec  (  0.1%)
  MO trafo                  ....       0.008 sec  ( 77.5 % of SOSCF)
  Orb grad                  ....       0.000 sec  (  0.7 % of SOSCF)
  Rot update                ....       0.000 sec  (  3.0 % of SOSCF)
  Step                      ....       0.002 sec  ( 18.5 % of SOSCF)
Grid generation             ....       0.026 sec  (  0.3%)
Finished LeanSCF after   8.8 sec

Maximum memory used throughout the entire LEANSCF-calculation: 11.8 MB
------------------   -----------------
gCP correction             0.003955974
------------------   -----------------

-------------------------   --------------------
FINAL SINGLE POINT ENERGY      -153.837715958692
-------------------------   --------------------


------------------------------------------------------------------------------
                              ORCA PROPERTY CALCULATIONS
------------------------------------------------------------------------------

GBWName                                 ... sp.gbw
Number of atoms                         ...      7
Number of basis functions               ...    117
Max core memory                         ...   1024 MB

Electric properties:
Dipole moment                           ... YES
Quadrupole moment                       ...  NO
Static polarizability (Dipole/Dipole)   ...  NO
Static polarizability (Dipole/Quad.)    ...  NO
Static polarizability (Quad./Quad.)     ...  NO
Static polarizability (Velocity)        ...  NO

Atomic electric properties:
Dipole moment                           ...  NO
Quadrupole moment                       ...  NO
Static polarizability                   ...  NO

Choice of electric origin               ... Center of mass
Position of electric origin             ...     0.001520    -0.002918     0.000075

General magnetic properties:
Magnetizability                         ...  NO

EPR properties:
g-Tensor (aka g-matrix)                 ...  NO
Zero-Field splitting spin-orbit         ...  NO
Zero-field splitting spin-spin          ...  NO
Hyperfine couplings                     ...  NO (   0 nuclei)
Quadrupole couplings                    ...  NO (   0 nuclei)
Contact density                         ...  NO (   0 nuclei)

NMR properties:
Chemical shifts                         ...  NO (   0 nuclei)
Spin-rotation constants                 ...  NO (   0 nuclei)
Spin-spin couplings                     ...  NO (   0 nuclei,    0 pairs)

Choice of magnetic origin               ... GIAO
Position of magnetic origin             ...     0.000000     0.000000     0.000000

Properties with geometric perturbations:
SCF Hessian                             ...  NO
IR spectrum                             ...  NO
VCD spectrum                            ...  NO
X-ray spectroscopy properties:
SCF XES/XAS/RIXS spectra                ...  NO


-------------
DIPOLE MOMENT
-------------

Method             : SCF
Type of density    : Electron Density
Multiplicity       :   1
Irrep              :   0
Energy             :  -153.8416719324919768 Eh
Relativity type    : 
Basis              : AO
                                X                 Y                 Z
Electronic contribution:      3.319543797      -0.187462552       0.000325424
Nuclear contribution   :     -4.362367251       0.623893801      -0.000395336
                        -----------------------------------------
Total Dipole Moment    :     -1.042823454       0.436431248      -0.000069912
                        -----------------------------------------
Magnitude (a.u.)       :      1.130465831
Magnitude (Debye)      :      2.873415789



--------------------
Rotational spectrum 
--------------------
 
Rotational constants in cm-1:             1.900859             0.338609             0.303500 
Rotational constants in MHz :         56986.305208         10151.242497          9098.712286 

Dipole components along the rotational axes: 
x,y,z [a.u.] :     1.042676     0.436784    -0.000036 
x,y,z [Debye]:     2.650271     1.110218    -0.000091 

 

Dipole moment calculation done in   0.0 sec 

Maximum memory used throughout the entire PROP-calculation: 7.0 MB

--------------------------------
SUGGESTED CITATIONS FOR THIS RUN
--------------------------------

Below you find a list of papers that are relevant to this ORCA run
We neither can nor want to force you to cite these papers, but we appreciate if you do
You receive ORCA, which is the product of decades of hard work by many enthusiastic individuals, for free
The only thing we kindly ask in return is that you cite our papers,
We deeply appreciate it, if you show your appreciation for ORCA by not just citing the generic ORCA reference.

Please note that relegating all ORCA citations to the supporting information does *not* help us.
SI sections are not indexed - citations you put there will not count into any citation statistics
But we need these citations in order to attract the funding resources that allow us to do what we are doing

Therefore, if you are a happy ORCA user, please consider citing a few of the papers listed below in the main body of your paper

In addition to the list printed below, the program has created the file sp.bibtex that contains the list in bibtex format
You can import this file easily into all common literature databanks and citation aid programs


List of essential papers. We consider these as the minimum necessary citations

  1. Neese,F.
     Software update: the ORCA program system, version 5.0
     WIRES Comput. Molec. Sci., 2022 12(1)e1606
     doi.org/10.1002/wcms.1606

List of papers to cite with high priority. The work reported in these papers was absolutely
necessary for this run to complete.
Our perspective: the developers of density functionals and basis sets usually get cited in chemistry papers
Good! But without the algorithms to do something with them, the functionals or basis sets would not do anything.
Hence, in our opinion, the algorithm design and method developments papers are equally worthy of getting cited

  1. Neese,F.
     An improvement of the resolution of the identity approximation for the formation of the Coulomb matrix
     J. Comp. Chem., 2003 24(14)1740-1747
     doi.org/10.1002/jcc.10318
  2. Neese,F.; Wennmohs,F.; Hansen,A.; Becker,U.
     Efficient, approximate and parallel Hartree-Fock and hybrid DFT calculations. A 'chain-of-spheres' algorithm for the Hartree-Fock exchange
     Chem. Phys., 2009 356(1-3)98-109
     doi.org/10.1016/j.chemphys.2008.10.036
  3. Helmich-Paris,B.; de Souza,B.; Neese,F.; Izsák,R.
     An improved chain of spheres for exchange algorithm
     J. Chem. Phys., 2021 155 104109
     doi.org/doi: 10.1063/5.0058766.
  4. Neese,F.
     The SHARK Integral Generation and Digestion System
     J. Comp. Chem., 2022  1-16
     doi.org/10.1002/jcc.26942

List of suggested additional citations. These are papers that are important in the 'surrounding' of 
of this run, or papers that preceded the highly important papers. If you like your results we are grateful for a citation.

  1. Izsak,R.; Neese,F.
     An overlap fitted chain of spheres exchange method
     J. Chem. Phys., 2011 135 144105
     doi.org/10.1063/1.3646921
  2. Izsak,R.; Hansen,A.; Neese,F.
     The resolution of identity and chain of spheres approximations for the LPNO-CCSD singles Fock term
     Molec. Phys., 2012 110 2413-2417
     doi.org/10.1080/00268976.2012.687466
  3. Neese,F.
     The ORCA program system
     WIRES Comput. Molec. Sci., 2012 2(1)73-78
     doi.org/10.1002/wcms.81
  4. Izsak,R.; Neese,F.; Klopper,W.
     Robust fitting techniques in the chain of spheres approximation to the Fock exchange: The role of the complementary space
     J. Chem. Phys., 2013 139 
     doi.org/10.1063/1.4819264
  5. Neese,F.
     Software update: the ORCA program system, version 4.0
     WIRES Comput. Molec. Sci., 2018 8(1)1-6
     doi.org/10.1002/wcms.1327
  6. Neese,F.; Wennmohs,F.; Becker,U.; Riplinger,C.
     The ORCA quantum chemistry program package
     J. Chem. Phys., 2020 152 Art. No. L224108
     doi.org/10.1063/5.0004608

List of optional additional citations

  1. Neese,F.
     Approximate second-order SCF convergence for spin unrestricted wavefunctions
     Chem. Phys. Lett., 2000 325(1-3)93-98
     doi.org/10.1016/s0009-2614(00)00662-x

Timings for individual modules:

Sum of individual times          ...        9.174 sec (=   0.153 min)
Startup calculation              ...        0.267 sec (=   0.004 min)   2.9 %
SCF iterations                   ...        8.875 sec (=   0.148 min)  96.7 %
Property calculations            ...        0.032 sec (=   0.001 min)   0.3 %
                             ****ORCA TERMINATED NORMALLY****
TOTAL RUN TIME: 0 days 0 hours 0 minutes 9 seconds 214 msec
