 Entering Gaussian System
 *********************************************
 Gaussian 98:
 frequency output generated by the xtb code
 *********************************************
                         Standard orientation:
 --------------------------------------------------------------------
  Center     Atomic     Atomic              Coordinates (Angstroms)
  Number     Number      Type              X           Y           Z
 --------------------------------------------------------------------
    1          6             0       -2.469714    0.104049    0.403770
    2          6             0       -1.229674    0.680811   -0.263925
    3          6             0        0.032559    0.001077    0.215025
    4          8             0        0.089323   -0.932122    0.968762
    5          8             0        1.116061    0.582542   -0.323811
    6          6             0        2.371803    0.027616    0.043023
    7          1             0       -2.541121   -0.962003    0.205510
    8          1             0       -2.417124    0.242278    1.480417
    9          1             0       -3.364191    0.594248    0.028639
   10          1             0       -1.133710    1.749384   -0.062142
   11          1             0       -1.279282    0.558090   -1.348208
   12          1             0        2.505672    0.075329    1.125585
   13          1             0        3.127034    0.623332   -0.462786
   14          1             0        2.431629   -1.016170   -0.271833
 --------------------------------------------------------------------
     1 basis functions        1 primitive gaussians
     1 alpha electrons        1 beta electrons

 Harmonic frequencies (cm**-1), IR intensities (km*mol⁻¹),
 Raman scattering activities (A**4/amu), Raman depolarization ratios,
 reduced masses (AMU), force constants (mDyne/A) and normal coordinates:
                      1                      2                      3
                        a                      a                      a 
 Frequencies --     7.6391                54.3087               148.6153
 Red. masses --     2.1360                 1.0885                 1.5259
 Frc consts  --     0.0000                 0.0000                 0.0000
 IR Inten    --     0.0615                 0.1296                 2.9114
 Raman Activ --     0.0000                 0.0000                 0.0000
 Depolar     --     0.0000                 0.0000                 0.0000
 Atom AN      X      Y      Z        X      Y      Z        X      Y      Z
   1   6     0.04   0.30   0.32     0.01   0.03   0.04    -0.03  -0.08  -0.13
   2   6    -0.03  -0.23  -0.26    -0.00   0.01   0.01     0.01  -0.00   0.01
   3   6    -0.01  -0.12  -0.13    -0.00  -0.02  -0.03     0.01   0.12   0.17
   4   8    -0.01  -0.25  -0.29    -0.01  -0.15  -0.19     0.01   0.01   0.03
   5   8    -0.00   0.10   0.13     0.01   0.07   0.08     0.02   0.25   0.32
   6   6     0.01   0.16   0.18    -0.00   0.05   0.07    -0.01  -0.22  -0.29
   7   1     0.00   0.04   0.33     0.00   0.01   0.02     0.23  -0.10   0.27
   8   1     0.04   0.32   0.06     0.01   0.01   0.01    -0.23   0.31  -0.07
   9   1     0.00   0.01   0.01     0.00   0.01   0.01    -0.03  -0.31  -0.35
  10   1     0.04  -0.03  -0.28     0.01   0.00   0.00    -0.04   0.01  -0.04
  11   1    -0.08  -0.27  -0.05    -0.01   0.00   0.00     0.05  -0.05   0.01
  12   1    -0.05  -0.03   0.06     0.23   0.51  -0.03     0.12  -0.14  -0.10
  13   1     0.00   0.11   0.13    -0.02  -0.33  -0.41    -0.01  -0.10  -0.14
  14   1     0.06   0.07  -0.03    -0.21  -0.14   0.51    -0.13  -0.05  -0.15
                      4                      5                      6
                        a                      a                      a 
 Frequencies --   188.1314               200.8907               297.8506
 Red. masses --     2.8066                 1.7876                 4.2043
 Frc consts  --     0.0000                 0.0000                 0.0000
 IR Inten    --     2.1670                 5.5529                16.7147
 Raman Activ --     0.0000                 0.0000                 0.0000
 Depolar     --     0.0000                 0.0000                 0.0000
 Atom AN      X      Y      Z        X      Y      Z        X      Y      Z
   1   6    -0.26   0.31  -0.24     0.07  -0.08   0.04    -0.30   0.11  -0.06
   2   6     0.10  -0.16   0.04    -0.05  -0.19  -0.27    -0.07  -0.12   0.13
   3   6     0.02  -0.22   0.21     0.00   0.13   0.03     0.07   0.04  -0.03
   4   8     0.13  -0.26   0.22    -0.02   0.15   0.04     0.67   0.03  -0.09
   5   8    -0.13  -0.03   0.17     0.05   0.33   0.34    -0.02   0.17  -0.16
   6   6     0.13   0.26  -0.29    -0.05  -0.23  -0.13    -0.27  -0.21   0.19
   7   1    -0.24   0.11  -0.15    -0.18   0.03  -0.21    -0.16   0.04  -0.02
   8   1    -0.10   0.01  -0.06     0.25  -0.28   0.03    -0.15   0.04  -0.02
   9   1     0.02   0.26  -0.07     0.02   0.20   0.29    -0.03   0.10  -0.08
  10   1     0.09  -0.04  -0.02    -0.05  -0.03  -0.22    -0.01  -0.03   0.03
  11   1     0.08  -0.07   0.01    -0.02  -0.20  -0.06    -0.01  -0.03   0.03
  12   1     0.15   0.07  -0.10     0.08  -0.14  -0.05    -0.17  -0.08   0.07
  13   1    -0.06   0.14  -0.15     0.01  -0.13  -0.07     0.03  -0.14   0.12
  14   1     0.09   0.08  -0.11    -0.16  -0.06  -0.10    -0.16  -0.07   0.07
                      7                      8                      9
                        a                      a                      a 
 Frequencies --   431.7188               566.9196               646.0105
 Red. masses --     4.1296                 2.5835                 4.1610
 Frc consts  --     0.0000                 0.0000                 0.0000
 IR Inten    --     0.1357                11.2176                 3.4731
 Raman Activ --     0.0000                 0.0000                 0.0000
 Depolar     --     0.0000                 0.0000                 0.0000
 Atom AN      X      Y      Z        X      Y      Z        X      Y      Z
   1   6    -0.46  -0.06   0.10     0.02  -0.03  -0.04     0.01  -0.04   0.03
   2   6    -0.29  -0.10   0.11     0.05   0.07   0.12     0.30  -0.36   0.28
   3   6     0.06   0.15  -0.10     0.05   0.43   0.53     0.26  -0.04  -0.07
   4   8    -0.13   0.15  -0.14    -0.06  -0.19  -0.22    -0.47   0.02   0.04
   5   8     0.40  -0.08   0.02    -0.02  -0.16  -0.24     0.12   0.35  -0.26
   6   6     0.47  -0.06   0.02    -0.03   0.01   0.00    -0.13   0.05  -0.03
   7   1    -0.19  -0.01   0.02     0.03   0.01  -0.10    -0.14  -0.00   0.02
   8   1    -0.18  -0.01   0.03    -0.04  -0.09   0.00    -0.13   0.02   0.01
   9   1    -0.09   0.03  -0.02     0.01   0.01  -0.01     0.14   0.13  -0.13
  10   1    -0.15  -0.02   0.00    -0.14   0.10  -0.33     0.08  -0.10   0.09
  11   1    -0.13  -0.05   0.03     0.15  -0.37   0.07     0.07  -0.06   0.07
  12   1     0.15  -0.01   0.00    -0.07   0.03   0.01    -0.13  -0.00   0.00
  13   1     0.10   0.01  -0.01     0.00   0.02   0.03     0.09  -0.09   0.06
  14   1     0.16  -0.01  -0.00     0.05  -0.00   0.03    -0.13   0.00   0.01
                     10                     11                     12
                        a                      a                      a 
 Frequencies --   815.1146               876.1563              1007.9420
 Red. masses --     1.3711                 2.9204                 4.4697
 Frc consts  --     0.0000                 0.0000                 0.0000
 IR Inten    --    34.9048                25.4573                13.9258
 Raman Activ --     0.0000                 0.0000                 0.0000
 Depolar     --     0.0000                 0.0000                 0.0000
 Atom AN      X      Y      Z        X      Y      Z        X      Y      Z
   1   6     0.01   0.06   0.07    -0.19   0.05  -0.02    -0.31  -0.04   0.07
   2   6     0.03   0.21   0.24    -0.19   0.24  -0.19     0.15   0.11  -0.11
   3   6    -0.02  -0.25  -0.31     0.12  -0.21   0.18     0.40   0.02  -0.05
   4   8     0.01   0.07   0.09    -0.06  -0.35   0.29    -0.04   0.02  -0.01
   5   8    -0.00   0.04   0.07     0.16   0.33  -0.28     0.36  -0.24   0.17
   6   6    -0.01   0.00   0.00     0.14   0.04  -0.04    -0.53   0.15  -0.08
   7   1     0.26   0.05  -0.28     0.14  -0.00  -0.00     0.02  -0.02   0.04
   8   1    -0.30  -0.26   0.06     0.12  -0.03  -0.01     0.03  -0.03   0.02
   9   1    -0.01  -0.10  -0.12    -0.23  -0.18   0.18    -0.19  -0.12   0.14
  10   1     0.19   0.12  -0.37     0.01   0.06  -0.06     0.05   0.03  -0.04
  11   1    -0.22  -0.36   0.11    -0.01   0.05  -0.05     0.08   0.03  -0.03
  12   1     0.01  -0.00  -0.00    -0.12  -0.02   0.01    -0.01   0.04  -0.03
  13   1    -0.00  -0.00  -0.01     0.24  -0.16   0.11    -0.22   0.11  -0.08
  14   1    -0.01   0.00  -0.00    -0.12  -0.01   0.03    -0.01   0.04  -0.03
                     13                     14                     15
                        a                      a                      a 
 Frequencies --  1046.5738              1060.9796              1111.4084
 Red. masses --     1.5599                 1.4718                 2.9218
 Frc consts  --     0.0000                 0.0000                 0.0000
 IR Inten    --     4.5807                 5.4313                 5.5749
 Raman Activ --     0.0000                 0.0000                 0.0000
 Depolar     --     0.0000                 0.0000                 0.0000
 Atom AN      X      Y      Z        X      Y      Z        X      Y      Z
   1   6    -0.29   0.08  -0.04     0.01   0.14   0.17     0.23   0.32  -0.32
   2   6     0.25  -0.18   0.13    -0.01  -0.26  -0.29    -0.39  -0.31   0.32
   3   6    -0.19   0.05  -0.04     0.01   0.24   0.28    -0.02   0.00  -0.00
   4   8    -0.02   0.17  -0.13    -0.01  -0.04  -0.06    -0.03  -0.00   0.01
   5   8    -0.18   0.07  -0.04     0.02  -0.04  -0.04     0.28   0.01  -0.02
   6   6     0.17  -0.11   0.07    -0.02   0.01  -0.00    -0.17   0.01  -0.00
   7   1     0.20  -0.01   0.02     0.21   0.06  -0.21     0.29   0.06  -0.07
   8   1     0.19  -0.05  -0.01    -0.25  -0.19   0.08     0.27   0.03  -0.08
   9   1    -0.31  -0.23   0.24    -0.00  -0.09  -0.10    -0.10  -0.09   0.09
  10   1     0.40  -0.07   0.01     0.42  -0.14   0.17    -0.12  -0.08   0.09
  11   1     0.39  -0.06   0.02    -0.40   0.23  -0.08    -0.13  -0.08   0.09
  12   1     0.07  -0.00   0.01     0.00   0.00  -0.00     0.05   0.02  -0.01
  13   1    -0.02   0.03  -0.02    -0.01   0.01  -0.00    -0.11   0.06  -0.04
  14   1     0.07  -0.02  -0.00     0.00   0.00  -0.00     0.06   0.01  -0.01
                     16                     17                     18
                        a                      a                      a 
 Frequencies --  1123.7792              1143.9148              1159.8384
 Red. masses --     1.2907                 3.1587                 2.2101
 Frc consts  --     0.0000                 0.0000                 0.0000
 IR Inten    --     1.6734               231.7164               128.6818
 Raman Activ --     0.0000                 0.0000                 0.0000
 Depolar     --     0.0000                 0.0000                 0.0000
 Atom AN      X      Y      Z        X      Y      Z        X      Y      Z
   1   6     0.00   0.01  -0.01     0.03  -0.06   0.03    -0.03   0.11  -0.08
   2   6    -0.00   0.00   0.01     0.02  -0.02   0.03    -0.02  -0.10   0.07
   3   6     0.02   0.01   0.00    -0.59  -0.02   0.05     0.37   0.08  -0.09
   4   8    -0.00  -0.01  -0.01     0.07   0.04  -0.04    -0.02   0.13  -0.10
   5   8    -0.02  -0.14  -0.18     0.44  -0.16   0.10    -0.34  -0.30   0.27
   6   6     0.02   0.26   0.34    -0.12   0.29  -0.21     0.17   0.21  -0.18
   7   1     0.01   0.00  -0.00    -0.04  -0.01   0.01     0.10   0.02  -0.01
   8   1     0.01  -0.00  -0.00    -0.02   0.01   0.01     0.08  -0.01  -0.02
   9   1    -0.01  -0.00   0.00     0.05   0.03  -0.03    -0.09  -0.06   0.06
  10   1    -0.02   0.00  -0.00     0.17  -0.02  -0.01    -0.10  -0.02   0.04
  11   1     0.01  -0.01   0.00     0.16  -0.02   0.00    -0.10  -0.02   0.02
  12   1     0.47  -0.35   0.04    -0.18  -0.03  -0.02    -0.29  -0.05   0.00
  13   1    -0.01  -0.15  -0.19     0.29  -0.18   0.12     0.36  -0.20   0.15
  14   1    -0.49   0.14  -0.30    -0.19   0.02   0.04    -0.27  -0.00   0.08
                     19                     20                     21
                        a                      a                      a 
 Frequencies --  1217.3080              1316.7628              1387.3566
 Red. masses --     1.2322                 1.7613                 1.1513
 Frc consts  --     0.0000                 0.0000                 0.0000
 IR Inten    --     1.0348                44.1175                 7.5441
 Raman Activ --     0.0000                 0.0000                 0.0000
 Depolar     --     0.0000                 0.0000                 0.0000
 Atom AN      X      Y      Z        X      Y      Z        X      Y      Z
   1   6     0.03   0.24   0.27    -0.12   0.10  -0.07    -0.01   0.01  -0.00
   2   6    -0.03  -0.15  -0.17     0.59  -0.08   0.01     0.04  -0.01   0.01
   3   6    -0.02  -0.07  -0.08    -0.27  -0.02   0.03    -0.08   0.01  -0.00
   4   8     0.00   0.01   0.01     0.03  -0.01   0.00     0.00  -0.03   0.02
   5   8     0.01   0.01   0.01     0.03   0.04  -0.03     0.13  -0.02   0.00
   6   6    -0.00   0.00  -0.00    -0.01   0.00  -0.00     0.32  -0.07   0.04
   7   1     0.23   0.10  -0.23     0.04  -0.00   0.07     0.00  -0.00   0.01
   8   1    -0.26  -0.21   0.11     0.02  -0.08  -0.00     0.00  -0.01   0.00
   9   1    -0.00  -0.10  -0.11    -0.16  -0.12   0.12    -0.01  -0.01   0.00
  10   1    -0.48  -0.03   0.13    -0.49   0.04  -0.02    -0.03   0.00  -0.02
  11   1     0.53   0.08  -0.08    -0.46   0.07   0.02    -0.03   0.02   0.00
  12   1    -0.00   0.00  -0.00     0.05  -0.00  -0.00    -0.51   0.09   0.07
  13   1     0.00  -0.00   0.00     0.04  -0.03   0.02    -0.39   0.33  -0.25
  14   1     0.00  -0.00   0.00     0.05   0.00   0.00    -0.51  -0.01  -0.07
                     22                     23                     24
                        a                      a                      a 
 Frequencies --  1410.5424              1442.8326              1442.9879
 Red. masses --     1.2104                 1.0744                 1.0828
 Frc consts  --     0.0000                 0.0000                 0.0000
 IR Inten    --     5.2003                 8.5979                10.1485
 Raman Activ --     0.0000                 0.0000                 0.0000
 Depolar     --     0.0000                 0.0000                 0.0000
 Atom AN      X      Y      Z        X      Y      Z        X      Y      Z
   1   6     0.36   0.14  -0.16     0.07   0.02  -0.02     0.08   0.02  -0.03
   2   6    -0.05   0.05  -0.04    -0.05  -0.13   0.13    -0.06  -0.15   0.14
   3   6     0.02  -0.01   0.01     0.02   0.01  -0.01     0.02   0.01  -0.01
   4   8    -0.01   0.02  -0.02    -0.00  -0.01   0.01    -0.00  -0.01   0.01
   5   8     0.00  -0.00   0.00    -0.01  -0.03  -0.02    -0.01   0.01   0.03
   6   6     0.00  -0.00   0.00    -0.01  -0.10  -0.13     0.00   0.09   0.11
   7   1    -0.45   0.00   0.21    -0.08  -0.00   0.05    -0.09  -0.00   0.05
   8   1    -0.46  -0.17   0.03    -0.07  -0.04   0.01    -0.09  -0.05   0.01
   9   1    -0.27  -0.31   0.31    -0.03  -0.05   0.04    -0.04  -0.05   0.05
  10   1     0.06  -0.04   0.17     0.01   0.07  -0.42     0.01   0.08  -0.49
  11   1     0.04  -0.18   0.02     0.05   0.42  -0.04     0.06   0.49  -0.05
  12   1    -0.01  -0.00   0.00     0.32   0.16  -0.06    -0.26  -0.13   0.05
  13   1    -0.00   0.00  -0.00     0.03   0.33   0.43    -0.01  -0.30  -0.36
  14   1    -0.01  -0.00  -0.00    -0.31  -0.07   0.14     0.28   0.06  -0.13
                     25                     26                     27
                        a                      a                      a 
 Frequencies --  1464.8601              1486.5032              1497.7734
 Red. masses --     1.0575                 1.0517                 1.0573
 Frc consts  --     0.0000                 0.0000                 0.0000
 IR Inten    --     4.5195                 3.5345                 4.6837
 Raman Activ --     0.0000                 0.0000                 0.0000
 Depolar     --     0.0000                 0.0000                 0.0000
 Atom AN      X      Y      Z        X      Y      Z        X      Y      Z
   1   6    -0.00   0.00  -0.00     0.01   0.14   0.16    -0.09   0.15  -0.12
   2   6    -0.00   0.00  -0.00     0.00   0.03   0.03    -0.05   0.04  -0.03
   3   6     0.00  -0.01   0.01     0.00  -0.00   0.00     0.01   0.01  -0.01
   4   8     0.01   0.02  -0.02     0.00  -0.00  -0.00     0.00  -0.02   0.01
   5   8     0.01  -0.05   0.04    -0.00  -0.00   0.00     0.00   0.00  -0.00
   6   6    -0.04  -0.16   0.13     0.00   0.00   0.00    -0.00   0.00  -0.00
   7   1     0.00  -0.00   0.00    -0.44   0.07  -0.15     0.13  -0.11   0.62
   8   1     0.00  -0.00   0.00     0.44  -0.15   0.01     0.10  -0.65   0.07
   9   1     0.00   0.00  -0.00    -0.05  -0.49  -0.52     0.16   0.17  -0.20
  10   1    -0.00  -0.00   0.00     0.02   0.01  -0.01     0.03   0.00   0.01
  11   1    -0.00  -0.00   0.00    -0.03  -0.01   0.01     0.03  -0.02  -0.01
  12   1    -0.02   0.67  -0.02    -0.00   0.00   0.00     0.00  -0.00  -0.00
  13   1     0.16  -0.15   0.10     0.00  -0.00  -0.00    -0.00  -0.00  -0.00
  14   1    -0.04   0.19  -0.64     0.00   0.00  -0.00     0.00  -0.00   0.00
                     28                     29                     30
                        a                      a                      a 
 Frequencies --  1785.5764              2970.1179              2975.9075
 Red. masses --    12.1183                 1.0929                 1.0941
 Frc consts  --     0.0000                 0.0000                 0.0000
 IR Inten    --   410.0167                11.3309                18.1068
 Raman Activ --     0.0000                 0.0000                 0.0000
 Depolar     --     0.0000                 0.0000                 0.0000
 Atom AN      X      Y      Z        X      Y      Z        X      Y      Z
   1   6    -0.00  -0.00   0.00    -0.00  -0.01  -0.02     0.00   0.00   0.00
   2   6    -0.04   0.04  -0.03     0.02   0.16   0.24    -0.00  -0.01  -0.02
   3   6     0.08  -0.62   0.50     0.00   0.00   0.01    -0.00   0.00   0.00
   4   8    -0.04   0.46  -0.37    -0.00   0.00  -0.00    -0.00  -0.00  -0.00
   5   8     0.02   0.04  -0.03    -0.00  -0.00  -0.00     0.00  -0.00  -0.00
   6   6     0.01  -0.01   0.01    -0.00  -0.01  -0.02    -0.01  -0.18  -0.23
   7   1     0.01  -0.01   0.01     0.00   0.05   0.01    -0.00  -0.00  -0.00
   8   1     0.01  -0.01   0.00     0.00   0.01   0.07    -0.00  -0.00  -0.01
   9   1     0.02   0.02  -0.02     0.01  -0.01  -0.00    -0.00   0.00   0.00
  10   1    -0.04   0.01  -0.03    -0.04  -0.48  -0.07     0.00   0.02   0.00
  11   1    -0.03   0.03  -0.00    -0.04  -0.08  -0.81     0.00   0.01   0.05
  12   1    -0.02  -0.02   0.01     0.00   0.00   0.05     0.07   0.01   0.65
  13   1    -0.03   0.02  -0.01     0.00  -0.00  -0.00    -0.00  -0.03  -0.03
  14   1    -0.01  -0.01   0.01    -0.00   0.03   0.01    -0.03   0.67   0.18
                     31                     32                     33
                        a                      a                      a 
 Frequencies --  2986.7558              2988.4414              3044.5837
 Red. masses --     1.0494                 1.0460                 1.0765
 Frc consts  --     0.0000                 0.0000                 0.0000
 IR Inten    --     8.9058                21.8112                12.0586
 Raman Activ --     0.0000                 0.0000                 0.0000
 Depolar     --     0.0000                 0.0000                 0.0000
 Atom AN      X      Y      Z        X      Y      Z        X      Y      Z
   1   6    -0.01   0.01  -0.00     0.01  -0.01   0.00    -0.03   0.02  -0.02
   2   6    -0.01  -0.16   0.07     0.01   0.12  -0.05    -0.00   0.00  -0.00
   3   6     0.00  -0.01   0.00     0.00   0.01  -0.01     0.00  -0.00   0.00
   4   8     0.00   0.00  -0.00     0.00  -0.00   0.00     0.00   0.00  -0.00
   5   8    -0.01   0.00  -0.00    -0.01   0.01  -0.00    -0.01  -0.00   0.00
   6   6    -0.02   0.08  -0.07    -0.03   0.11  -0.10    -0.17  -0.15   0.13
   7   1    -0.01  -0.05  -0.01     0.00   0.04   0.01    -0.00  -0.01  -0.00
   8   1    -0.00   0.00   0.02     0.00  -0.00  -0.02    -0.00   0.00   0.01
   9   1     0.03  -0.01   0.01    -0.02   0.01  -0.01     0.11  -0.06   0.05
  10   1     0.06   0.65   0.15    -0.04  -0.48  -0.11    -0.00  -0.00  -0.00
  11   1    -0.02  -0.07  -0.40     0.02   0.06   0.30     0.00   0.00   0.01
  12   1     0.05   0.04   0.42     0.07   0.05   0.56    -0.02  -0.03  -0.03
  13   1     0.03   0.03  -0.03     0.04   0.04  -0.04     0.66   0.52  -0.45
  14   1     0.02  -0.37  -0.13     0.03  -0.51  -0.18    -0.02   0.02   0.03
                     34                     35                     36
                        a                      a                      a 
 Frequencies --  3045.6843              3050.8656              3056.9721
 Red. masses --     1.0745                 1.0932                 1.0484
 Frc consts  --     0.0000                 0.0000                 0.0000
 IR Inten    --    30.7747                25.1689                16.5989
 Raman Activ --     0.0000                 0.0000                 0.0000
 Depolar     --     0.0000                 0.0000                 0.0000
 Atom AN      X      Y      Z        X      Y      Z        X      Y      Z
   1   6     0.21  -0.11   0.10     0.01   0.18   0.22    -0.01  -0.17   0.11
   2   6     0.01  -0.01   0.01     0.00   0.02   0.02    -0.00  -0.02   0.01
   3   6    -0.00  -0.00   0.00     0.00   0.00   0.00    -0.00  -0.00   0.00
   4   8    -0.00   0.00  -0.00     0.00   0.00  -0.00     0.00   0.00  -0.00
   5   8    -0.00   0.00  -0.00    -0.00  -0.00  -0.00     0.00   0.00  -0.00
   6   6    -0.02  -0.02   0.02     0.00   0.00   0.00    -0.00  -0.00   0.00
   7   1     0.03  -0.01   0.02    -0.03  -0.57  -0.09     0.04   0.75   0.16
   8   1     0.02  -0.03  -0.04    -0.05  -0.08  -0.75    -0.04  -0.10  -0.59
   9   1    -0.78   0.44  -0.33     0.04   0.01   0.05     0.04  -0.04   0.03
  10   1     0.00   0.03   0.01    -0.00  -0.06  -0.01     0.00   0.05   0.01
  11   1    -0.00  -0.01  -0.03    -0.00  -0.01  -0.06    -0.00  -0.01  -0.03
  12   1    -0.00  -0.00  -0.01    -0.00  -0.00  -0.00    -0.00  -0.00  -0.00
  13   1     0.09   0.07  -0.06    -0.00  -0.00   0.00     0.01   0.01  -0.00
  14   1    -0.00   0.00   0.00     0.00  -0.00  -0.00    -0.00   0.00   0.00
