      -----------------------------------------------------------      
     |                   =====================                   |     
     |                           x T B                           |     
     |                   =====================                   |     
     |                         S. Grimme                         |     
     |          Mulliken Center for Theoretical Chemistry        |     
     |                    University of Bonn                     |     
      -----------------------------------------------------------      

   * xtb version 6.7.1 (41059b4) compiled by 'michael@archlinux' on 2025-03-24

   xtb is free software: you can redistribute it and/or modify it under
   the terms of the GNU Lesser General Public License as published by
   the Free Software Foundation, either version 3 of the License, or
   (at your option) any later version.
   
   xtb is distributed in the hope that it will be useful,
   but WITHOUT ANY WARRANTY; without even the implied warranty of
   MERCHANTABILITY or FITNESS FOR A PARTICULAR PURPOSE.  See the
   GNU Lesser General Public License for more details.
   
   Cite this work as:
   * C. Bannwarth, E. Caldeweyher, S. Ehlert, A. Hansen, P. Pracht,
     J. Seibert, S. Spicher, S. Grimme, WIREs Comput. Mol. Sci., 2020, 11,
     e01493. DOI: 10.1002/wcms.1493
   
   for GFN2-xTB:
   * C. Bannwarth, S. Ehlert and S. Grimme., J. Chem. Theory Comput., 2019,
     15, 1652-1671. DOI: 10.1021/acs.jctc.8b01176
   for GFN1-xTB:
   * S. Grimme, C. Bannwarth, P. Shushkov, J. Chem. Theory Comput., 2017,
     13, 1989-2009. DOI: 10.1021/acs.jctc.7b00118
   for GFN0-xTB:
   * P. Pracht, E. Caldeweyher, S. Ehlert, S. Grimme, ChemRxiv, 2019, preprint.
     DOI: 10.26434/chemrxiv.8326202.v1
   for GFN-FF:
   * S. Spicher and S. Grimme, Angew. Chem. Int. Ed., 2020, 59, 15665-15673.
     DOI: 10.1002/anie.202004239
   
   for ALPB and GBSA implicit solvation:
   * S. Ehlert, M. Stahn, S. Spicher, S. Grimme, J. Chem. Theory Comput.,
     2021, 17, 4250-4261. DOI: 10.1021/acs.jctc.1c00471
   
   for ddCOSMO and CPCM-X implicit solvation:
   * M. Stahn, S. Ehlert, S. Grimme, J. Phys. Chem. A,
     2023, XX, XXXX-XXXX. DOI: 10.1021/acs.jpca.3c04382
   
   for DFT-D4:
   * E. Caldeweyher, C. Bannwarth and S. Grimme, J. Chem. Phys., 2017,
     147, 034112. DOI: 10.1063/1.4993215
   * E. Caldeweyher, S. Ehlert, A. Hansen, H. Neugebauer, S. Spicher,
     C. Bannwarth and S. Grimme, J. Chem. Phys., 2019, 150, 154122.
     DOI: 10.1063/1.5090222
   * E. Caldeweyher, J.-M. Mewes, S. Ehlert and S. Grimme, Phys. Chem. Chem. Phys.
     2020, 22, 8499-8512. DOI: 10.1039/D0CP00502A
   
   for sTDA-xTB:
   * S. Grimme and C. Bannwarth, J. Chem. Phys., 2016, 145, 054103.
     DOI: 10.1063/1.4959605
   
   in the mass-spec context:
   * V. Asgeirsson, C. Bauer and S. Grimme, Chem. Sci., 2017, 8, 4879.
     DOI: 10.1039/c7sc00601b
   * J. Koopman and S. Grimme, ACS Omega 2019, 4, 12, 15120-15133.
     DOI: 10.1021/acsomega.9b02011
   
   for metadynamics refer to:
   * S. Grimme, J. Chem. Theory Comput., 2019, 155, 2847-2862
     DOI: 10.1021/acs.jctc.9b00143
   
   for SPH calculations refer to:
   * S. Spicher and S. Grimme, J. Chem. Theory Comput., 2021, 17, 1701-1714
     DOI: 10.1021/acs.jctc.0c01306
   
   for ONIOM refer to:
   * C. Plett, A. Katbashev, S. Ehlert, S. Grimme, M. Bursch,
     Phys. Chem. Chem. Phys., 2023, 25, 17860-17868. DOI: 10.1039/D3CP02178E
   
   for DIPRO refer to:
   * J. Kohn, N. Gildemeister, S. Grimme, D. Fazzi, A. Hansen,
     J. Chem. Phys., 2023, just accepted.
   
   for PTB refer to:
   * S. Grimme, M. Mueller, A. Hansen, J. Chem. Phys., 2023, 158, 124111.
     DOI: 10.1063/5.0137838
   
   with help from (in alphabetical order)
   P. Atkinson, C. Bannwarth, F. Bohle, G. Brandenburg, E. Caldeweyher
   M. Checinski, S. Dohm, S. Ehlert, S. Ehrlich, I. Gerasimov, C. Hölzer
   A. Katbashev, J. Kohn, J. Koopman, C. Lavigne, S. Lehtola, F. März, M. Müller,
   F. Musil, H. Neugebauer, J. Pisarek, C. Plett, P. Pracht, F. Pultar,
   J. Seibert, P. Shushkov, S. Spicher, M. Stahn, M. Steiner, T. Strunk,
   J. Stückrath, T. Rose, and J. Unsleber
   
 * started run on 2025/04/08 at 23:37:46.625     
   ID    Z sym.   atoms
    1    6 C      1, 3
    2    8 O      2, 4
    3    1 H      5-8

           -------------------------------------------------
          |                Calculation Setup                |
           -------------------------------------------------

          program call               : /usr/bin/xtb xtb_rrho.coord --gfn2 --ohess vtight --chrg 0 --enso --norestart -I rrho-xcontrol-inp --parallel 1
          coordinate file            : xtb_rrho.coord
          omp threads                :                     1


           -------------------------------------------------
          |                 G F N 2 - x T B                 |
           -------------------------------------------------

        Reference                      10.1021/acs.jctc.8b01176
      * Hamiltonian:
        H0-scaling (s, p, d)           1.850000    2.230000    2.230000
        zeta-weighting                 0.500000
      * Dispersion:
        s8                             2.700000
        a1                             0.520000
        a2                             5.000000
        s9                             5.000000
      * Repulsion:
        kExp                           1.500000    1.000000
        rExp                           1.000000
      * Coulomb:
        alpha                          2.000000
        third order                    shell-resolved
        anisotropic                    true
        a3                             3.000000
        a5                             4.000000
        cn-shift                       1.200000
        cn-exp                         4.000000
        max-rad                        5.000000


          ...................................................
          :                      SETUP                      :
          :.................................................:
          :  # basis functions                  20          :
          :  # atomic orbitals                  20          :
          :  # shells                           12          :
          :  # electrons                        24          :
          :  max. iterations                   250          :
          :  Hamiltonian                  GFN2-xTB          :
          :  restarted?                      false          :
          :  GBSA solvation                  false          :
          :  PC potential                    false          :
          :  electronic temp.          300.0000000     K    :
          :  accuracy                    1.0000000          :
          :  -> integral cutoff          0.2500000E+02      :
          :  -> integral neglect         0.1000000E-07      :
          :  -> SCF convergence          0.1000000E-05 Eh   :
          :  -> wf. convergence          0.1000000E-03 e    :
          :  Broyden damping             0.4000000          :
          :  net charge                          0          :
          :  unpaired electrons                  0          :
          ...................................................

 iter      E             dE          RMSdq      gap      omega  full diag
   1    -14.5225717 -0.145226E+02  0.568E+00    5.93       0.0  T
   2    -14.5599671 -0.373954E-01  0.285E+00    4.77       1.0  T
   3    -14.5614052 -0.143806E-02  0.163E+00    5.23       1.0  T
   4    -14.5638098 -0.240465E-02  0.143E-01    4.97       1.0  T
   5    -14.5638765 -0.666836E-04  0.731E-02    5.00       1.0  T
   6    -14.5638780 -0.152387E-05  0.127E-02    5.00       2.8  T
   7    -14.5638782 -0.143398E-06  0.515E-03    5.00       6.9  T
   8    -14.5638782 -0.558354E-07  0.261E-03    5.00      13.6  T
   9    -14.5638783 -0.352801E-07  0.648E-04    5.00      54.6  T
  10    -14.5638783 -0.169375E-08  0.145E-04    5.00     243.9  T

   *** convergence criteria satisfied after 10 iterations ***

         #    Occupation            Energy/Eh            Energy/eV
      -------------------------------------------------------------
         1        2.0000           -0.7545571             -20.5325
       ...           ...                  ...                  ...
         6        2.0000           -0.5958830             -16.2148
         7        2.0000           -0.5720277             -15.5657
         8        2.0000           -0.5247455             -14.2791
         9        2.0000           -0.5207541             -14.1704
        10        2.0000           -0.4914036             -13.3718
        11        2.0000           -0.4629956             -12.5988
        12        2.0000           -0.4361413             -11.8680 (HOMO)
        13                         -0.2523814              -6.8676 (LUMO)
        14                         -0.0124190              -0.3379
        15                          0.1175084               3.1976
        16                          0.1263926               3.4393
        17                          0.1805544               4.9131
       ...                                ...                  ...
        20                          0.6087230              16.5642
      -------------------------------------------------------------
                  HL-Gap            0.1837599 Eh            5.0004 eV
             Fermi-level           -0.3442614 Eh           -9.3678 eV

 SCC (total)                   0 d,  0 h,  0 min,  0.002 sec
 SCC setup                      ...        0 min,  0.000 sec (  4.650%)
 Dispersion                     ...        0 min,  0.000 sec (  1.330%)
 classical contributions        ...        0 min,  0.000 sec (  0.537%)
 integral evaluation            ...        0 min,  0.000 sec ( 12.719%)
 iterations                     ...        0 min,  0.001 sec ( 51.685%)
 molecular gradient             ...        0 min,  0.001 sec ( 25.377%)
 printout                       ...        0 min,  0.000 sec (  3.377%)

         :::::::::::::::::::::::::::::::::::::::::::::::::::::
         ::                     SUMMARY                     ::
         :::::::::::::::::::::::::::::::::::::::::::::::::::::
         :: total energy             -14.442506940149 Eh    ::
         :: gradient norm              0.031619542977 Eh/a0 ::
         :: HOMO-LUMO gap              5.000361241053 eV    ::
         ::.................................................::
         :: SCC energy               -14.563877907033 Eh    ::
         :: -> isotropic ES            0.038171389947 Eh    ::
         :: -> anisotropic ES          0.002088796457 Eh    ::
         :: -> anisotropic XC          0.001380759334 Eh    ::
         :: -> dispersion             -0.002866422739 Eh    ::
         :: repulsion energy           0.121370966883 Eh    ::
         :: add. restraining           0.000000000000 Eh    ::
         :: total charge              -0.000000000000 e     ::
         :::::::::::::::::::::::::::::::::::::::::::::::::::::

      ----------------------------------------------------------- 
     |                   =====================                   |
     |                        A N C O P T                        |
     |                   =====================                   |
     |               Approximate Normal Coordinate               |
     |                Rational Function Optimizer                |
      ----------------------------------------------------------- 

          ...................................................
          :                      SETUP                      :
          :.................................................:
          :   optimization level         verytight          :
          :   max. optcycles                   200          :
          :   ANC micro-cycles                  20          :
          :   degrees of freedom                18          :
          :.................................................:
          :   RF solver                   davidson          :
          :   write xtbopt.log                true          :
          :   linear?                        false          :
          :   energy convergence         0.1000000E-06 Eh   :
          :   grad. convergence          0.2000000E-03 Eh/α :
          :   maximum RF displ.          1.0000000          :
          :   Hlow (freq-cutoff)         0.1000000E-01      :
          :   Hmax (freq-cutoff)         5.0000000          :
          :   S6 in model hess.         20.0000000          :
          ...................................................

generating ANC from exact Hessian ...
Using Lindh-Hessian (1995)
 Shifting diagonal of input Hessian by    1.5639417501176651E-003
 Lowest  eigenvalues of input Hessian
    0.000000    0.000000    0.000000    0.000000    0.000000    0.000000
    0.010000    0.013638    0.027211    0.064500    0.082279    0.102839
    0.117733    0.133907    0.161068    0.227734    0.351695    0.487931
 Highest eigenvalues
    0.712885    1.116932    1.143936    1.224496    1.694781    2.375321


........................................................................
.............................. CYCLE    1 ..............................
........................................................................

 iter      E             dE          RMSdq      gap      omega  full diag
   1    -14.5638783 -0.145639E+02  0.380E-05    5.00       0.0  T
   2    -14.5638783 -0.562750E-11  0.137E-05    5.00    2575.3  T
   3    -14.5638783 -0.113332E-11  0.624E-06    5.00    5666.6  T
     SCC iter.                  ...        0 min,  0.001 sec
     gradient                   ...        0 min,  0.001 sec
 * total energy  :   -14.4425069 Eh     change       -0.4657608E-10 Eh
   gradient norm :     0.0316192 Eh/α   predicted     0.0000000E+00 (-100.00%)
   displ. norm   :     0.0494824 α      lambda       -0.1150102E-02
   maximum displ.:     0.0282268 α      in ANC's #6, #13, #12, ...

........................................................................
.............................. CYCLE    2 ..............................
........................................................................

 iter      E             dE          RMSdq      gap      omega  full diag
   1    -14.5704988 -0.145705E+02  0.110E-01    5.14       0.0  T
   2    -14.5705226 -0.238057E-04  0.667E-02    5.12       1.0  T
   3    -14.5705253 -0.275018E-05  0.369E-02    5.12       1.0  T
   4    -14.5705259 -0.555700E-06  0.526E-03    5.12       6.7  T
   5    -14.5705259 -0.348364E-07  0.245E-03    5.12      14.4  T
   6    -14.5705259 -0.510215E-08  0.710E-04    5.12      49.8  T
   7    -14.5705259 -0.251601E-09  0.828E-05    5.12     427.2  T
     SCC iter.                  ...        0 min,  0.001 sec
     gradient                   ...        0 min,  0.001 sec
 * total energy  :   -14.4432380 Eh     change       -0.7310606E-03 Eh
   gradient norm :     0.0117842 Eh/α   predicted    -0.5764576E-03 ( -21.15%)
   displ. norm   :     0.0284589 α      lambda       -0.2017269E-03
   maximum displ.:     0.0160453 α      in ANC's #3, #10, #16, ...

........................................................................
.............................. CYCLE    3 ..............................
........................................................................

 iter      E             dE          RMSdq      gap      omega  full diag
   1    -14.5722224 -0.145722E+02  0.651E-02    5.17       0.0  T
   2    -14.5722404 -0.179762E-04  0.386E-02    5.15       1.0  T
   3    -14.5722415 -0.109420E-05  0.225E-02    5.15       1.6  T
   4    -14.5722414  0.255265E-07  0.594E-03    5.15       5.9  T
   5    -14.5722415 -0.783506E-07  0.114E-03    5.15      31.0  T
   6    -14.5722415 -0.868772E-09  0.257E-04    5.15     137.5  T
   7    -14.5722415 -0.339426E-10  0.608E-05    5.15     581.1  T
     SCC iter.                  ...        0 min,  0.001 sec
     gradient                   ...        0 min,  0.001 sec
 * total energy  :   -14.4433544 Eh     change       -0.1164424E-03 Eh
   gradient norm :     0.0042119 Eh/α   predicted    -0.1009451E-03 ( -13.31%)
   displ. norm   :     0.0183699 α      lambda       -0.2303933E-04
   maximum displ.:     0.0136247 α      in ANC's #3, #2, #1, ...

........................................................................
.............................. CYCLE    4 ..............................
........................................................................

 iter      E             dE          RMSdq      gap      omega  full diag
   1    -14.5718942 -0.145719E+02  0.308E-02    5.15       0.0  T
   2    -14.5718958 -0.165008E-05  0.176E-02    5.14       2.0  T
   3    -14.5718958 -0.338041E-07  0.896E-03    5.14       3.9  T
   4    -14.5718958 -0.126479E-07  0.162E-03    5.14      21.9  T
   5    -14.5718959 -0.104929E-07  0.394E-04    5.14      89.8  T
   6    -14.5718959 -0.479101E-10  0.788E-05    5.14     448.7  T
     SCC iter.                  ...        0 min,  0.001 sec
     gradient                   ...        0 min,  0.002 sec
 * total energy  :   -14.4433637 Eh     change       -0.9234403E-05 Eh
   gradient norm :     0.0016950 Eh/α   predicted    -0.1152332E-04 (  24.79%)
   displ. norm   :     0.0463298 α      lambda       -0.2769490E-04
   maximum displ.:     0.0304947 α      in ANC's #2, #3, #1, ...

........................................................................
.............................. CYCLE    5 ..............................
........................................................................

 iter      E             dE          RMSdq      gap      omega  full diag
   1    -14.5708402 -0.145708E+02  0.780E-02    5.13       0.0  T
   2    -14.5708446 -0.442965E-05  0.457E-02    5.12       1.0  T
   3    -14.5708446 -0.949273E-09  0.164E-02    5.13       2.2  T
   4    -14.5708448 -0.127934E-06  0.272E-03    5.12      13.0  T
   5    -14.5708448 -0.293041E-07  0.968E-04    5.12      36.5  T
   6    -14.5708448 -0.205141E-09  0.153E-04    5.12     231.4  T
     SCC iter.                  ...        0 min,  0.001 sec
     gradient                   ...        0 min,  0.001 sec
 * total energy  :   -14.4433157 Eh     change        0.4800343E-04 Eh
   gradient norm :     0.0065173 Eh/α   predicted    -0.1386150E-04 (-128.88%)
   displ. norm   :     0.0235568 α      lambda       -0.7254048E-04
   maximum displ.:     0.0149618 α      in ANC's #2, #3, #1, ...

........................................................................
.............................. CYCLE    6 ..............................
........................................................................

 iter      E             dE          RMSdq      gap      omega  full diag
   1    -14.5713422 -0.145713E+02  0.407E-02    5.13       0.0  T
   2    -14.5713442 -0.206322E-05  0.238E-02    5.13       1.5  T
   3    -14.5713443 -0.247175E-07  0.108E-02    5.13       3.3  T
   4    -14.5713443 -0.324987E-07  0.180E-03    5.13      19.7  T
   5    -14.5713443 -0.137437E-07  0.497E-04    5.13      71.1  T
   6    -14.5713443 -0.585416E-10  0.844E-05    5.13     418.9  T
     SCC iter.                  ...        0 min,  0.001 sec
     gradient                   ...        0 min,  0.002 sec
 * total energy  :   -14.4433637 Eh     change       -0.4803126E-04 Eh
   gradient norm :     0.0020649 Eh/α   predicted    -0.3628936E-04 ( -24.45%)
   displ. norm   :     0.0115812 α      lambda       -0.1170277E-04
   maximum displ.:     0.0078270 α      in ANC's #2, #3, #1, ...

........................................................................
.............................. CYCLE    7 ..............................
........................................................................

 iter      E             dE          RMSdq      gap      omega  full diag
   1    -14.5715884 -0.145716E+02  0.199E-02    5.14       0.0  T
   2    -14.5715887 -0.298994E-06  0.118E-02    5.14       3.0  T
   3    -14.5715887  0.198868E-09  0.424E-03    5.14       8.3  T
   4    -14.5715887 -0.863333E-08  0.688E-04    5.14      51.4  T
   5    -14.5715887 -0.195699E-08  0.237E-04    5.14     149.1  T
     SCC iter.                  ...        0 min,  0.001 sec
     gradient                   ...        0 min,  0.001 sec
 * total energy  :   -14.4433696 Eh     change       -0.5917268E-05 Eh
   gradient norm :     0.0001305 Eh/α   predicted    -0.5850336E-05 (  -1.13%)
   displ. norm   :     0.0004475 α      lambda       -0.1745909E-07
   maximum displ.:     0.0003607 α      in ANC's #3, #11, #10, ...

........................................................................
.............................. CYCLE    8 ..............................
........................................................................

 iter      E             dE          RMSdq      gap      omega  full diag
   1    -14.5716081 -0.145716E+02  0.853E-04    5.14       0.0  T
   2    -14.5716081 -0.130598E-09  0.504E-04    5.14      70.1  T
   3    -14.5716081  0.213838E-10  0.103E-04    5.14     342.9  T
     SCC iter.                  ...        0 min,  0.000 sec
     gradient                   ...        0 min,  0.002 sec
 * total energy  :   -14.4433696 Eh     change       -0.1500412E-07 Eh
   gradient norm :     0.0000604 Eh/α   predicted    -0.8285674E-08 ( -44.78%)
   displ. norm   :     0.0001635 α      lambda        0.1663776E-09
   maximum displ.:     0.0000803 α      in ANC's #11, #17, #10, ...

   *** GEOMETRY OPTIMIZATION CONVERGED AFTER 8 ITERATIONS ***

------------------------------------------------------------------------
 total energy gain   :        -0.0008627 Eh       -0.5414 kcal/mol
 total RMSD          :         0.0274728 a0        0.0145 Å
 total power (kW/mol):        -0.2831265 (step) -106.4990 (real)
------------------------------------------------------------------------

 ANCopt (total)                0 d,  0 h,  0 min,  0.021 sec
 optimizer setup                ...        0 min,  0.000 sec (  0.199%)
 model hessian                  ...        0 min,  0.000 sec (  0.800%)
 ANC generation                 ...        0 min,  0.000 sec (  0.248%)
 coordinate transformation      ...        0 min,  0.000 sec (  0.117%)
 single point calculation       ...        0 min,  0.020 sec ( 94.043%)
 optimization log               ...        0 min,  0.000 sec (  1.689%)
 hessian update                 ...        0 min,  0.000 sec (  0.143%)
 rational function              ...        0 min,  0.000 sec (  1.513%)

================
 final structure:
================
$coord
        2.60803714568199        0.99231754906692        0.00102452713791      C
        1.10634596225493       -1.24441481469183        0.00298721405358      O
       -1.36814970380554       -0.91041212393905       -0.00104083789672      C
       -2.45722463718877        1.06711021113622       -0.00597435128784      O
        2.19198309353662        2.12989267096445        1.67054649129348      H
        2.21168809839252        2.11357756254988       -1.68425968533180      H
        4.56599995227033        0.37427777050786        0.01529817672527      H
       -2.29572291668176       -2.77710539434741        0.00102379554860      H
$end

 Bond Distances (Angstroems)
 ---------------------------
C1-O2=1.4256         C1-H5=1.0915         C1-H6=1.0915         C1-H7=1.0865         O2-C1=1.4256         O2-C3=1.3213         
C3-O2=1.3213         C3-O4=1.1947         C3-H8=1.1030         O4-C3=1.1947         H5-C1=1.0915         H6-C1=1.0915         
H7-C1=1.0865         H8-C3=1.1030         
 C  H  Rav=1.0931 sigma=0.0061  Rmin=1.0865  Rmax=1.1030     4
 O  C  Rav=1.3139 sigma=0.0944  Rmin=1.1947  Rmax=1.4256     3

 selected bond angles (degree)
 --------------------
H5-C1-O2=110.17                H6-C1-O2=110.17                H6-C1-H5=108.83                H7-C1-O2=106.36                
H7-C1-H5=110.65                H7-C1-H6=110.64                C3-O2-C1=116.19                O4-C3-O2=126.53                
H8-C3-O2=108.74                H8-C3-O4=124.73                

 selected dihedral angles (degree)
 ---------------------------------
C3-O2-C1-H5= 59.73            C3-O2-C1-H6=299.65            C3-O2-C1-H7=179.70            O4-C3-O2-C1=  0.00            
H8-C3-O2-C1=180.00            
           -------------------------------------------------
          |                Final Singlepoint                |
           -------------------------------------------------

          ...................................................
          :                      SETUP                      :
          :.................................................:
          :  # basis functions                  20          :
          :  # atomic orbitals                  20          :
          :  # shells                           12          :
          :  # electrons                        24          :
          :  max. iterations                   250          :
          :  Hamiltonian                  GFN2-xTB          :
          :  restarted?                      false          :
          :  GBSA solvation                  false          :
          :  PC potential                    false          :
          :  electronic temp.          300.0000000     K    :
          :  accuracy                    1.0000000          :
          :  -> integral cutoff          0.2500000E+02      :
          :  -> integral neglect         0.1000000E-07      :
          :  -> SCF convergence          0.1000000E-05 Eh   :
          :  -> wf. convergence          0.1000000E-03 e    :
          :  Broyden damping             0.4000000          :
          :  net charge                          0          :
          :  unpaired electrons                  0          :
          ...................................................

 iter      E             dE          RMSdq      gap      omega  full diag
   1    -14.5716081 -0.145716E+02  0.156E-05    5.14       0.0  T
   2    -14.5716081 -0.259348E-12  0.950E-06    5.14    3721.5  T
   3    -14.5716081 -0.355271E-13  0.519E-06    5.14    6806.6  T

   *** convergence criteria satisfied after 3 iterations ***

         #    Occupation            Energy/Eh            Energy/eV
      -------------------------------------------------------------
         1        2.0000           -0.7602529             -20.6875
       ...           ...                  ...                  ...
         6        2.0000           -0.6017765             -16.3752
         7        2.0000           -0.5731205             -15.5954
         8        2.0000           -0.5261360             -14.3169
         9        2.0000           -0.5215090             -14.1910
        10        2.0000           -0.4899531             -13.3323
        11        2.0000           -0.4627887             -12.5931
        12        2.0000           -0.4340478             -11.8110 (HOMO)
        13                         -0.2452097              -6.6725 (LUMO)
        14                          0.0096371               0.2622
        15                          0.1207972               3.2871
        16                          0.1423400               3.8733
        17                          0.1834532               4.9920
       ...                                ...                  ...
        20                          0.6467671              17.5994
      -------------------------------------------------------------
                  HL-Gap            0.1888381 Eh            5.1385 eV
             Fermi-level           -0.3396287 Eh           -9.2418 eV

 SCC (total)                   0 d,  0 h,  0 min,  0.003 sec
 SCC setup                      ...        0 min,  0.000 sec (  1.604%)
 Dispersion                     ...        0 min,  0.000 sec (  0.617%)
 classical contributions        ...        0 min,  0.000 sec (  0.247%)
 integral evaluation            ...        0 min,  0.001 sec ( 23.548%)
 iterations                     ...        0 min,  0.000 sec ( 13.834%)
 molecular gradient             ...        0 min,  0.002 sec ( 56.543%)
 printout                       ...        0 min,  0.000 sec (  3.285%)

         :::::::::::::::::::::::::::::::::::::::::::::::::::::
         ::                     SUMMARY                     ::
         :::::::::::::::::::::::::::::::::::::::::::::::::::::
         :: total energy             -14.443369637751 Eh    ::
         :: gradient norm              0.000059651458 Eh/a0 ::
         :: HOMO-LUMO gap              5.138545600193 eV    ::
         ::.................................................::
         :: SCC energy               -14.571607807825 Eh    ::
         :: -> isotropic ES            0.038010793195 Eh    ::
         :: -> anisotropic ES          0.002130305757 Eh    ::
         :: -> anisotropic XC          0.000717941093 Eh    ::
         :: -> dispersion             -0.002876745418 Eh    ::
         :: repulsion energy           0.128238170073 Eh    ::
         :: add. restraining           0.000000000000 Eh    ::
         :: total charge               0.000000000000 e     ::
         :::::::::::::::::::::::::::::::::::::::::::::::::::::

           ------------------------------------------------- 
          |                Numerical Hessian                |
           ------------------------------------------------- 
step length          :   0.00500
SCC accuracy         :   0.30000
Hessian scale factor :   1.00000
frozen atoms in %    :   0.00000    0
RMS gradient         :   0.00006
estimated CPU  time      0.00 min
estimated wall time      0.00 min

writing file <hessian>, containing the non-mass-weighted Hessian matrix in atomic units (Eₕ/Bohr²).

 projected vibrational frequencies (cm⁻¹)
eigval :       -0.00    -0.00    -0.00    -0.00     0.00     0.00
eigval :       25.75   268.50   367.84   735.03   941.83   958.37
eigval :     1120.81  1132.43  1178.66  1347.65  1385.16  1439.98
eigval :     1458.03  1790.40  2833.18  2984.07  2994.01  3050.92
           -------------------------------------------------
          |                Property Printout                |
           -------------------------------------------------

    * Orbital Energies and Occupations

         #    Occupation            Energy/Eh            Energy/eV
      -------------------------------------------------------------
         1        2.0000           -0.7602529             -20.6875
         2        2.0000           -0.7304611             -19.8769
         3        2.0000           -0.6870933             -18.6968
         4        2.0000           -0.6229191             -16.9505
         5        2.0000           -0.6038273             -16.4310
         6        2.0000           -0.6017765             -16.3752
         7        2.0000           -0.5731205             -15.5954
         8        2.0000           -0.5261360             -14.3169
         9        2.0000           -0.5215090             -14.1910
        10        2.0000           -0.4899531             -13.3323
        11        2.0000           -0.4627887             -12.5931
        12        2.0000           -0.4340478             -11.8110 (HOMO)
        13                         -0.2452097              -6.6725 (LUMO)
        14                          0.0096371               0.2622
        15                          0.1207972               3.2871
        16                          0.1423400               3.8733
        17                          0.1834532               4.9920
        18                          0.1858393               5.0569
        19                          0.2716126               7.3910
        20                          0.6467671              17.5994
      -------------------------------------------------------------
                  HL-Gap            0.1888381 Eh            5.1385 eV
             Fermi-level           -0.3396287 Eh           -9.2418 eV

     #   Z          covCN         q      C6AA      α(0)
     1   6          3.660     0.026    20.419     6.484
     2   8          1.703    -0.238    17.938     5.718
     3   6          2.671     0.336    21.283     7.549
     4   8          0.856    -0.371    21.118     6.161
     5   1          0.924     0.070     2.088     2.260
     6   1          0.924     0.070     2.089     2.260
     7   1          0.925     0.076     2.022     2.224
     8   1          0.923     0.032     2.565     2.504

 Mol. C6AA /au·bohr⁶  :        566.115482
 Mol. C8AA /au·bohr⁸  :      11877.248094
 Mol. α(0) /au        :         35.160675


Wiberg/Mayer (AO) data.
largest (>0.10) Wiberg bond orders for each atom

 ---------------------------------------------------------------------------
     #   Z sym  total        # sym  WBO       # sym  WBO       # sym  WBO
 ---------------------------------------------------------------------------
     1   6      3.920 --     7      0.982     5      0.977     6      0.977
                             2      0.949
     2   8      2.342 --     3      1.176     1      0.949     4      0.195
     3   6      3.922 --     4      1.803     2      1.176     8      0.915
     4   8      2.069 --     3      1.803     2      0.195
     5   1      0.995 --     1      0.977
     6   1      0.995 --     1      0.977
     7   1      0.994 --     1      0.982
     8   1      0.999 --     3      0.915
 ---------------------------------------------------------------------------

Topologies differ in total number of bonds
Writing topology from bond orders to xtbtopo.mol

molecular dipole:
                 x           y           z       tot (Debye)
 q only:        0.837      -0.145       0.002
   full:        0.859      -0.276       0.002       2.294
molecular quadrupole (traceless):
                xx          xy          yy          xz          yz          zz
 q only:        0.301       4.153      -0.149      -0.007       0.006      -0.153
  q+dip:       -0.844       4.694      -0.277      -0.012       0.009       1.121
   full:       -0.874       5.051      -0.607      -0.012       0.011       1.482

           -------------------------------------------------
          |                Geometry Summary                 |
           -------------------------------------------------

      molecular mass/u    :       60.0520446
   center of mass at/Å    :        0.0000498       0.0000197      -0.0003997
  moments of inertia/u·Å² :        0.2448537E+02   0.7340597E+02   0.9471449E+02
rotational constants/cm⁻¹ :        0.6884778E+00   0.2296493E+00   0.1779837E+00

 * 7 selected distances

     #   Z          #   Z                                           value/Å
     1   6          2   8                                         1.4256444 (max)
     2   8          3   6                                         1.3213232
     3   6          4   8                                         1.1946642
     1   6          5   1                                         1.0915019
     1   6          6   1                                         1.0915042
     1   6          7   1                                         1.0865280 (min)
     3   6          8   1                                         1.1030446

 * 2 distinct bonds (by element types)

   Z      Z             #   av. dist./Å        max./Å        min./Å
   1 H    6 C           4     1.0931447     1.1030446     1.0865280
   6 C    8 O           3     1.3138772     1.4256444     1.1946642

           -------------------------------------------------
          |               Frequency Printout                |
Molecule has the following symmetry elements: (sigma) 
It seems to be the Cs point group
           -------------------------------------------------
 projected vibrational frequencies (cm⁻¹)
eigval :       -0.00    -0.00    -0.00    -0.00     0.00     0.00
eigval :       25.75   268.50   367.84   735.03   941.83   958.37
eigval :     1120.81  1132.43  1178.66  1347.65  1385.16  1439.98
eigval :     1458.03  1790.40  2833.18  2984.07  2994.01  3050.92
 reduced masses (amu)
    1:      3.00    2:      6.68    3:      5.28    4:      8.11    5:      6.24    6:      5.32
    7:      1.08    8:      3.84    9:      2.47   10:      4.86   11:      1.61   12:      4.10
   13:      1.29   14:      1.94   15:      4.34   16:      1.16   17:      1.15   18:      1.05
   19:      1.06   20:     11.20   21:      1.07   22:      1.09   23:      1.04   24:      1.08
 IR intensities (km·mol⁻¹)
    1:      0.01    2:      2.08    3:      1.75    4:      1.03    5:      0.45    6:      0.57
    7:      0.15    8:     13.84    9:     30.97   10:     16.64   11:     10.80   12:     28.23
   13:      1.09   14:     58.93   15:    160.28   16:     29.87   17:      5.48   18:      9.29
   19:      6.25   20:    486.87   21:     93.13   22:     11.82   23:     13.00   24:      5.74
 Raman intensities (Ä⁴*amu⁻¹)
    1:      0.00    2:      0.00    3:      0.00    4:      0.00    5:      0.00    6:      0.00
    7:      0.00    8:      0.00    9:      0.00   10:      0.00   11:      0.00   12:      0.00
   13:      0.00   14:      0.00   15:      0.00   16:      0.00   17:      0.00   18:      0.00
   19:      0.00   20:      0.00   21:      0.00   22:      0.00   23:      0.00   24:      0.00
 output can be read by thermo (or use thermo option).
 writing <g98.out> molden fake output.
 recommended (thermochemical) frequency scaling factor: 1.0
           -------------------------------------------------
          |             Thermodynamic Functions             |
           -------------------------------------------------

cs  symmetry found (for desy threshold:  0.10E+00) used in thermo

          ...................................................
          :                      SETUP                      :
          :.................................................:
          :  # frequencies                          18      :
          :  # imaginary freq.                       0      :
          :  linear?                             false      :
          :  only rotor calc.                    false      :
          :  symmetry                               cs      :
          :  rotational number                       1      :
          :  scaling factor                  1.0000000      :
          :  rotor cutoff                    0.0000000 cm⁻¹ :
          :  imag. cutoff                 -100.0000000 cm⁻¹ :
          :.................................................:

    mode    ω/cm⁻¹     T·S(HO)/kcal·mol⁻¹    T·S(FR)/kcal·mol⁻¹   T·S(vib)
   ------------------------------------------------------------------------
       1     25.75    -1.82838 (100.00%)    -1.25011 (  0.00%)    -1.82838
       2    268.50    -0.47877 (100.00%)    -0.55832 (  0.00%)    -0.47877
   ------------------------------------------------------------------------

   temp. (K)  partition function   enthalpy   heat capacity  entropy
                                   cal/mol     cal/K/mol   cal/K/mol   J/K/mol
 298.15  VIB   15.2                 1237.645      8.067      9.554
         ROT  0.315E+05              888.727      2.981     23.565
         INT  0.478E+06             2126.372     11.048     33.119
         TR   0.142E+26             1481.212      4.968     38.198
         TOT                        3607.5844    16.0161    71.3170   298.3905

       T/K    H(0)-H(T)+PV         H(T)/Eh          T*S/Eh         G(T)/Eh
   ------------------------------------------------------------------------
    298.15    0.574905E-02    0.650102E-01    0.338850E-01    0.311251E-01
   ------------------------------------------------------------------------

         :::::::::::::::::::::::::::::::::::::::::::::::::::::
         ::                  THERMODYNAMIC                  ::
         :::::::::::::::::::::::::::::::::::::::::::::::::::::
         :: total free energy         -14.412244493062 Eh   ::
         ::.................................................::
         :: total energy              -14.443369637751 Eh   ::
         :: zero point energy           0.059261116579 Eh   ::
         :: G(RRHO) w/o ZPVE           -0.028135971889 Eh   ::
         :: G(RRHO) contrib.            0.031125144690 Eh   ::
         :::::::::::::::::::::::::::::::::::::::::::::::::::::

optimized geometry written to: xtbopt.coord


           -------------------------------------------------
          | TOTAL ENERGY              -14.443369637751 Eh   |
          | TOTAL ENTHALPY            -14.378359469428 Eh   |
          | TOTAL FREE ENERGY         -14.412244493062 Eh   |
          | GRADIENT NORM               0.000059702671 Eh/α |
          | HOMO-LUMO GAP               5.138545991337 eV   |
           -------------------------------------------------

------------------------------------------------------------------------
 * finished run on 2025/04/08 at 23:37:46.746     
------------------------------------------------------------------------
 total:
 * wall-time:     0 d,  0 h,  0 min,  0.121 sec
 *  cpu-time:     0 d,  0 h,  0 min,  0.106 sec
 * ratio c/w:     0.872 speedup
 SCF:
 * wall-time:     0 d,  0 h,  0 min,  0.002 sec
 *  cpu-time:     0 d,  0 h,  0 min,  0.002 sec
 * ratio c/w:     0.994 speedup
 ANC optimizer:
 * wall-time:     0 d,  0 h,  0 min,  0.024 sec
 *  cpu-time:     0 d,  0 h,  0 min,  0.019 sec
 * ratio c/w:     0.794 speedup
 analytical hessian:
 * wall-time:     0 d,  0 h,  0 min,  0.089 sec
 *  cpu-time:     0 d,  0 h,  0 min,  0.079 sec
 * ratio c/w:     0.884 speedup

