      -----------------------------------------------------------      
     |                   =====================                   |     
     |                           x T B                           |     
     |                   =====================                   |     
     |                         S. Grimme                         |     
     |          Mulliken Center for Theoretical Chemistry        |     
     |                    University of Bonn                     |     
      -----------------------------------------------------------      

   * xtb version 6.7.1 (41059b4) compiled by 'michael@archlinux' on 2025-03-24

   xtb is free software: you can redistribute it and/or modify it under
   the terms of the GNU Lesser General Public License as published by
   the Free Software Foundation, either version 3 of the License, or
   (at your option) any later version.
   
   xtb is distributed in the hope that it will be useful,
   but WITHOUT ANY WARRANTY; without even the implied warranty of
   MERCHANTABILITY or FITNESS FOR A PARTICULAR PURPOSE.  See the
   GNU Lesser General Public License for more details.
   
   Cite this work as:
   * C. Bannwarth, E. Caldeweyher, S. Ehlert, A. Hansen, P. Pracht,
     J. Seibert, S. Spicher, S. Grimme, WIREs Comput. Mol. Sci., 2020, 11,
     e01493. DOI: 10.1002/wcms.1493
   
   for GFN2-xTB:
   * C. Bannwarth, S. Ehlert and S. Grimme., J. Chem. Theory Comput., 2019,
     15, 1652-1671. DOI: 10.1021/acs.jctc.8b01176
   for GFN1-xTB:
   * S. Grimme, C. Bannwarth, P. Shushkov, J. Chem. Theory Comput., 2017,
     13, 1989-2009. DOI: 10.1021/acs.jctc.7b00118
   for GFN0-xTB:
   * P. Pracht, E. Caldeweyher, S. Ehlert, S. Grimme, ChemRxiv, 2019, preprint.
     DOI: 10.26434/chemrxiv.8326202.v1
   for GFN-FF:
   * S. Spicher and S. Grimme, Angew. Chem. Int. Ed., 2020, 59, 15665-15673.
     DOI: 10.1002/anie.202004239
   
   for ALPB and GBSA implicit solvation:
   * S. Ehlert, M. Stahn, S. Spicher, S. Grimme, J. Chem. Theory Comput.,
     2021, 17, 4250-4261. DOI: 10.1021/acs.jctc.1c00471
   
   for ddCOSMO and CPCM-X implicit solvation:
   * M. Stahn, S. Ehlert, S. Grimme, J. Phys. Chem. A,
     2023, XX, XXXX-XXXX. DOI: 10.1021/acs.jpca.3c04382
   
   for DFT-D4:
   * E. Caldeweyher, C. Bannwarth and S. Grimme, J. Chem. Phys., 2017,
     147, 034112. DOI: 10.1063/1.4993215
   * E. Caldeweyher, S. Ehlert, A. Hansen, H. Neugebauer, S. Spicher,
     C. Bannwarth and S. Grimme, J. Chem. Phys., 2019, 150, 154122.
     DOI: 10.1063/1.5090222
   * E. Caldeweyher, J.-M. Mewes, S. Ehlert and S. Grimme, Phys. Chem. Chem. Phys.
     2020, 22, 8499-8512. DOI: 10.1039/D0CP00502A
   
   for sTDA-xTB:
   * S. Grimme and C. Bannwarth, J. Chem. Phys., 2016, 145, 054103.
     DOI: 10.1063/1.4959605
   
   in the mass-spec context:
   * V. Asgeirsson, C. Bauer and S. Grimme, Chem. Sci., 2017, 8, 4879.
     DOI: 10.1039/c7sc00601b
   * J. Koopman and S. Grimme, ACS Omega 2019, 4, 12, 15120-15133.
     DOI: 10.1021/acsomega.9b02011
   
   for metadynamics refer to:
   * S. Grimme, J. Chem. Theory Comput., 2019, 155, 2847-2862
     DOI: 10.1021/acs.jctc.9b00143
   
   for SPH calculations refer to:
   * S. Spicher and S. Grimme, J. Chem. Theory Comput., 2021, 17, 1701-1714
     DOI: 10.1021/acs.jctc.0c01306
   
   for ONIOM refer to:
   * C. Plett, A. Katbashev, S. Ehlert, S. Grimme, M. Bursch,
     Phys. Chem. Chem. Phys., 2023, 25, 17860-17868. DOI: 10.1039/D3CP02178E
   
   for DIPRO refer to:
   * J. Kohn, N. Gildemeister, S. Grimme, D. Fazzi, A. Hansen,
     J. Chem. Phys., 2023, just accepted.
   
   for PTB refer to:
   * S. Grimme, M. Mueller, A. Hansen, J. Chem. Phys., 2023, 158, 124111.
     DOI: 10.1063/5.0137838
   
   with help from (in alphabetical order)
   P. Atkinson, C. Bannwarth, F. Bohle, G. Brandenburg, E. Caldeweyher
   M. Checinski, S. Dohm, S. Ehlert, S. Ehrlich, I. Gerasimov, C. Hölzer
   A. Katbashev, J. Kohn, J. Koopman, C. Lavigne, S. Lehtola, F. März, M. Müller,
   F. Musil, H. Neugebauer, J. Pisarek, C. Plett, P. Pracht, F. Pultar,
   J. Seibert, P. Shushkov, S. Spicher, M. Stahn, M. Steiner, T. Strunk,
   J. Stückrath, T. Rose, and J. Unsleber
   
 * started run on 2025/04/08 at 23:24:17.219     
   ID    Z sym.   atoms
    1    6 C      1-8
    2    8 O      9
    3    1 H      10-19

           -------------------------------------------------
          |                Calculation Setup                |
           -------------------------------------------------

          program call               : /usr/bin/xtb xtb_opt.coord --opt normal --orca -I xtb_opt-xcontrol-inp
          coordinate file            : xtb_opt.coord
          omp threads                :                    16

           -------------------------------------------------
          |                   Orca driver                   |
           -------------------------------------------------
orca executable           : /home/michael/Documents/CHEM4561/orca_avx2/orca
orca input file           : xtb_opt.inp
orca input line           : 
orca parallel             : true
orca number of threads    : 16
                         * ORCA takes the control...
  ------------------------------------------------------------------------

                                 *****************
                                 * O   R   C   A *
                                 *****************

                                            #,                                       
                                            ###                                      
                                            ####                                     
                                            #####                                    
                                            ######                                   
                                           ########,                                 
                                     ,,################,,,,,                         
                               ,,#################################,,                 
                          ,,##########################################,,             
                       ,#########################################, ''#####,          
                    ,#############################################,,   '####,        
                  ,##################################################,,,,####,       
                ,###########''''           ''''###############################       
              ,#####''   ,,,,##########,,,,          '''####'''          '####       
            ,##' ,,,,###########################,,,                        '##       
           ' ,,###''''                  '''############,,,                           
         ,,##''                                '''############,,,,        ,,,,,,###''
      ,#''                                            '''#######################'''  
     '                                                          ''''####''''         
             ,#######,   #######,   ,#######,      ##                                
            ,#'     '#,  ##    ##  ,#'     '#,    #''#        ,####,   ,####,        
            ##       ##  ##   ,#'  ##            #'  '#       #'       #'  '#        
            ##       ##  #######   ##           ,######,      #####,   #    #        
            '#,     ,#'  ##    ##  '#,     ,#' ,#      #,     #,   #   #,  ,#        
             '#######'   ##     ##  '#######'  #'      '#     '####' # '####'        



                #########################################################
                #                        -***-                          #
                #          Department of theory and spectroscopy        #
                #                                                       #
                #                      Frank Neese                      #
                #                                                       #
                #     Directorship, Architecture, Infrastructure        #
                #                    SHARK, DRIVERS                     #
                #        Core code/Algorithms in most modules           #
                #                                                       #
                #        Max Planck Institute fuer Kohlenforschung      #
                #                Kaiser Wilhelm Platz 1                 #
                #                 D-45470 Muelheim/Ruhr                 #
                #                      Germany                          #
                #                                                       #
                #                  All rights reserved                  #
                #                        -***-                          #
                #########################################################


                         Program Version 6.0.1  -  RELEASE   -


 With contributions from (in alphabetic order):
[Max-Planck-Institut fuer Kohlenforschung]                               
  Daniel Aravena         : Magnetic Suceptibility                        
  Michael Atanasov       : Ab Initio Ligand Field Theory (pilot matlab implementation)
  Alexander A. Auer      : GIAO ZORA, VPT2 properties, NMR spectrum      
  Ute Becker             : All parallelization in ORCA, NUMFREQ, NUMCALC 
  Giovanni Bistoni       : ED, misc. LED, open-shell LED, HFLD           
  Martin Brehm           : Molecular dynamics                            
  Dmytro Bykov           : pre 5.0 version of the SCF Hessian            
  Marcos Casanova-Páez   : Triplet and SCS-CIS(D). UHF-(DLPNO)-IP/EA/STEOM-CCSD. UHF-CVS-IP/STEOM-CCSD   
  Vijay G. Chilkuri      : MRCI spin determinant printing, contributions to CSF-ICE 
  Pauline Colinet        : FMM embedding                                 
  Dipayan Datta          : RHF DLPNO-CCSD density                        
  Achintya Kumar Dutta   : EOM-CC, STEOM-CC                              
  Nicolas Foglia         : Exact transition moments, OPA infrastructure, MCD improvements    
  Dmitry Ganyushin       : Spin-Orbit,Spin-Spin,Magnetic field MRCI      
  Miquel Garcia-Rates    : C-PCM and meta-GGA Hessian, CCSD/C-PCM, Gaussian charge scheme 
  Tiago L. C. Gouveia    : GS-ROHF, GS-ROCIS                             
  Yang Guo               : DLPNO-NEVPT2, F12-NEVPT2, CIM, IAO-localization        
  Andreas Hansen         : Spin unrestricted coupled pair/coupled cluster methods 
  Ingolf Harden          : AUTO-CI MPn and infrastructure                
  Benjamin Helmich-Paris : MC-RPA, TRAH-(SCF,CASSCF), AVAS, COSX integrals, SCF dyn. polar. 
  Lee Huntington         : MR-EOM, pCC                                   
  Robert Izsak           : Overlap fitted RIJCOSX, COSX-SCS-MP3, EOM     
  Riya Kayal             : Wick's Theorem for AUTO-CI, AUTO-CI UHF-CCSDT 
  Emily Kempfer          : AUTO-CI, RHF CISDT and CCSDT                  
  Christian Kollmar      : KDIIS, OOCD, Brueckner-CCSD(T), CCSD density, CASPT2, CASPT2-K, improved NEVPT2 
  Axel Koslowski         : Symmetry handling                             
  Simone Kossmann        : meta-GGA functionals, TD-DFT gradient, OOMP2, (MP2 Hessian; deprecated post 5.0) 
  Lucas Lang             : DCDCAS                                        
  Marvin Lechner         : AUTO-CI (C++ implementation), FIC-MRCC        
  Spencer Leger          : CASSCF response                               
  Dagmar Lenk            : GEPOL surface, SMD, ORCA-2-JSON               
  Dimitrios Liakos       : Extrapolation schemes; Compound Job, initial MDCI parallelization 
  Dimitrios Manganas     : Further ROCIS development; embedding schemes. LFT, Crystal Embedding 
  Dimitrios Pantazis     : SARC Basis sets                               
  Anastasios Papadopoulos: AUTO-CI, single reference methods and gradients 
  Taras Petrenko         : pre 6.0 DFT Hessian and TD-DFT gradient, (ASA, deprecated), ECA, 1-Electron XAS/XES, NRVS 
  Peter Pinski           : DLPNO-MP2, DLPNO-MP2 Gradient                 
  Christoph Reimann      : Effective Core Potentials                     
  Marius Retegan         : Local ZFS, SOC                                
  Christoph Riplinger    : Optimizer, TS searches, QM/MM, DLPNO-CCSD(T), (RO)-DLPNO pert. Triples 
  Michael Roemelt        : Original ROCIS implementation                 
  Masaaki Saitow         : Open-shell DLPNO-CCSD energy and density      
  Barbara Sandhoefer     : DKH picture change effects                    
  Kantharuban Sivalingam : CASSCF convergence/infrastructure, NEVPT2 and variants, FIC-MRCI 
  Bernardo de Souza      : ESD, SOC TD-DFT                               
  Georgi L. Stoychev     : AutoAux, RI-MP2 NMR, DLPNO-MP2 response, X2C  
  Van Anh Tran           : RI-MP2 g-tensors                              
  Willem Van den Heuvel  : Paramagnetic NMR                              
  Zikuan Wang            : NOTCH, Electric field optimization            
  Frank Wennmohs         : Technical directorship and infrastructure     
  Hang Xu                : AUTO-CI-Response properties                   
                                                                         
[FACCTs GmbH]                                                            
  Markus Bursch, Miquel Garcia-Rates, Christoph Riplinger, Bernardo de Souza, Georgi L. Stoychev 
                                                                 
  APM, Basis sets (HGBS, AHGBS, def-TZVP (Ac-Lr), def2-XVPD (La-Lu)), CI-OPT, improved COSX, DLPNO-Multilevel,           
  DOCKER, DRACO, updates on ESD, GOAT, IRC, LR-CPCM, MBIS, meta-GGA TD-DFT gradient, ML-optimized integration grids, 
  MM, NACMEs, nearIR, NEB, NEB-TS, NL-DFT gradient (VV10), 2- and 3-layer-ONIOM, interface openCOSMO-RS, QMMM,   
  Crystal-QMMM, SF, symmetry and pop. for TD-DFT, r2SCAN hybrids, SOLVATOR                                   
                                                                         
[Other institutions]                                                     
  V. Asgeirsson          : NEB                                           
  Christoph Bannwarth    : sTDA-DFT, sTD-DFT, PBEh-3c, B97-3c, D3        
  Sebastian Ehlert       : rSCAN, r2SCAN, r2SCAN-3c, D4, dhf basis sets  
  Marvin Friede          : D4 for Fr, Ra, Ac-Lr                          
  Lars Goerigk           : TD-DFT with DH, B97 family of functionals     
  Stefan Grimme          : VdW corrections, initial TS optimization, DFT functionals, gCP, sTDA/sTD-DF 
  Waldemar Hujo          : DFT-NL                                        
  H. Jonsson             : NEB                                           
  Holger Kruse           : gCP                                           
  Marcel Mueller         : wB97X-3c, vDZP basis set                      
  Hagen Neugebauer       : wr2SCAN                                       
  Tobias Risthaus        : range-separated hybrid DFT                    
  Lukas Wittmann         : regularized MP2, r2SCAN double-hybrids, wr2SCAN        
                                                                         
We gratefully acknowledge several colleagues who have allowed us to      
interface, adapt or use parts of their codes:                            
  Ed Valeev, F. Pavosevic, A. Kumar             : LibInt (2-el integral package), F12 methods 
  Garnet Chan, S. Sharma, J. Yang, R. Olivares  : DMRG                   
  Ulf Ekstrom                                   : XCFun DFT Library      
  Mihaly Kallay                                 : mrcc  (arbitrary order and MRCC methods)
  Frank Weinhold                                : gennbo (NPA and NBO analysis)           
  Simon Mueller                                 : openCOSMO-RS                            
  Christopher J. Cramer and Donald G. Truhlar   : smd solvation model                     
  S Lehtola, MJT Oliveira, MAL Marques          : LibXC Library                           
  Liviu Ungur et al                             : ANISO software                          


 Your calculation uses the libint2 library for the computation of 2-el integrals
 For citations please refer to: http://libint.valeyev.net

 Your ORCA version has been built with support for libXC version: 6.2.2
 For citations please refer to: https://libxc.gitlab.io

 This ORCA versions uses:
   CBLAS   interface :  Fast vector & matrix operations
   LAPACKE interface :  Fast linear algebra routines
   SCALAPACK package :  Parallel linear algebra routines
   Shared memory     :  Shared parallel matrices
   BLAS/LAPACK       :  OpenBLAS 0.3.27  USE64BITINT DYNAMIC_ARCH NO_AFFINITY Zen SINGLE_THREADED
        Core in use  :  Zen
   Copyright (c) 2011-2014, The OpenBLAS Project




***************************************
The coordinates will be read from file: xtb_opt.xyz
***************************************


Your calculation utilizes the geometrical counterpoise correction gCP
Please cite in your paper:
H.Kruse, S. Grimme J.Chem.Phys., 136, (2012), 154101 
   

Your calculation utilizes the atom-pairwise dispersion correction
based on EEQ partial charges (D4)


================================================================================

----- Orbital basis set information -----
Your calculation utilizes the basis: def2-mTZVPP
   Stefan Grimme, Andreas Hansen, Sebastian Ehlert, and Jan-Michael Mewes 
   J. Chem. Phys. 154, 064103 (2021). DOI: 10.1063/5.0040021

----- AuxJ basis set information -----
Your calculation utilizes the auxiliary basis: def2/J
   F. Weigend, Phys. Chem. Chem. Phys. 8, 1057 (2006).

================================================================================
                                        WARNINGS
                       Please study these warnings very carefully!
================================================================================



WARNING: SCAN, rSCAN, or r2SCAN functional requested.
  ===> : libXC variant has now been activated.



================================================================================
                                       INPUT FILE
================================================================================
NAME = xtb_opt.inp
|  1> ! r2scan-3c def2/J RI DEFGRID2 scfconv7 ENGRAD tightSCF miniprint
|  2> * xyzfile 0 1 xtb_opt.xyz
|  3> 
|  4>                          ****END OF INPUT****
================================================================================

                     *******************************
                     * Energy+Gradient Calculation *
                     *******************************

---------------------------------
CARTESIAN COORDINATES (ANGSTROEM)
---------------------------------
  C     -2.560504    0.602521   -0.002809
  C     -1.216679   -0.062421   -0.000044
  C     -1.135788   -1.446804   -0.000169
  C      0.092829   -2.082091    0.001625
  C      1.249965   -1.333751    0.001308
  C      1.185748    0.056429    0.000170
  C     -0.049923    0.709402    0.002099
  C     -0.170634    2.209315    0.003685
  O      2.383363    0.708722   -0.003896
  H     -2.686549    1.225873    0.882073
  H     -2.674630    1.241805   -0.877730
  H     -3.353155   -0.140862   -0.014271
  H     -2.043780   -2.031757   -0.001577
  H      0.147850   -3.160185    0.002105
  H      2.223715   -1.796860    0.000767
  H     -0.753977    2.538131    0.863392
  H      0.789922    2.720765    0.045046
  H     -0.686126    2.546763   -0.895715
  H      2.246477    1.662851   -0.012135

----------------------------
CARTESIAN COORDINATES (A.U.)
----------------------------
  NO LB      ZA    FRAG     MASS         X           Y           Z
   0 C     6.0000    0    12.011   -4.838652    1.138599   -0.005309
   1 C     6.0000    0    12.011   -2.299189   -0.117959   -0.000082
   2 C     6.0000    0    12.011   -2.146328   -2.734063   -0.000319
   3 C     6.0000    0    12.011    0.175422   -3.934581    0.003071
   4 C     6.0000    0    12.011    2.362091   -2.520424    0.002471
   5 C     6.0000    0    12.011    2.240740    0.106635    0.000320
   6 C     6.0000    0    12.011   -0.094341    1.340576    0.003967
   7 C     6.0000    0    12.011   -0.322452    4.175001    0.006964
   8 O     8.0000    0    15.999    4.503903    1.339290   -0.007362
   9 H     1.0000    0     1.008   -5.076842    2.316563    1.666877
  10 H     1.0000    0     1.008   -5.054318    2.346672   -1.658669
  11 H     1.0000    0     1.008   -6.336544   -0.266191   -0.026969
  12 H     1.0000    0     1.008   -3.862184   -3.839464   -0.002981
  13 H     1.0000    0     1.008    0.279395   -5.971883    0.003977
  14 H     1.0000    0     1.008    4.202213   -3.395573    0.001449
  15 H     1.0000    0     1.008   -1.424809    4.796372    1.631574
  16 H     1.0000    0     1.008    1.492735    5.141502    0.085125
  17 H     1.0000    0     1.008   -1.296590    4.812684   -1.692656
  18 H     1.0000    0     1.008    4.245226    3.142332   -0.022933

------------------------------------------------------------------------------
                   ___                                                        
                  /   \      - P O W E R E D   B Y -                         
                 /     \                                                     
                 |  |  |   _    _      __       _____    __    __             
                 |  |  |  | |  | |    /  \     |  _  \  |  |  /  |          
                  \  \/   | |  | |   /    \    | | | |  |  | /  /          
                 / \  \   | |__| |  /  /\  \   | |_| |  |  |/  /          
                |  |  |   |  __  | /  /__\  \  |    /   |      \           
                |  |  |   | |  | | |   __   |  |    \   |  |\   \          
                \     /   | |  | | |  |  |  |  | |\  \  |  | \   \       
                 \___/    |_|  |_| |__|  |__|  |_| \__\ |__|  \__/        
                                                                              
                      - O R C A' S   B I G   F R I E N D -                    
                                      &                                       
                       - I N T E G R A L  F E E D E R -                       
                                                                              
 v1 FN, 2020, v2 2021, v3 2022-2024                                           
------------------------------------------------------------------------------


----------------------
SHARK INTEGRAL PACKAGE
----------------------

Number of atoms                             ...     19
Number of basis functions                   ...    226
Number of shells                            ...    112
Maximum angular momentum                    ...      2
Integral batch strategy                     ... SHARK/LIBINT Hybrid
RI-J (if used) integral strategy            ... SPLIT-RIJ (Revised 2003 algorithm where possible)
Printlevel                                  ...      1
Contraction scheme used                     ... SEGMENTED contraction
Prescreening option                         ... SCHWARTZ
   Thresh                                   ... 3.000e-11
   Tcut                                     ... 1.000e-12
   Tpresel                                  ... 1.000e-12 
Coulomb Range Separation                    ... NOT USED
Exchange Range Separation                   ... NOT USED
Multipole approximations                    ... NOT USED
Finite Nucleus Model                        ... NOT USED
CABS basis                                  ... NOT available
Auxiliary Coulomb fitting basis             ... AVAILABLE
   # of basis functions in Aux-J            ...    551
   # of shells in Aux-J                     ...    185
   Maximum angular momentum in Aux-J        ...      4
Auxiliary J/K fitting basis                 ... NOT available
Auxiliary Correlation fitting basis         ... NOT available
Auxiliary 'external' fitting basis          ... NOT available

Checking pre-screening integrals            ... done (  0.0 sec) Dimension = 112
Check shell pair data                       ... done (  0.0 sec)
Shell pair information
Shell pair cut-off parameter TPreSel        ...   1.0e-12
Total number of shell pairs                 ...      6328
Shell pairs after pre-screening             ...      5728
Total number of primitive shell pairs       ...     23019
Primitive shell pairs kept                  ...     14812
          la=0 lb=0:   1890 shell pairs
          la=1 lb=0:   2184 shell pairs
          la=1 lb=1:    651 shell pairs
          la=2 lb=0:    600 shell pairs
          la=2 lb=1:    349 shell pairs
          la=2 lb=2:     54 shell pairs

Calculating one electron integrals          ... done (  0.0 sec)
Calculating RI/J V-Matrix + Cholesky decomp.... done (  0.0 sec)
Calculating Nuclear repulsion               ... done (  0.0 sec) ENN=    433.066668281017 Eh

Diagonalization of the overlap matrix:
Smallest eigenvalue                        ... 1.808e-05
Time for diagonalization                   ...    0.003 sec
Threshold for overlap eigenvalues          ... 1.000e-07
Number of eigenvalues below threshold      ... 0
Time for construction of square roots      ...    0.001 sec
Total time needed                          ...    0.006 sec

-------------------
DFT GRID GENERATION
-------------------

General Integration Accuracy     IntAcc      ... 4.388
Radial Grid Type                 RadialGrid  ... OptM3 with GC (2021)
Angular Grid (max. ang.)         AngularGrid ... 4 (Lebedev-302)
Angular grid pruning method      GridPruning ... 4 (adaptive)
Weight generation scheme         WeightScheme... mBecke (2022)
Basis function cutoff            BFCut       ... 1.0000e-11
Integration weight cutoff        WCut        ... 1.0000e-14
Partially contracted basis set               ... off
Rotationally invariant grid construction     ... off
Angular grids for H and He will be reduced by one unit
Diffuse basis detected: some atoms will have their outermost
                        angular grid increased by 1.

Total number of grid points                  ...    86305
Total number of batches                      ...     1361
Average number of points per batch           ...       63
Average number of grid points per atom       ...     4542
Initializing property integral containers    ... done (  0.0 sec)

SHARK setup successfully completed in   0.6 seconds

Maximum memory used throughout the entire STARTUP-calculation: 40.0 MB
Occupation numbers will be reassigned to an Aufbau configuration
             **** ENERGY FILE WAS UPDATED (xtb_opt.en.tmp) ****
Finished Guess after   0.0 sec
Maximum memory used throughout the entire GUESS-calculation: 16.9 MB
----------------------------------------D-I-I-S--------------------------------------------
Iteration    Energy (Eh)           Delta-E    RMSDP     MaxDP     DIISErr   Damp  Time(sec)
-------------------------------------------------------------------------------------------
               ***  Starting incremental Fock matrix formation  ***
                              *** Initializing SOSCF ***
---------------------------------------S-O-S-C-F--------------------------------------
Iteration    Energy (Eh)           Delta-E    RMSDP     MaxDP     MaxGrad    Time(sec)
--------------------------------------------------------------------------------------
    1    -386.0041299204222582     0.00e+00  7.01e-06  1.17e-04  3.87e-05     1.6
               *** Restarting incremental Fock matrix formation ***
    2    -386.0041299550223926    -3.46e-08  8.43e-06  1.36e-04  5.07e-05     1.6
    3    -386.0041297724762330     1.83e-07  5.86e-06  9.54e-05  1.38e-04     1.2
    4    -386.0041300327932845    -2.60e-07  3.39e-06  1.05e-04  2.29e-05     1.2
                  *** Gradient check signals convergence ***

               *****************************************************
               *                     SUCCESS                       *
               *           SCF CONVERGED AFTER   4 CYCLES          *
               *****************************************************

             **** ENERGY FILE WAS UPDATED (xtb_opt.en.tmp) ****

----------------
TOTAL SCF ENERGY
----------------

Total Energy       :       -386.00413003279328 Eh          -10503.70638 eV

Components:
Nuclear Repulsion  :        433.06666828101703 Eh           11784.34315 eV
Electronic Energy  :       -819.07079831381031 Eh          -22288.04952 eV
One Electron Energy:      -1380.18783075609554 Eh          -37556.82023 eV
Two Electron Energy:        561.11703244228522 Eh           15268.77070 eV

Virial components:
Potential Energy   :       -770.44877013217729 Eh          -20964.97687 eV
Kinetic Energy     :        384.44464009938395 Eh           10461.27050 eV
Virial Ratio       :          2.00405647464094

DFT components:
N(Alpha)           :       33.000042987163 electrons
N(Beta)            :       33.000042987163 electrons
N(Total)           :       66.000085974327 electrons
E(X)               :      -53.532417925886 Eh       
E(C)               :       -2.123343056256 Eh       
E(XC)              :      -55.655760982142 Eh       

---------------
SCF CONVERGENCE
---------------

  Last Energy change         ...    2.6032e-07  Tolerance :   1.0000e-07
  Last MAX-Density change    ...    1.0487e-04  Tolerance :   1.0000e-07
  Last RMS-Density change    ...    3.3858e-06  Tolerance :   5.0000e-09
  Last DIIS Error            ...    1.3121e-04  Tolerance :   1.0000e-07
  Last Orbital Gradient      ...    2.2884e-05  Tolerance :   1.0000e-04
  Last Orbital Rotation      ...    1.0442e-04  Tolerance :   1.0000e-04


----------------
ORBITAL ENERGIES
----------------

  NO   OCC          E(Eh)            E(eV) 
   0   2.0000     -18.980289      -516.4799 
   1   2.0000     -10.090366      -274.5728 
   2   2.0000     -10.042978      -273.2833 
   3   2.0000     -10.040134      -273.2059 
   4   2.0000     -10.039629      -273.1922 
   5   2.0000     -10.028837      -272.8985 
   6   2.0000     -10.027213      -272.8543 
   7   2.0000     -10.021163      -272.6897 
   8   2.0000     -10.018908      -272.6283 
   9   2.0000      -1.025155       -27.8959 
  10   2.0000      -0.825114       -22.4525 
  11   2.0000      -0.751059       -20.4373 
  12   2.0000      -0.725007       -19.7284 
  13   2.0000      -0.672497       -18.2996 
  14   2.0000      -0.645687       -17.5700 
  15   2.0000      -0.574275       -15.6268 
  16   2.0000      -0.548589       -14.9279 
  17   2.0000      -0.508382       -13.8338 
  18   2.0000      -0.461370       -12.5545 
  19   2.0000      -0.435264       -11.8441 
  20   2.0000      -0.417456       -11.3596 
  21   2.0000      -0.390712       -10.6318 
  22   2.0000      -0.378245       -10.2926 
  23   2.0000      -0.376110       -10.2345 
  24   2.0000      -0.375109       -10.2072 
  25   2.0000      -0.370862       -10.0917 
  26   2.0000      -0.364815        -9.9271 
  27   2.0000      -0.339708        -9.2439 
  28   2.0000      -0.317697        -8.6450 
  29   2.0000      -0.300117        -8.1666 
  30   2.0000      -0.299609        -8.1528 
  31   2.0000      -0.219506        -5.9731 
  32   2.0000      -0.198073        -5.3898 
  33   0.0000      -0.024626        -0.6701 
  34   0.0000      -0.007905        -0.2151 
  35   0.0000       0.044735         1.2173 
  36   0.0000       0.087951         2.3933 
  37   0.0000       0.096743         2.6325 
  38   0.0000       0.125024         3.4021 
  39   0.0000       0.127590         3.4719 
  40   0.0000       0.136544         3.7156 
  41   0.0000       0.137456         3.7404 
  42   0.0000       0.144206         3.9240 
  43   0.0000       0.149615         4.0712 
*Only the first 10 virtual orbitals were printed.
Total SCF time: 0 days 0 hours 0 min 5 sec 
Finished LeanSCF after   5.6 sec

Maximum memory used throughout the entire LEANSCF-calculation: 26.4 MB


-------------------------------------------------------------------------------
                          DFT DISPERSION CORRECTION                            
                                                                               
                                DFTD4 V3.4.0                                   
-------------------------------------------------------------------------------
-------------------------   ----------------
Dispersion correction           -0.006360092
-------------------------   ----------------

------------------   -----------------
gCP correction             0.007701492
------------------   -----------------

-------------------------   --------------------
FINAL SINGLE POINT ENERGY      -386.002788632217
-------------------------   --------------------

------------------------------------------------------------------------------
                         ORCA SCF GRADIENT CALCULATION
------------------------------------------------------------------------------

Nuc. rep. gradient        (SHARK) ... done (  0.0 sec)
HCore & Overlap gradient  (SHARK) ... done (  0.2 sec)
Split-RIJ-J gradient      (SHARK) ... done (  1.2 sec)
XC gradient                       ... done (  4.7 sec)
Dispersion correction             ... done (  0.0 sec)

-------------------
DISPERSION GRADIENT
-------------------

   1   C   :   -0.000112649    0.000029434   -0.000000067
   2   C   :   -0.000062699   -0.000008599    0.000000021
   3   C   :   -0.000048959   -0.000091216   -0.000000014
   4   C   :    0.000020121   -0.000116059    0.000000103
   5   C   :    0.000075790   -0.000078296    0.000000066
   6   C   :    0.000085094   -0.000003829    0.000000017
   7   C   :    0.000015133    0.000040005    0.000000094
   8   C   :    0.000003602    0.000113862    0.000000108
   9   O   :    0.000098660    0.000050217   -0.000000299
  10   H   :   -0.000044176    0.000015551    0.000011933
  11   H   :   -0.000043919    0.000015808   -0.000011834
  12   H   :   -0.000048599   -0.000000633   -0.000000220
  13   H   :   -0.000028585   -0.000037340   -0.000000037
  14   H   :    0.000004836   -0.000044833    0.000000039
  15   H   :    0.000036093   -0.000025488    0.000000014
  16   H   :   -0.000005701    0.000047149    0.000013064
  17   H   :    0.000016398    0.000045568    0.000000676
  18   H   :   -0.000004592    0.000047542   -0.000013611
  19   H   :    0.000044152    0.000001158   -0.000000053

Difference to translation invariance:
           :   -0.0000000000   -0.0000000000    0.0000000000

Difference to rotation invariance:
           :    0.0000000000    0.0000000000    0.0000000000

Norm of the Dispersion gradient    ...    0.0003327898
RMS gradient                       ...    0.0000440791
MAX gradient                       ...    0.0001160586
gCP correction                   ... done

------------------
CARTESIAN GRADIENT
------------------

   1   C   :   -0.003195794    0.001607116   -0.000075163
   2   C   :    0.003218224    0.001422137    0.000006164
   3   C   :    0.003507297    0.002597450   -0.000000360
   4   C   :   -0.001104973    0.000703078   -0.000006612
   5   C   :   -0.005401999   -0.000755902   -0.000008540
   6   C   :    0.003370974    0.001650041    0.000082894
   7   C   :   -0.001566936   -0.005921921   -0.000149944
   8   C   :   -0.001309402    0.005812954    0.000259820
   9   O   :   -0.005152180   -0.002898884   -0.000034457
  10   H   :    0.002112855   -0.003055961   -0.002625821
  11   H   :    0.002103882   -0.003131292    0.002604776
  12   H   :    0.002861526    0.001510030    0.000047229
  13   H   :    0.003516861    0.001830789    0.000008572
  14   H   :   -0.000525962    0.003895361   -0.000001830
  15   H   :   -0.004031423    0.002358713    0.000005498
  16   H   :    0.001024853   -0.003153185   -0.002294270
  17   H   :   -0.001309689   -0.003204027   -0.000190870
  18   H   :    0.000921767   -0.003171539    0.002352960
  19   H   :    0.000960117    0.001905040    0.000019955

Difference to translation invariance:
           :    0.0000000000    0.0000000000   -0.0000000000

Difference to rotation invariance:
           :    0.0001768098   -0.0002259304    0.0003743129

Norm of the Cartesian gradient     ...    0.0187696850
RMS gradient                       ...    0.0024861055
MAX gradient                       ...    0.0059219207

-------
TIMINGS
-------

Total SCF gradient time     ....        6.148 sec

Densities                   ....       0.000 sec  (  0.0%)
One electron gradient       ....       0.217 sec  (  3.5%)
RI-J Coulomb gradient       ....       1.225 sec  ( 19.9%)
XC gradient                 ....       4.684 sec  ( 76.2%)

Maximum memory used throughout the entire SCFGRAD-calculation: 37.2 MB

------------------------------------------------------------------------------
                              ORCA PROPERTY CALCULATIONS
------------------------------------------------------------------------------

GBWName                                 ... xtb_opt.gbw
Number of atoms                         ...     19
Number of basis functions               ...    226
Max core memory                         ...   1024 MB

Electric properties:
Dipole moment                           ... YES
Quadrupole moment                       ...  NO
Static polarizability (Dipole/Dipole)   ...  NO
Static polarizability (Dipole/Quad.)    ...  NO
Static polarizability (Quad./Quad.)     ...  NO
Static polarizability (Velocity)        ...  NO

Atomic electric properties:
Dipole moment                           ...  NO
Quadrupole moment                       ...  NO
Static polarizability                   ...  NO

Choice of electric origin               ... Center of mass
Position of electric origin             ...    -0.000025     0.000003     0.000000

General magnetic properties:
Magnetizability                         ...  NO

EPR properties:
g-Tensor (aka g-matrix)                 ...  NO
Zero-Field splitting spin-orbit         ...  NO
Zero-field splitting spin-spin          ...  NO
Hyperfine couplings                     ...  NO (   0 nuclei)
Quadrupole couplings                    ...  NO (   0 nuclei)
Contact density                         ...  NO (   0 nuclei)

NMR properties:
Chemical shifts                         ...  NO (   0 nuclei)
Spin-rotation constants                 ...  NO (   0 nuclei)
Spin-spin couplings                     ...  NO (   0 nuclei,    0 pairs)

Choice of magnetic origin               ... GIAO
Position of magnetic origin             ...     0.000000     0.000000     0.000000

Properties with geometric perturbations:
SCF Hessian                             ...  NO
IR spectrum                             ...  NO
VCD spectrum                            ...  NO
X-ray spectroscopy properties:
SCF XES/XAS/RIXS spectra                ...  NO


-------------
DIPOLE MOMENT
-------------

Method             : SCF
Type of density    : Electron Density
Multiplicity       :   1
Irrep              :   0
Energy             :  -386.0041300327932845 Eh
Relativity type    : 
Basis              : AO
                                X                 Y                 Z
Electronic contribution:      5.892520632      -3.832511410       0.001892011
Nuclear contribution   :     -6.335081186       4.519833607      -0.007606195
                        -----------------------------------------
Total Dipole Moment    :     -0.442560554       0.687322197      -0.005714184
                        -----------------------------------------
Magnitude (a.u.)       :      0.817498806
Magnitude (Debye)      :      2.077916831



--------------------
Rotational spectrum 
--------------------
 
Rotational constants in cm-1:             0.075709             0.059357             0.033687 
Rotational constants in MHz :          2269.703859          1779.472742          1009.909867 

Dipole components along the rotational axes: 
x,y,z [a.u.] :    -0.460501    -0.675433    -0.005760 
x,y,z [Debye]:    -1.170500    -1.716815    -0.014640 

 

Dipole moment calculation done in   0.0 sec 

Maximum memory used throughout the entire PROP-calculation: 15.7 MB

--------------------------------
SUGGESTED CITATIONS FOR THIS RUN
--------------------------------

Below you find a list of papers that are relevant to this ORCA run
We neither can nor want to force you to cite these papers, but we appreciate if you do
You receive ORCA, which is the product of decades of hard work by many enthusiastic individuals, for free
The only thing we kindly ask in return is that you cite our papers,
We deeply appreciate it, if you show your appreciation for ORCA by not just citing the generic ORCA reference.

Please note that relegating all ORCA citations to the supporting information does *not* help us.
SI sections are not indexed - citations you put there will not count into any citation statistics
But we need these citations in order to attract the funding resources that allow us to do what we are doing

Therefore, if you are a happy ORCA user, please consider citing a few of the papers listed below in the main body of your paper

In addition to the list printed below, the program has created the file xtb_opt.bibtex that contains the list in bibtex format
You can import this file easily into all common literature databanks and citation aid programs


List of essential papers. We consider these as the minimum necessary citations

  1. Neese,F.
     Software update: the ORCA program system, version 5.0
     WIRES Comput. Molec. Sci., 2022 12(1)e1606
     doi.org/10.1002/wcms.1606
  2. Grimme,S.; Hansen,A.; Ehlert,S.; Mewes,J.
     r2SCAN-3c: A 'Swiss army knife' composite electronic-structure method
     J. Chem. Phys., 2021 154 064103
     doi.org/10.1063/5.0040021

List of papers to cite with high priority. The work reported in these papers was absolutely
necessary for this run to complete.
Our perspective: the developers of density functionals and basis sets usually get cited in chemistry papers
Good! But without the algorithms to do something with them, the functionals or basis sets would not do anything.
Hence, in our opinion, the algorithm design and method developments papers are equally worthy of getting cited

  1. Neese,F.
     An improvement of the resolution of the identity approximation for the formation of the Coulomb matrix
     J. Comp. Chem., 2003 24(14)1740-1747
     doi.org/10.1002/jcc.10318
  2. Neese,F.
     The SHARK Integral Generation and Digestion System
     J. Comp. Chem., 2022  1-16
     doi.org/10.1002/jcc.26942
  3. Lehtola,S.; Steigemann,C.; Oliveira,M.; Marques,M.
     Recent developments in Libxc - A comprehensive library of functionals for density functional theory
     Software X, 2018 7 
     doi.org/10.1016/j.softx.2017.11.002
  4. Caldeweyher,E.; Bannwarth,C.; Grimme,S.
     Extension of the D3 dispersion coefficient model
     J. Chem. Phys., 2017 147 034112
     doi.org/10.1063/1.4993215
  5. Caldeweyher,E.; Ehlert,S.; Hansen,A.; Neugebauer,H.; Spicher,S.; Bannwarth,C.; Grimme,S.
     A generally applicable atomic-charge dependent London dispersion correction
     J. Chem. Phys., 2019 150 154122
     doi.org/10.1063/1.5090222
  6. Caldeweyher,E.; Mewes,J.; Ehlert,S.; Grimme,S.
     Extension and evaluation of the D4 London-dispersion model for periodic systems
     Phys. Chem. Chem. Phys., 2020 22(16)8499-8512
     doi.org/10.1039/D0CP00502A
  7. Wittmann,L.; Gordiy,I.; Friede,M.; Helmich-Paris,B.; Grimme,S.; Hansen,A.; Bursch,M.
     Extension of the D3 and D4 London Dispersion Corrections to the full Actinides Series
     Phys. Chem. Chem. Phys., 2024 26(32)21379-21394
     doi.org/https://doi.org/10.1039/D4CP01514B 

List of suggested additional citations. These are papers that are important in the 'surrounding' of 
of this run, or papers that preceded the highly important papers. If you like your results we are grateful for a citation.

  1. Neese,F.
     The ORCA program system
     WIRES Comput. Molec. Sci., 2012 2(1)73-78
     doi.org/10.1002/wcms.81
  2. Neese,F.
     Software update: the ORCA program system, version 4.0
     WIRES Comput. Molec. Sci., 2018 8(1)1-6
     doi.org/10.1002/wcms.1327
  3. Neese,F.; Wennmohs,F.; Becker,U.; Riplinger,C.
     The ORCA quantum chemistry program package
     J. Chem. Phys., 2020 152 Art. No. L224108
     doi.org/10.1063/5.0004608

List of optional additional citations

  1. Neese,F.
     Approximate second-order SCF convergence for spin unrestricted wavefunctions
     Chem. Phys. Lett., 2000 325(1-3)93-98
     doi.org/10.1016/s0009-2614(00)00662-x

Timings for individual modules:

Sum of individual times          ...       12.587 sec (=   0.210 min)
Startup calculation              ...        0.664 sec (=   0.011 min)   5.3 %
SCF iterations                   ...        5.686 sec (=   0.095 min)  45.2 %
Property calculations            ...        0.045 sec (=   0.001 min)   0.4 %
SCF Gradient evaluation          ...        6.193 sec (=   0.103 min)  49.2 %
                             ****ORCA TERMINATED NORMALLY****
TOTAL RUN TIME: 0 days 0 hours 0 minutes 12 seconds 663 msec
  ------------------------------------------------------------------------
          * successful ORCA run, taking over control again...

         :::::::::::::::::::::::::::::::::::::::::::::::::::::
         ::                  ORCA SUMMARY                   ::
         :::::::::::::::::::::::::::::::::::::::::::::::::::::
         :: total energy            -386.002788632217 Eh    ::
         :: gradient norm              0.018769685027 Eh/a0 ::
         :: HOMO-LUMO gap              0.000000000000 eV    ::
         :::::::::::::::::::::::::::::::::::::::::::::::::::::

      ----------------------------------------------------------- 
     |                       L-ANC optimizer                     |
      ----------------------------------------------------------- 
          low memory version by Sebastian Ehlert

          ...................................................
          :                      SETUP                      :
          :.................................................:
          :   energy convergence        0.5000000E-05 Eh    :
          :   grad. convergence         0.1000000E-02 Eh/a0 :
          :   optimization log               true           :
          :   writing optlog all                1     steps :
          :   Hessian reset                     8     steps :
          :   maximium step len.        1.0000000     a0    :
          :   LBFGS images                      8           :
          ...................................................
 * calculating model hessian...
Using Lindh-Hessian (1995)
 Shifting diagonal of input Hessian by    1.0000000000000000E-002
 Lowest  eigenvalues of input Hessian
    0.000000    0.000000    0.000000    0.000000    0.000000    0.000000
    0.012787    0.017012    0.017475    0.019923    0.020222    0.023154
    0.024161    0.031524    0.047665    0.050172    0.051831    0.057315
 Highest eigenvalues
    1.498625    1.636098    1.730563    1.903766    2.025938    2.075660


........................................................................
.............................. CYCLE    1 ..............................
........................................................................
                         * ORCA takes the control...
  ------------------------------------------------------------------------

                                 *****************
                                 * O   R   C   A *
                                 *****************

                                            #,                                       
                                            ###                                      
                                            ####                                     
                                            #####                                    
                                            ######                                   
                                           ########,                                 
                                     ,,################,,,,,                         
                               ,,#################################,,                 
                          ,,##########################################,,             
                       ,#########################################, ''#####,          
                    ,#############################################,,   '####,        
                  ,##################################################,,,,####,       
                ,###########''''           ''''###############################       
              ,#####''   ,,,,##########,,,,          '''####'''          '####       
            ,##' ,,,,###########################,,,                        '##       
           ' ,,###''''                  '''############,,,                           
         ,,##''                                '''############,,,,        ,,,,,,###''
      ,#''                                            '''#######################'''  
     '                                                          ''''####''''         
             ,#######,   #######,   ,#######,      ##                                
            ,#'     '#,  ##    ##  ,#'     '#,    #''#        ,####,   ,####,        
            ##       ##  ##   ,#'  ##            #'  '#       #'       #'  '#        
            ##       ##  #######   ##           ,######,      #####,   #    #        
            '#,     ,#'  ##    ##  '#,     ,#' ,#      #,     #,   #   #,  ,#        
             '#######'   ##     ##  '#######'  #'      '#     '####' # '####'        



                #########################################################
                #                        -***-                          #
                #          Department of theory and spectroscopy        #
                #                                                       #
                #                      Frank Neese                      #
                #                                                       #
                #     Directorship, Architecture, Infrastructure        #
                #                    SHARK, DRIVERS                     #
                #        Core code/Algorithms in most modules           #
                #                                                       #
                #        Max Planck Institute fuer Kohlenforschung      #
                #                Kaiser Wilhelm Platz 1                 #
                #                 D-45470 Muelheim/Ruhr                 #
                #                      Germany                          #
                #                                                       #
                #                  All rights reserved                  #
                #                        -***-                          #
                #########################################################


                         Program Version 6.0.1  -  RELEASE   -


 With contributions from (in alphabetic order):
[Max-Planck-Institut fuer Kohlenforschung]                               
  Daniel Aravena         : Magnetic Suceptibility                        
  Michael Atanasov       : Ab Initio Ligand Field Theory (pilot matlab implementation)
  Alexander A. Auer      : GIAO ZORA, VPT2 properties, NMR spectrum      
  Ute Becker             : All parallelization in ORCA, NUMFREQ, NUMCALC 
  Giovanni Bistoni       : ED, misc. LED, open-shell LED, HFLD           
  Martin Brehm           : Molecular dynamics                            
  Dmytro Bykov           : pre 5.0 version of the SCF Hessian            
  Marcos Casanova-Páez   : Triplet and SCS-CIS(D). UHF-(DLPNO)-IP/EA/STEOM-CCSD. UHF-CVS-IP/STEOM-CCSD   
  Vijay G. Chilkuri      : MRCI spin determinant printing, contributions to CSF-ICE 
  Pauline Colinet        : FMM embedding                                 
  Dipayan Datta          : RHF DLPNO-CCSD density                        
  Achintya Kumar Dutta   : EOM-CC, STEOM-CC                              
  Nicolas Foglia         : Exact transition moments, OPA infrastructure, MCD improvements    
  Dmitry Ganyushin       : Spin-Orbit,Spin-Spin,Magnetic field MRCI      
  Miquel Garcia-Rates    : C-PCM and meta-GGA Hessian, CCSD/C-PCM, Gaussian charge scheme 
  Tiago L. C. Gouveia    : GS-ROHF, GS-ROCIS                             
  Yang Guo               : DLPNO-NEVPT2, F12-NEVPT2, CIM, IAO-localization        
  Andreas Hansen         : Spin unrestricted coupled pair/coupled cluster methods 
  Ingolf Harden          : AUTO-CI MPn and infrastructure                
  Benjamin Helmich-Paris : MC-RPA, TRAH-(SCF,CASSCF), AVAS, COSX integrals, SCF dyn. polar. 
  Lee Huntington         : MR-EOM, pCC                                   
  Robert Izsak           : Overlap fitted RIJCOSX, COSX-SCS-MP3, EOM     
  Riya Kayal             : Wick's Theorem for AUTO-CI, AUTO-CI UHF-CCSDT 
  Emily Kempfer          : AUTO-CI, RHF CISDT and CCSDT                  
  Christian Kollmar      : KDIIS, OOCD, Brueckner-CCSD(T), CCSD density, CASPT2, CASPT2-K, improved NEVPT2 
  Axel Koslowski         : Symmetry handling                             
  Simone Kossmann        : meta-GGA functionals, TD-DFT gradient, OOMP2, (MP2 Hessian; deprecated post 5.0) 
  Lucas Lang             : DCDCAS                                        
  Marvin Lechner         : AUTO-CI (C++ implementation), FIC-MRCC        
  Spencer Leger          : CASSCF response                               
  Dagmar Lenk            : GEPOL surface, SMD, ORCA-2-JSON               
  Dimitrios Liakos       : Extrapolation schemes; Compound Job, initial MDCI parallelization 
  Dimitrios Manganas     : Further ROCIS development; embedding schemes. LFT, Crystal Embedding 
  Dimitrios Pantazis     : SARC Basis sets                               
  Anastasios Papadopoulos: AUTO-CI, single reference methods and gradients 
  Taras Petrenko         : pre 6.0 DFT Hessian and TD-DFT gradient, (ASA, deprecated), ECA, 1-Electron XAS/XES, NRVS 
  Peter Pinski           : DLPNO-MP2, DLPNO-MP2 Gradient                 
  Christoph Reimann      : Effective Core Potentials                     
  Marius Retegan         : Local ZFS, SOC                                
  Christoph Riplinger    : Optimizer, TS searches, QM/MM, DLPNO-CCSD(T), (RO)-DLPNO pert. Triples 
  Michael Roemelt        : Original ROCIS implementation                 
  Masaaki Saitow         : Open-shell DLPNO-CCSD energy and density      
  Barbara Sandhoefer     : DKH picture change effects                    
  Kantharuban Sivalingam : CASSCF convergence/infrastructure, NEVPT2 and variants, FIC-MRCI 
  Bernardo de Souza      : ESD, SOC TD-DFT                               
  Georgi L. Stoychev     : AutoAux, RI-MP2 NMR, DLPNO-MP2 response, X2C  
  Van Anh Tran           : RI-MP2 g-tensors                              
  Willem Van den Heuvel  : Paramagnetic NMR                              
  Zikuan Wang            : NOTCH, Electric field optimization            
  Frank Wennmohs         : Technical directorship and infrastructure     
  Hang Xu                : AUTO-CI-Response properties                   
                                                                         
[FACCTs GmbH]                                                            
  Markus Bursch, Miquel Garcia-Rates, Christoph Riplinger, Bernardo de Souza, Georgi L. Stoychev 
                                                                 
  APM, Basis sets (HGBS, AHGBS, def-TZVP (Ac-Lr), def2-XVPD (La-Lu)), CI-OPT, improved COSX, DLPNO-Multilevel,           
  DOCKER, DRACO, updates on ESD, GOAT, IRC, LR-CPCM, MBIS, meta-GGA TD-DFT gradient, ML-optimized integration grids, 
  MM, NACMEs, nearIR, NEB, NEB-TS, NL-DFT gradient (VV10), 2- and 3-layer-ONIOM, interface openCOSMO-RS, QMMM,   
  Crystal-QMMM, SF, symmetry and pop. for TD-DFT, r2SCAN hybrids, SOLVATOR                                   
                                                                         
[Other institutions]                                                     
  V. Asgeirsson          : NEB                                           
  Christoph Bannwarth    : sTDA-DFT, sTD-DFT, PBEh-3c, B97-3c, D3        
  Sebastian Ehlert       : rSCAN, r2SCAN, r2SCAN-3c, D4, dhf basis sets  
  Marvin Friede          : D4 for Fr, Ra, Ac-Lr                          
  Lars Goerigk           : TD-DFT with DH, B97 family of functionals     
  Stefan Grimme          : VdW corrections, initial TS optimization, DFT functionals, gCP, sTDA/sTD-DF 
  Waldemar Hujo          : DFT-NL                                        
  H. Jonsson             : NEB                                           
  Holger Kruse           : gCP                                           
  Marcel Mueller         : wB97X-3c, vDZP basis set                      
  Hagen Neugebauer       : wr2SCAN                                       
  Tobias Risthaus        : range-separated hybrid DFT                    
  Lukas Wittmann         : regularized MP2, r2SCAN double-hybrids, wr2SCAN        
                                                                         
We gratefully acknowledge several colleagues who have allowed us to      
interface, adapt or use parts of their codes:                            
  Ed Valeev, F. Pavosevic, A. Kumar             : LibInt (2-el integral package), F12 methods 
  Garnet Chan, S. Sharma, J. Yang, R. Olivares  : DMRG                   
  Ulf Ekstrom                                   : XCFun DFT Library      
  Mihaly Kallay                                 : mrcc  (arbitrary order and MRCC methods)
  Frank Weinhold                                : gennbo (NPA and NBO analysis)           
  Simon Mueller                                 : openCOSMO-RS                            
  Christopher J. Cramer and Donald G. Truhlar   : smd solvation model                     
  S Lehtola, MJT Oliveira, MAL Marques          : LibXC Library                           
  Liviu Ungur et al                             : ANISO software                          


 Your calculation uses the libint2 library for the computation of 2-el integrals
 For citations please refer to: http://libint.valeyev.net

 Your ORCA version has been built with support for libXC version: 6.2.2
 For citations please refer to: https://libxc.gitlab.io

 This ORCA versions uses:
   CBLAS   interface :  Fast vector & matrix operations
   LAPACKE interface :  Fast linear algebra routines
   SCALAPACK package :  Parallel linear algebra routines
   Shared memory     :  Shared parallel matrices
   BLAS/LAPACK       :  OpenBLAS 0.3.27  USE64BITINT DYNAMIC_ARCH NO_AFFINITY Zen SINGLE_THREADED
        Core in use  :  Zen
   Copyright (c) 2011-2014, The OpenBLAS Project




***************************************
The coordinates will be read from file: xtb_opt.xyz
***************************************


Your calculation utilizes the geometrical counterpoise correction gCP
Please cite in your paper:
H.Kruse, S. Grimme J.Chem.Phys., 136, (2012), 154101 
   

Your calculation utilizes the atom-pairwise dispersion correction
based on EEQ partial charges (D4)


================================================================================

----- Orbital basis set information -----
Your calculation utilizes the basis: def2-mTZVPP
   Stefan Grimme, Andreas Hansen, Sebastian Ehlert, and Jan-Michael Mewes 
   J. Chem. Phys. 154, 064103 (2021). DOI: 10.1063/5.0040021

----- AuxJ basis set information -----
Your calculation utilizes the auxiliary basis: def2/J
   F. Weigend, Phys. Chem. Chem. Phys. 8, 1057 (2006).

================================================================================
                                        WARNINGS
                       Please study these warnings very carefully!
================================================================================

WARNING: Old DensityContainer found on disk!
         Will remove this file - 
         If you want to keep old densities, please start your calculation with a different basename. 



WARNING: SCAN, rSCAN, or r2SCAN functional requested.
  ===> : libXC variant has now been activated.



================================================================================
                                       INPUT FILE
================================================================================
NAME = xtb_opt.inp
|  1> ! r2scan-3c def2/J RI DEFGRID2 scfconv7 ENGRAD tightSCF miniprint
|  2> * xyzfile 0 1 xtb_opt.xyz
|  3> 
|  4>                          ****END OF INPUT****
================================================================================

                     *******************************
                     * Energy+Gradient Calculation *
                     *******************************

---------------------------------
CARTESIAN COORDINATES (ANGSTROEM)
---------------------------------
  C     -2.566024    0.603664   -0.002463
  C     -1.220679   -0.067233    0.000082
  C     -1.137998   -1.456628   -0.000250
  C      0.098540   -2.090315    0.001541
  C      1.260417   -1.340093    0.001384
  C      1.187977    0.052348    0.000194
  C     -0.049983    0.709588    0.002330
  C     -0.167538    2.212424    0.003041
  O      2.388162    0.707172   -0.003493
  H     -2.701365    1.233118    0.882795
  H     -2.689493    1.249531   -0.877481
  H     -3.364583   -0.138761   -0.014310
  H     -2.049729   -2.043744   -0.001876
  H      0.156167   -3.172559    0.001906
  H      2.239044   -1.804582    0.000827
  H     -0.749421    2.555723    0.863187
  H      0.790461    2.734934    0.045684
  H     -0.681013    2.564312   -0.896891
  H      2.245181    1.658946   -0.012284

----------------------------
CARTESIAN COORDINATES (A.U.)
----------------------------
  NO LB      ZA    FRAG     MASS         X           Y           Z
   0 C     6.0000    0    12.011   -4.849082    1.140760   -0.004655
   1 C     6.0000    0    12.011   -2.306748   -0.127052    0.000154
   2 C     6.0000    0    12.011   -2.150504   -2.752627   -0.000472
   3 C     6.0000    0    12.011    0.186213   -3.950123    0.002912
   4 C     6.0000    0    12.011    2.381843   -2.532409    0.002615
   5 C     6.0000    0    12.011    2.244950    0.098924    0.000367
   6 C     6.0000    0    12.011   -0.094453    1.340928    0.004403
   7 C     6.0000    0    12.011   -0.316602    4.180876    0.005747
   8 O     8.0000    0    15.999    4.512972    1.336361   -0.006600
   9 H     1.0000    0     1.008   -5.104840    2.330254    1.668240
  10 H     1.0000    0     1.008   -5.082404    2.361272   -1.658199
  11 H     1.0000    0     1.008   -6.358140   -0.262220   -0.027042
  12 H     1.0000    0     1.008   -3.873426   -3.862117   -0.003545
  13 H     1.0000    0     1.008    0.295113   -5.995268    0.003603
  14 H     1.0000    0     1.008    4.231180   -3.410166    0.001563
  15 H     1.0000    0     1.008   -1.416201    4.829616    1.631186
  16 H     1.0000    0     1.008    1.493754    5.168276    0.086331
  17 H     1.0000    0     1.008   -1.286927    4.845847   -1.694879
  18 H     1.0000    0     1.008    4.242778    3.134954   -0.023213

------------------------------------------------------------------------------
                   ___                                                        
                  /   \      - P O W E R E D   B Y -                         
                 /     \                                                     
                 |  |  |   _    _      __       _____    __    __             
                 |  |  |  | |  | |    /  \     |  _  \  |  |  /  |          
                  \  \/   | |  | |   /    \    | | | |  |  | /  /          
                 / \  \   | |__| |  /  /\  \   | |_| |  |  |/  /          
                |  |  |   |  __  | /  /__\  \  |    /   |      \           
                |  |  |   | |  | | |   __   |  |    \   |  |\   \          
                \     /   | |  | | |  |  |  |  | |\  \  |  | \   \       
                 \___/    |_|  |_| |__|  |__|  |_| \__\ |__|  \__/        
                                                                              
                      - O R C A' S   B I G   F R I E N D -                    
                                      &                                       
                       - I N T E G R A L  F E E D E R -                       
                                                                              
 v1 FN, 2020, v2 2021, v3 2022-2024                                           
------------------------------------------------------------------------------


----------------------
SHARK INTEGRAL PACKAGE
----------------------

Number of atoms                             ...     19
Number of basis functions                   ...    226
Number of shells                            ...    112
Maximum angular momentum                    ...      2
Integral batch strategy                     ... SHARK/LIBINT Hybrid
RI-J (if used) integral strategy            ... SPLIT-RIJ (Revised 2003 algorithm where possible)
Printlevel                                  ...      1
Contraction scheme used                     ... SEGMENTED contraction
Prescreening option                         ... SCHWARTZ
   Thresh                                   ... 3.000e-11
   Tcut                                     ... 1.000e-12
   Tpresel                                  ... 1.000e-12 
Coulomb Range Separation                    ... NOT USED
Exchange Range Separation                   ... NOT USED
Multipole approximations                    ... NOT USED
Finite Nucleus Model                        ... NOT USED
CABS basis                                  ... NOT available
Auxiliary Coulomb fitting basis             ... AVAILABLE
   # of basis functions in Aux-J            ...    551
   # of shells in Aux-J                     ...    185
   Maximum angular momentum in Aux-J        ...      4
Auxiliary J/K fitting basis                 ... NOT available
Auxiliary Correlation fitting basis         ... NOT available
Auxiliary 'external' fitting basis          ... NOT available

Checking pre-screening integrals            ... done (  0.0 sec) Dimension = 112
Check shell pair data                       ... done (  0.0 sec)
Shell pair information
Shell pair cut-off parameter TPreSel        ...   1.0e-12
Total number of shell pairs                 ...      6328
Shell pairs after pre-screening             ...      5725
Total number of primitive shell pairs       ...     23019
Primitive shell pairs kept                  ...     14798
          la=0 lb=0:   1889 shell pairs
          la=1 lb=0:   2182 shell pairs
          la=1 lb=1:    651 shell pairs
          la=2 lb=0:    600 shell pairs
          la=2 lb=1:    349 shell pairs
          la=2 lb=2:     54 shell pairs

Calculating one electron integrals          ... done (  0.0 sec)
Calculating RI/J V-Matrix + Cholesky decomp.... done (  0.0 sec)
Calculating Nuclear repulsion               ... done (  0.0 sec) ENN=    431.677847280437 Eh

Diagonalization of the overlap matrix:
Smallest eigenvalue                        ... 1.880e-05
Time for diagonalization                   ...    0.003 sec
Threshold for overlap eigenvalues          ... 1.000e-07
Number of eigenvalues below threshold      ... 0
Time for construction of square roots      ...    0.001 sec
Total time needed                          ...    0.006 sec

-------------------
DFT GRID GENERATION
-------------------

General Integration Accuracy     IntAcc      ... 4.388
Radial Grid Type                 RadialGrid  ... OptM3 with GC (2021)
Angular Grid (max. ang.)         AngularGrid ... 4 (Lebedev-302)
Angular grid pruning method      GridPruning ... 4 (adaptive)
Weight generation scheme         WeightScheme... mBecke (2022)
Basis function cutoff            BFCut       ... 1.0000e-11
Integration weight cutoff        WCut        ... 1.0000e-14
Partially contracted basis set               ... off
Rotationally invariant grid construction     ... off
Angular grids for H and He will be reduced by one unit
Diffuse basis detected: some atoms will have their outermost
                        angular grid increased by 1.

Total number of grid points                  ...    86334
Total number of batches                      ...     1360
Average number of points per batch           ...       63
Average number of grid points per atom       ...     4544
Initializing property integral containers    ... done (  0.0 sec)

SHARK setup successfully completed in   0.6 seconds

Maximum memory used throughout the entire STARTUP-calculation: 40.0 MB
Occupation numbers will be reassigned to an Aufbau configuration
             **** ENERGY FILE WAS UPDATED (xtb_opt.en.tmp) ****
Finished Guess after   0.1 sec
Maximum memory used throughout the entire GUESS-calculation: 16.9 MB
----------------------------------------D-I-I-S--------------------------------------------
Iteration    Energy (Eh)           Delta-E    RMSDP     MaxDP     DIISErr   Damp  Time(sec)
-------------------------------------------------------------------------------------------
               ***  Starting incremental Fock matrix formation  ***
                              *** Initializing SOSCF ***
---------------------------------------S-O-S-C-F--------------------------------------
Iteration    Energy (Eh)           Delta-E    RMSDP     MaxDP     MaxGrad    Time(sec)
--------------------------------------------------------------------------------------
    1    -386.0046638789814892     0.00e+00  3.96e-04  1.31e-02  2.19e-04     1.6
               *** Restarting incremental Fock matrix formation ***
    2    -386.0047633332487180    -9.95e-05  1.07e-04  2.12e-03  3.40e-04     1.6
    3    -386.0047558722581584     7.46e-06  6.22e-05  1.33e-03  7.77e-04     1.3
    4    -386.0047713680651782    -1.55e-05  4.22e-05  1.26e-03  2.24e-04     1.2
    5    -386.0047696916993232     1.68e-06  2.42e-05  5.94e-04  2.10e-04     1.2
    6    -386.0047726551048868    -2.96e-06  6.87e-06  2.07e-04  3.99e-05     1.2
    7    -386.0047725743112892     8.08e-08  4.55e-06  1.51e-04  6.53e-05     1.1
                 **** Energy Check signals convergence ****

               *****************************************************
               *                     SUCCESS                       *
               *           SCF CONVERGED AFTER   7 CYCLES          *
               *****************************************************

             **** ENERGY FILE WAS UPDATED (xtb_opt.en.tmp) ****

----------------
TOTAL SCF ENERGY
----------------

Total Energy       :       -386.00477257431129 Eh          -10503.72386 eV

Components:
Nuclear Repulsion  :        431.67784728043677 Eh           11746.55141 eV
Electronic Energy  :       -817.68261985474805 Eh          -22250.27527 eV
One Electron Energy:      -1377.43656205874072 Eh          -37481.95440 eV
Two Electron Energy:        559.75394220399266 Eh           15231.67913 eV

Virial components:
Potential Energy   :       -770.30300544446789 Eh          -20961.01042 eV
Kinetic Energy     :        384.29823287015660 Eh           10457.28655 eV
Virial Ratio       :          2.00444066497889

DFT components:
N(Alpha)           :       33.000043747226 electrons
N(Beta)            :       33.000043747226 electrons
N(Total)           :       66.000087494453 electrons
E(X)               :      -53.497941630137 Eh       
E(C)               :       -2.121494061141 Eh       
E(XC)              :      -55.619435691278 Eh       

---------------
SCF CONVERGENCE
---------------

  Last Energy change         ...   -8.0794e-08  Tolerance :   1.0000e-07
  Last MAX-Density change    ...    1.5132e-04  Tolerance :   1.0000e-07
  Last RMS-Density change    ...    4.5473e-06  Tolerance :   5.0000e-09
  Last DIIS Error            ...    2.4527e-03  Tolerance :   1.0000e-07
  Last Orbital Gradient      ...    6.5270e-05  Tolerance :   1.0000e-04
  Last Orbital Rotation      ...    7.5161e-05  Tolerance :   1.0000e-04


----------------
ORBITAL ENERGIES
----------------

  NO   OCC          E(Eh)            E(eV) 
   0   2.0000     -18.979509      -516.4587 
   1   2.0000     -10.091722      -274.6097 
   2   2.0000     -10.044635      -273.3284 
   3   2.0000     -10.042608      -273.2733 
   4   2.0000     -10.041954      -273.2555 
   5   2.0000     -10.030637      -272.9475 
   6   2.0000     -10.029718      -272.9225 
   7   2.0000     -10.023521      -272.7539 
   8   2.0000     -10.021478      -272.6983 
   9   2.0000      -1.024026       -27.8652 
  10   2.0000      -0.823014       -22.3954 
  11   2.0000      -0.749545       -20.3962 
  12   2.0000      -0.723744       -19.6941 
  13   2.0000      -0.671619       -18.2757 
  14   2.0000      -0.644990       -17.5511 
  15   2.0000      -0.573556       -15.6072 
  16   2.0000      -0.548096       -14.9145 
  17   2.0000      -0.507051       -13.7975 
  18   2.0000      -0.460564       -12.5326 
  19   2.0000      -0.434562       -11.8250 
  20   2.0000      -0.415275       -11.3002 
  21   2.0000      -0.390933       -10.6378 
  22   2.0000      -0.376509       -10.2453 
  23   2.0000      -0.375471       -10.2171 
  24   2.0000      -0.374337       -10.1862 
  25   2.0000      -0.370823       -10.0906 
  26   2.0000      -0.363711        -9.8971 
  27   2.0000      -0.339703        -9.2438 
  28   2.0000      -0.317697        -8.6450 
  29   2.0000      -0.300824        -8.1858 
  30   2.0000      -0.299057        -8.1378 
  31   2.0000      -0.219512        -5.9732 
  32   2.0000      -0.198169        -5.3925 
  33   0.0000      -0.026421        -0.7189 
  34   0.0000      -0.009345        -0.2543 
  35   0.0000       0.045360         1.2343 
  36   0.0000       0.087412         2.3786 
  37   0.0000       0.095919         2.6101 
  38   0.0000       0.123582         3.3628 
  39   0.0000       0.125930         3.4267 
  40   0.0000       0.134954         3.6723 
  41   0.0000       0.137277         3.7355 
  42   0.0000       0.142677         3.8824 
  43   0.0000       0.148875         4.0511 
*Only the first 10 virtual orbitals were printed.
Total SCF time: 0 days 0 hours 0 min 9 sec 
Finished LeanSCF after   9.4 sec

Maximum memory used throughout the entire LEANSCF-calculation: 26.4 MB


-------------------------------------------------------------------------------
                          DFT DISPERSION CORRECTION                            
                                                                               
                                DFTD4 V3.4.0                                   
-------------------------------------------------------------------------------
-------------------------   ----------------
Dispersion correction           -0.006338244
-------------------------   ----------------

------------------   -----------------
gCP correction             0.007633735
------------------   -----------------

-------------------------   --------------------
FINAL SINGLE POINT ENERGY      -386.003477083174
-------------------------   --------------------

------------------------------------------------------------------------------
                         ORCA SCF GRADIENT CALCULATION
------------------------------------------------------------------------------

Nuc. rep. gradient        (SHARK) ... done (  0.0 sec)
HCore & Overlap gradient  (SHARK) ... done (  0.2 sec)
Split-RIJ-J gradient      (SHARK) ... done (  1.3 sec)
XC gradient                       ... done (  5.3 sec)
Dispersion correction             ... done (  0.0 sec)

-------------------
DISPERSION GRADIENT
-------------------

   1   C   :   -0.000113058    0.000029515   -0.000000053
   2   C   :   -0.000063232   -0.000009077    0.000000027
   3   C   :   -0.000048797   -0.000091539   -0.000000019
   4   C   :    0.000020097   -0.000115655    0.000000096
   5   C   :    0.000075677   -0.000077934    0.000000069
   6   C   :    0.000085170   -0.000004096    0.000000020
   7   C   :    0.000015361    0.000040296    0.000000102
   8   C   :    0.000003931    0.000114388    0.000000088
   9   O   :    0.000098239    0.000050007   -0.000000296
  10   H   :   -0.000044097    0.000015308    0.000011771
  11   H   :   -0.000043840    0.000015563   -0.000011651
  12   H   :   -0.000048212   -0.000000442   -0.000000214
  13   H   :   -0.000028582   -0.000037340   -0.000000043
  14   H   :    0.000004812   -0.000044639    0.000000034
  15   H   :    0.000036043   -0.000025319    0.000000015
  16   H   :   -0.000005391    0.000047043    0.000012918
  17   H   :    0.000016122    0.000045382    0.000000668
  18   H   :   -0.000004285    0.000047439   -0.000013492
  19   H   :    0.000044041    0.000001101   -0.000000040

Difference to translation invariance:
           :   -0.0000000000   -0.0000000000   -0.0000000000

Difference to rotation invariance:
           :   -0.0000000000    0.0000000000   -0.0000000000

Norm of the Dispersion gradient    ...    0.0003326968
RMS gradient                       ...    0.0000440668
MAX gradient                       ...    0.0001156553
gCP correction                   ... done

------------------
CARTESIAN GRADIENT
------------------

   1   C   :   -0.000901366    0.000735707   -0.000024395
   2   C   :    0.001147890    0.000232639   -0.000007793
   3   C   :    0.000945454    0.000873034   -0.000011499
   4   C   :   -0.000231660   -0.000182949    0.000001172
   5   C   :   -0.001771463   -0.000031537    0.000004344
   6   C   :    0.002131808    0.000873818    0.000020964
   7   C   :   -0.000863265   -0.002611012   -0.000022189
   8   C   :   -0.000231359    0.002361913    0.000095043
   9   O   :   -0.002554275   -0.000815876   -0.000025333
  10   H   :    0.000546124   -0.000693648   -0.000672857
  11   H   :    0.000548418   -0.000718819    0.000647469
  12   H   :    0.000944354    0.000331591    0.000009009
  13   H   :    0.000678359    0.000406946   -0.000001923
  14   H   :   -0.000166628    0.000980091    0.000000485
  15   H   :   -0.000709359    0.000575399    0.000001647
  16   H   :    0.000246644   -0.000913020   -0.000646528
  17   H   :   -0.000776481   -0.000779406   -0.000069044
  18   H   :    0.000166781   -0.000890924    0.000672754
  19   H   :    0.000850026    0.000266053    0.000028672

Difference to translation invariance:
           :    0.0000000000    0.0000000000    0.0000000000

Difference to rotation invariance:
           :    0.0001737004   -0.0002300062    0.0002590607

Norm of the Cartesian gradient     ...    0.0066202013
RMS gradient                       ...    0.0008768671
MAX gradient                       ...    0.0026110115

-------
TIMINGS
-------

Total SCF gradient time     ....        6.854 sec

Densities                   ....       0.000 sec  (  0.0%)
One electron gradient       ....       0.229 sec  (  3.3%)
RI-J Coulomb gradient       ....       1.255 sec  ( 18.3%)
XC gradient                 ....       5.348 sec  ( 78.0%)

Maximum memory used throughout the entire SCFGRAD-calculation: 37.2 MB

------------------------------------------------------------------------------
                              ORCA PROPERTY CALCULATIONS
------------------------------------------------------------------------------

GBWName                                 ... xtb_opt.gbw
Number of atoms                         ...     19
Number of basis functions               ...    226
Max core memory                         ...   1024 MB

Electric properties:
Dipole moment                           ... YES
Quadrupole moment                       ...  NO
[...]
E(C)               :       -2.120874185745 Eh       
E(XC)              :      -55.606496298677 Eh       

---------------
SCF CONVERGENCE
---------------

  Last Energy change         ...    4.4487e-09  Tolerance :   1.0000e-07
  Last MAX-Density change    ...    5.9175e-05  Tolerance :   1.0000e-07
  Last RMS-Density change    ...    3.3038e-06  Tolerance :   5.0000e-09
  Last DIIS Error            ...    3.7261e-05  Tolerance :   1.0000e-07
  Last Orbital Gradient      ...    1.9699e-05  Tolerance :   1.0000e-04
  Last Orbital Rotation      ...    1.0608e-04  Tolerance :   1.0000e-04


----------------
ORBITAL ENERGIES
----------------

  NO   OCC          E(Eh)            E(eV) 
   0   2.0000     -18.979538      -516.4595 
   1   2.0000     -10.092157      -274.6216 
   2   2.0000     -10.045657      -273.3562 
   3   2.0000     -10.043780      -273.3052 
   4   2.0000     -10.042917      -273.2817 
   5   2.0000     -10.031545      -272.9722 
   6   2.0000     -10.030580      -272.9460 
   7   2.0000     -10.024228      -272.7731 
   8   2.0000     -10.022563      -272.7278 
   9   2.0000      -1.023032       -27.8381 
  10   2.0000      -0.822451       -22.3800 
  11   2.0000      -0.749333       -20.3904 
  12   2.0000      -0.723676       -19.6922 
  13   2.0000      -0.671513       -18.2728 
  14   2.0000      -0.644874       -17.5479 
  15   2.0000      -0.572754       -15.5854 
  16   2.0000      -0.548095       -14.9144 
  17   2.0000      -0.506316       -13.7775 
  18   2.0000      -0.460648       -12.5349 
  19   2.0000      -0.434210       -11.8154 
  20   2.0000      -0.414689       -11.2843 
  21   2.0000      -0.391310       -10.6481 
  22   2.0000      -0.376373       -10.2416 
  23   2.0000      -0.375645       -10.2218 
  24   2.0000      -0.374501       -10.1907 
  25   2.0000      -0.370735       -10.0882 
  26   2.0000      -0.363084        -9.8800 
  27   2.0000      -0.339949        -9.2505 
  28   2.0000      -0.317743        -8.6462 
  29   2.0000      -0.301648        -8.2083 
  30   2.0000      -0.298735        -8.1290 
  31   2.0000      -0.219616        -5.9760 
  32   2.0000      -0.198415        -5.3991 
  33   0.0000      -0.027290        -0.7426 
  34   0.0000      -0.009983        -0.2716 
  35   0.0000       0.045526         1.2388 
  36   0.0000       0.087093         2.3699 
  37   0.0000       0.095607         2.6016 
  38   0.0000       0.122489         3.3331 
  39   0.0000       0.125483         3.4146 
  40   0.0000       0.134261         3.6534 
  41   0.0000       0.137075         3.7300 
  42   0.0000       0.141903         3.8614 
  43   0.0000       0.148915         4.0522 
*Only the first 10 virtual orbitals were printed.
Total SCF time: 0 days 0 hours 0 min 3 sec 
Finished LeanSCF after   3.1 sec

Maximum memory used throughout the entire LEANSCF-calculation: 26.3 MB


-------------------------------------------------------------------------------
                          DFT DISPERSION CORRECTION                            
                                                                               
                                DFTD4 V3.4.0                                   
-------------------------------------------------------------------------------
-------------------------   ----------------
Dispersion correction           -0.006330615
-------------------------   ----------------

------------------   -----------------
gCP correction             0.007628164
------------------   -----------------

-------------------------   --------------------
FINAL SINGLE POINT ENERGY      -386.003550875887
-------------------------   --------------------

------------------------------------------------------------------------------
                         ORCA SCF GRADIENT CALCULATION
------------------------------------------------------------------------------

Nuc. rep. gradient        (SHARK) ... done (  0.0 sec)
HCore & Overlap gradient  (SHARK) ... done (  0.2 sec)
Split-RIJ-J gradient      (SHARK) ... done (  1.2 sec)
XC gradient                       ... done (  4.2 sec)
Dispersion correction             ... done (  0.0 sec)

-------------------
DISPERSION GRADIENT
-------------------

   1   C   :   -0.000113471    0.000029264   -0.000000001
   2   C   :   -0.000063527   -0.000009316    0.000000037
   3   C   :   -0.000048746   -0.000091581   -0.000000028
   4   C   :    0.000020092   -0.000115541    0.000000080
   5   C   :    0.000075599   -0.000077830    0.000000075
   6   C   :    0.000085059   -0.000004092    0.000000030
   7   C   :    0.000015532    0.000040456    0.000000099
   8   C   :    0.000004599    0.000114669    0.000000043
   9   O   :    0.000097651    0.000050140   -0.000000313
  10   H   :   -0.000044197    0.000015126    0.000011760
  11   H   :   -0.000043922    0.000015399   -0.000011576
  12   H   :   -0.000048051   -0.000000363   -0.000000206
  13   H   :   -0.000028548   -0.000037312   -0.000000052
  14   H   :    0.000004834   -0.000044566    0.000000024
  15   H   :    0.000036033   -0.000025319    0.000000021
  16   H   :   -0.000005155    0.000047055    0.000012834
  17   H   :    0.000016033    0.000045258    0.000000702
  18   H   :   -0.000003951    0.000047478   -0.000013514
  19   H   :    0.000044139    0.000001075   -0.000000017

Difference to translation invariance:
           :   -0.0000000000   -0.0000000000   -0.0000000000

Difference to rotation invariance:
           :   -0.0000000000    0.0000000000    0.0000000000

Norm of the Dispersion gradient    ...    0.0003327045
RMS gradient                       ...    0.0000440678
MAX gradient                       ...    0.0001155410
gCP correction                   ... done

------------------
CARTESIAN GRADIENT
------------------

   1   C   :    0.000019587   -0.000029187   -0.000004770
   2   C   :   -0.000076591    0.000047629   -0.000011485
   3   C   :    0.000029680   -0.000034423   -0.000011214
   4   C   :    0.000015547    0.000097127    0.000000173
   5   C   :    0.000070669   -0.000016796    0.000001067
   6   C   :   -0.000077097   -0.000087406    0.000025683
   7   C   :    0.000025728    0.000148364   -0.000015695
   8   C   :   -0.000118409   -0.000136147    0.000016544
   9   O   :    0.000131555   -0.000017446   -0.000002468
  10   H   :    0.000008659   -0.000014840    0.000006518
  11   H   :    0.000006365   -0.000021306   -0.000029137
  12   H   :   -0.000035776   -0.000007877   -0.000004464
  13   H   :    0.000034135   -0.000003323   -0.000006720
  14   H   :    0.000018006    0.000020824   -0.000006734
  15   H   :   -0.000075187    0.000020093    0.000003677
  16   H   :    0.000081953    0.000031887    0.000020325
  17   H   :   -0.000052501    0.000032042   -0.000030171
  18   H   :    0.000029606    0.000023085    0.000021756
  19   H   :   -0.000035929   -0.000052299    0.000027117

Difference to translation invariance:
           :   -0.0000000000    0.0000000000    0.0000000000

Difference to rotation invariance:
           :    0.0001776445   -0.0002328278    0.0002928577

Norm of the Cartesian gradient     ...    0.0003806604
RMS gradient                       ...    0.0000504197
MAX gradient                       ...    0.0001483644

-------
TIMINGS
-------

Total SCF gradient time     ....        5.559 sec

Densities                   ....       0.000 sec  (  0.0%)
One electron gradient       ....       0.207 sec  (  3.7%)
RI-J Coulomb gradient       ....       1.167 sec  ( 21.0%)
XC gradient                 ....       4.167 sec  ( 75.0%)

Maximum memory used throughout the entire SCFGRAD-calculation: 37.2 MB

------------------------------------------------------------------------------
                              ORCA PROPERTY CALCULATIONS
------------------------------------------------------------------------------

GBWName                                 ... xtb_opt.gbw
Number of atoms                         ...     19
Number of basis functions               ...    226
Max core memory                         ...   1024 MB

Electric properties:
Dipole moment                           ... YES
Quadrupole moment                       ...  NO
Static polarizability (Dipole/Dipole)   ...  NO
Static polarizability (Dipole/Quad.)    ...  NO
Static polarizability (Quad./Quad.)     ...  NO
Static polarizability (Velocity)        ...  NO

Atomic electric properties:
Dipole moment                           ...  NO
Quadrupole moment                       ...  NO
Static polarizability                   ...  NO

Choice of electric origin               ... Center of mass
Position of electric origin             ...     0.003197    -0.006201     0.000277

General magnetic properties:
Magnetizability                         ...  NO

EPR properties:
g-Tensor (aka g-matrix)                 ...  NO
Zero-Field splitting spin-orbit         ...  NO
Zero-field splitting spin-spin          ...  NO
Hyperfine couplings                     ...  NO (   0 nuclei)
Quadrupole couplings                    ...  NO (   0 nuclei)
Contact density                         ...  NO (   0 nuclei)

NMR properties:
Chemical shifts                         ...  NO (   0 nuclei)
Spin-rotation constants                 ...  NO (   0 nuclei)
Spin-spin couplings                     ...  NO (   0 nuclei,    0 pairs)

Choice of magnetic origin               ... GIAO
Position of magnetic origin             ...     0.000000     0.000000     0.000000

Properties with geometric perturbations:
SCF Hessian                             ...  NO
IR spectrum                             ...  NO
VCD spectrum                            ...  NO
X-ray spectroscopy properties:
SCF XES/XAS/RIXS spectra                ...  NO


-------------
DIPOLE MOMENT
-------------

Method             : SCF
Type of density    : Electron Density
Multiplicity       :   1
Irrep              :   0
Energy             :  -386.0048484250095839 Eh
Relativity type    : 
Basis              : AO
                                X                 Y                 Z
Electronic contribution:      5.903972138      -3.902192757       0.003135981
Nuclear contribution   :     -6.366799425       4.585035546      -0.010162176
                        -----------------------------------------
Total Dipole Moment    :     -0.462827287       0.682842789      -0.007026195
                        -----------------------------------------
Magnitude (a.u.)       :      0.824944083
Magnitude (Debye)      :      2.096841219



--------------------
Rotational spectrum 
--------------------
 
Rotational constants in cm-1:             0.075034             0.058895             0.033405 
Rotational constants in MHz :          2249.468242          1765.624061          1001.465098 

Dipole components along the rotational axes: 
x,y,z [a.u.] :    -0.482588    -0.669023    -0.007046 
x,y,z [Debye]:    -1.226642    -1.700521    -0.017910 

 

Dipole moment calculation done in   0.0 sec 

Maximum memory used throughout the entire PROP-calculation: 15.7 MB

--------------------------------
SUGGESTED CITATIONS FOR THIS RUN
--------------------------------

Below you find a list of papers that are relevant to this ORCA run
We neither can nor want to force you to cite these papers, but we appreciate if you do
You receive ORCA, which is the product of decades of hard work by many enthusiastic individuals, for free
The only thing we kindly ask in return is that you cite our papers,
We deeply appreciate it, if you show your appreciation for ORCA by not just citing the generic ORCA reference.

Please note that relegating all ORCA citations to the supporting information does *not* help us.
SI sections are not indexed - citations you put there will not count into any citation statistics
But we need these citations in order to attract the funding resources that allow us to do what we are doing

Therefore, if you are a happy ORCA user, please consider citing a few of the papers listed below in the main body of your paper

In addition to the list printed below, the program has created the file xtb_opt.bibtex that contains the list in bibtex format
You can import this file easily into all common literature databanks and citation aid programs


List of essential papers. We consider these as the minimum necessary citations

  1. Neese,F.
     Software update: the ORCA program system, version 5.0
     WIRES Comput. Molec. Sci., 2022 12(1)e1606
     doi.org/10.1002/wcms.1606
  2. Grimme,S.; Hansen,A.; Ehlert,S.; Mewes,J.
     r2SCAN-3c: A 'Swiss army knife' composite electronic-structure method
     J. Chem. Phys., 2021 154 064103
     doi.org/10.1063/5.0040021

List of papers to cite with high priority. The work reported in these papers was absolutely
necessary for this run to complete.
Our perspective: the developers of density functionals and basis sets usually get cited in chemistry papers
Good! But without the algorithms to do something with them, the functionals or basis sets would not do anything.
Hence, in our opinion, the algorithm design and method developments papers are equally worthy of getting cited

  1. Neese,F.
     An improvement of the resolution of the identity approximation for the formation of the Coulomb matrix
     J. Comp. Chem., 2003 24(14)1740-1747
     doi.org/10.1002/jcc.10318
  2. Neese,F.
     The SHARK Integral Generation and Digestion System
     J. Comp. Chem., 2022  1-16
     doi.org/10.1002/jcc.26942
  3. Lehtola,S.; Steigemann,C.; Oliveira,M.; Marques,M.
     Recent developments in Libxc - A comprehensive library of functionals for density functional theory
     Software X, 2018 7 
     doi.org/10.1016/j.softx.2017.11.002
  4. Caldeweyher,E.; Bannwarth,C.; Grimme,S.
     Extension of the D3 dispersion coefficient model
     J. Chem. Phys., 2017 147 034112
     doi.org/10.1063/1.4993215
  5. Caldeweyher,E.; Ehlert,S.; Hansen,A.; Neugebauer,H.; Spicher,S.; Bannwarth,C.; Grimme,S.
     A generally applicable atomic-charge dependent London dispersion correction
     J. Chem. Phys., 2019 150 154122
     doi.org/10.1063/1.5090222
  6. Caldeweyher,E.; Mewes,J.; Ehlert,S.; Grimme,S.
     Extension and evaluation of the D4 London-dispersion model for periodic systems
     Phys. Chem. Chem. Phys., 2020 22(16)8499-8512
     doi.org/10.1039/D0CP00502A
  7. Wittmann,L.; Gordiy,I.; Friede,M.; Helmich-Paris,B.; Grimme,S.; Hansen,A.; Bursch,M.
     Extension of the D3 and D4 London Dispersion Corrections to the full Actinides Series
     Phys. Chem. Chem. Phys., 2024 26(32)21379-21394
     doi.org/https://doi.org/10.1039/D4CP01514B 

List of suggested additional citations. These are papers that are important in the 'surrounding' of 
of this run, or papers that preceded the highly important papers. If you like your results we are grateful for a citation.

  1. Neese,F.
     The ORCA program system
     WIRES Comput. Molec. Sci., 2012 2(1)73-78
     doi.org/10.1002/wcms.81
  2. Neese,F.
     Software update: the ORCA program system, version 4.0
     WIRES Comput. Molec. Sci., 2018 8(1)1-6
     doi.org/10.1002/wcms.1327
  3. Neese,F.; Wennmohs,F.; Becker,U.; Riplinger,C.
     The ORCA quantum chemistry program package
     J. Chem. Phys., 2020 152 Art. No. L224108
     doi.org/10.1063/5.0004608

List of optional additional citations

  1. Neese,F.
     Approximate second-order SCF convergence for spin unrestricted wavefunctions
     Chem. Phys. Lett., 2000 325(1-3)93-98
     doi.org/10.1016/s0009-2614(00)00662-x

Timings for individual modules:

Sum of individual times          ...        9.457 sec (=   0.158 min)
Startup calculation              ...        0.661 sec (=   0.011 min)   7.0 %
SCF iterations                   ...        3.152 sec (=   0.053 min)  33.3 %
Property calculations            ...        0.041 sec (=   0.001 min)   0.4 %
SCF Gradient evaluation          ...        5.603 sec (=   0.093 min)  59.3 %
                             ****ORCA TERMINATED NORMALLY****
TOTAL RUN TIME: 0 days 0 hours 0 minutes 9 seconds 522 msec
  ------------------------------------------------------------------------
          * successful ORCA run, taking over control again...

         :::::::::::::::::::::::::::::::::::::::::::::::::::::
         ::                  ORCA SUMMARY                   ::
         :::::::::::::::::::::::::::::::::::::::::::::::::::::
         :: total energy            -386.003550875887 Eh    ::
         :: gradient norm              0.000380660422 Eh/a0 ::
         :: HOMO-LUMO gap              0.000000000000 eV    ::
         :::::::::::::::::::::::::::::::::::::::::::::::::::::

           -------------------------------------------------
          |                Property Printout                |
           -------------------------------------------------
           -------------------------------------------------
          |                Geometry Summary                 |
           -------------------------------------------------

      molecular mass/u    :      122.1646996
   center of mass at/Å    :        0.0017085      -0.0032786       0.0001464
  moments of inertia/u·Å² :        0.2246600E+03   0.2862291E+03   0.5046306E+03
rotational constants/cm⁻¹ :        0.7503619E-01   0.5889559E-01   0.3340588E-01

 * 17 selected distances

     #   Z          #   Z                                           value/Å
     2   6          3   6                                         1.3937993
     3   6          4   6                                         1.3912711
     4   6          5   6                                         1.3843137
     5   6          6   6                                         1.3947491
     2   6          7   6                                         1.4080638 (max)
     6   6          7   6                                         1.4028423
     6   6          9   8                                         1.3707485
     1   6         10   1                                         1.0963144
     1   6         11   1                                         1.0962429
     1   6         12   1                                         1.0919587
     3   6         13   1                                         1.0854502
     4   6         14   1                                         1.0852533
     5   6         15   1                                         1.0842177
     8   6         16   1                                         1.0953144
     8   6         17   1                                         1.0939146
     8   6         18   1                                         1.0957970
     9   8         19   1                                         0.9624797 (min)

 * 4 distinct bonds (by element types)

   Z      Z             #   av. dist./Å        max./Å        min./Å
   1 H    6 C           9     1.0916070     1.0963144     1.0842177
   6 C    6 C           6     1.3958399     1.4080638     1.3843137
   1 H    8 O           1     0.9624797     0.9624797     0.9624797
   6 C    8 O           1     1.3707485     1.3707485     1.3707485


optimized geometry written to: xtbopt.coord


           -------------------------------------------------
          | TOTAL ENERGY             -386.003550875887 Eh   |
          | GRADIENT NORM               0.000380660422 Eh/α |
           -------------------------------------------------

------------------------------------------------------------------------
 * finished run on 2025/04/08 at 23:25:33.160     
------------------------------------------------------------------------
 total:
 * wall-time:     0 d,  0 h,  1 min, 15.941 sec
 *  cpu-time:     0 d,  0 h,  0 min,  0.440 sec
 * ratio c/w:     0.006 speedup
 SCF:
 * wall-time:     0 d,  0 h,  0 min, 12.681 sec
 *  cpu-time:     0 d,  0 h,  0 min,  0.059 sec
 * ratio c/w:     0.005 speedup
 ANC optimizer:
 * wall-time:     0 d,  0 h,  1 min,  3.142 sec
 *  cpu-time:     0 d,  0 h,  0 min,  0.006 sec
 * ratio c/w:     0.000 speedup

