19
 energy: -386.002788632217 gnorm: 0.018769685027 xtb: 6.7.1 (41059b4)
C           -2.56050420623463        0.60252056256699       -0.00280923330124
C           -1.21667862463914       -0.06242131882766       -0.00004355590002
C           -1.13578806550330       -1.44680381384112       -0.00016866680007
C            0.09282942594114       -2.08209083582263        0.00162514650072
C            1.24996476935389       -1.33375088519102        0.00130752020058
C            1.18574847882544        0.05642899912501        0.00016953000008
C           -0.04992288372212        0.70940245771436        0.00209909060093
C           -0.17063447137561        2.20931536187901        0.00368499140163
O            2.38336297185613        0.70872155961405       -0.00389595070173
H           -2.68654924859048        1.22587254074322        0.88207347239087
H           -2.67462990068520        1.24180546855028       -0.87772971458895
H           -3.35315486778587       -0.14086244186242       -0.01427122230632
H           -2.04377982980565       -2.03175675810033       -0.00157740610070
H            0.14784965186552       -3.16018459230036        0.00210474560093
H            2.22371537508539       -1.79686005789624        0.00076654870034
H           -0.75397669873411        2.53813085622471        0.86339181118259
H            0.78992151455004        2.72076547980564        0.04504645851996
H           -0.68612571680404        2.54676278472854       -0.89571518309692
H            2.24647695519547        1.66285052473685       -0.01213545860538
19
 energy: -386.003477083174 gnorm: 0.006620201348 xtb: 6.7.1 (41059b4)
C           -2.56602371236429        0.60366440973922       -0.00246311865449
C           -1.22067850444082       -0.06723315294371        0.00008165697741
C           -1.13799754488041       -1.45662763057636       -0.00025000048532
C            0.09853974554953       -2.09031483762559        0.00154095897391
C            1.26041685366520       -1.34009289375503        0.00138364792393
C            1.18797658033078        0.05234808429341        0.00019427448785
C           -0.04998251922325        0.70958848170128        0.00233015602470
C           -0.16753834057683        2.21242418904128        0.00304098342805
O            2.38816209239372        0.70717193941992       -0.00349268513604
H           -2.70136479246228        1.23311753902797        0.88279477569813
H           -2.68949256880792        1.24953133829095       -0.87748088721941
H           -3.36458257348626       -0.13876101709888       -0.01430988410247
H           -2.04972890901232       -2.04374440173540       -0.00187604783458
H            0.15616691856769       -3.17255900531870        0.00190639877604
H            2.23904423529412       -1.80458195925013        0.00082702889355
H           -0.74942134326610        2.55572281252782        0.86318665572567
H            0.79046052547910        2.73493373655925        0.04568416343594
H           -0.68101266157019        2.56431180376195       -0.89689129536113
H            2.24518116516637        1.65894627007287       -0.01228393183161
19
 energy: -386.003544511256 gnorm: 0.002001878463 xtb: 6.7.1 (41059b4)
C           -2.56999677855854        0.60211904111945       -0.00214199749510
C           -1.22326967159457       -0.06879617429622        0.00011921901950
C           -1.13882708750305       -1.46009978383388       -0.00029291079026
C            0.10081186913659       -2.09253940643245        0.00139681468100
C            1.26434310236440       -1.34190362251583        0.00141725579870
C            1.18738503010310        0.05113472045124        0.00030435554750
C           -0.05080659280108        0.71024919075220        0.00232217805078
C           -0.16289532345612        2.21313373140392        0.00261665346452
O            2.38788065383858        0.70982911211941       -0.00305373527515
H           -2.70864393815026        1.23361318225613        0.88337277144159
H           -2.69692637156543        1.25059379511204       -0.87700790737998
H           -3.37155762526827       -0.13927358530827       -0.01424223331579
H           -2.05111468961890       -2.04870091644019       -0.00203062691729
H            0.15977266598171       -3.17631903170932        0.00162385302424
H            2.24426091626306       -1.80692769601511        0.00090676509576
H           -0.74323262464739        2.56457590147541        0.86278974048920
H            0.79787466060658        2.73417503882553        0.04620880478964
H           -0.67346713589547        2.57267048894035       -0.89805691316085
H            2.23653359452028        1.66031131703949       -0.01232929074784
19
 energy: -386.003549889801 gnorm: 0.000705316998 xtb: 6.7.1 (41059b4)
C           -2.57055213878795        0.60147094379292       -0.00190922998901
C           -1.22363267281656       -0.06877922405206        0.00009117723970
C           -1.13869911015133       -1.45991801046570       -0.00034489769622
C            0.10078765280164       -2.09226762252635        0.00131582023054
C            1.26440231954742       -1.34194566674868        0.00147719921705
C            1.18686716187898        0.05099979645184        0.00039148635893
C           -0.05119052509346        0.71056860774033        0.00227079687382
C           -0.16220747228506        2.21312844543730        0.00243169350574
O            2.38820479841954        0.70997334767301       -0.00285772088463
H           -2.70965648416740        1.23254992916728        0.88378507037237
H           -2.69809155297256        1.25002273964587       -0.87658468921255
H           -3.37204430798381       -0.13997968630687       -0.01414400341677
H           -2.05053792512709       -2.04889193683849       -0.00207862926689
H            0.15987942037371       -3.17605004082866        0.00142291665033
H            2.24416921088835       -1.80711408819259        0.00098501342124
H           -0.74226884350948        2.56607286297038        0.86211081504955
H            0.79886602791718        2.73387118997026        0.04701548080706
H           -0.67082839077204        2.57398596870365       -0.89876760274194
H            2.23465749038132        1.66014765726817       -0.01268789668473
19
 energy: -386.003550842414 gnorm: 0.000358255469 xtb: 6.7.1 (41059b4)
C           -2.57068701337381        0.60116774958326       -0.00163274042400
C           -1.22345935168276       -0.06810082381769        0.00020237080716
C           -1.13848343072450       -1.45930712207186       -0.00035644441134
C            0.10069422577527       -2.09181860847843        0.00133415111775
C            1.26422167129981       -1.34180003285646        0.00151393374534
C            1.18688102641366        0.05080256348514        0.00042250258679
C           -0.05075845903449        0.71126507458119        0.00236972588454
C           -0.16238485110284        2.21335181425552        0.00231455079498
O            2.38917691172381        0.70915231576295       -0.00292564063433
H           -2.71004558041819        1.23135512998981        0.88456598934889
H           -2.69851699144580        1.24969693670999       -0.87617122222561
H           -3.37149644409474       -0.14107258227439       -0.01416743190276
H           -2.05016941693775       -2.04839740926901       -0.00213029175300
H            0.15939355525924       -3.17548320996758        0.00129385273566
H            2.24343974826069       -1.80726712278607        0.00100690603422
H           -0.74347641550501        2.56637011334567        0.86104859435687
H            0.79818886296136        2.73468495765408        0.04877831612868
H           -0.66879698314874        2.57419906251608       -0.89996411121229
H            2.23440360390282        1.65904640895024       -0.01358020045708
19
 energy: -386.003550842414 gnorm: 0.000358255469 xtb: 6.7.1 (41059b4)
C           -2.57068701337381        0.60116774958326       -0.00163274042400
C           -1.22345935168276       -0.06810082381769        0.00020237080716
C           -1.13848343072450       -1.45930712207186       -0.00035644441134
C            0.10069422577527       -2.09181860847843        0.00133415111775
C            1.26422167129981       -1.34180003285646        0.00151393374534
C            1.18688102641366        0.05080256348514        0.00042250258679
C           -0.05075845903449        0.71126507458119        0.00236972588454
C           -0.16238485110284        2.21335181425552        0.00231455079498
O            2.38917691172381        0.70915231576295       -0.00292564063433
H           -2.71004558041819        1.23135512998981        0.88456598934889
H           -2.69851699144580        1.24969693670999       -0.87617122222561
H           -3.37149644409474       -0.14107258227439       -0.01416743190276
H           -2.05016941693775       -2.04839740926901       -0.00213029175300
H            0.15939355525924       -3.17548320996758        0.00129385273566
H            2.24343974826069       -1.80726712278607        0.00100690603422
H           -0.74347641550501        2.56637011334567        0.86104859435687
H            0.79818886296136        2.73468495765408        0.04877831612868
H           -0.66879698314874        2.57419906251608       -0.89996411121229
H            2.23440360390282        1.65904640895024       -0.01358020045708
