 Entering Gaussian System
 *********************************************
 Gaussian 98:
 frequency output generated by the xtb code
 *********************************************
                         Standard orientation:
 --------------------------------------------------------------------
  Center     Atomic     Atomic              Coordinates (Angstroms)
  Number     Number      Type              X           Y           Z
 --------------------------------------------------------------------
    1          6             0        1.311938   -0.240522   -0.034203
    2          6             0       -0.009362    0.518796   -0.093439
    3          8             0       -1.123941   -0.334402   -0.210159
    4          1             0        1.355134   -0.862659    0.858899
    5          1             0        1.414330   -0.879706   -0.907899
    6          1             0        2.142761    0.459051   -0.010057
    7          1             0       -0.040784    1.155822   -0.980198
    8          1             0       -0.110914    1.158657    0.796251
    9          1             0       -1.108004   -0.963562    0.519815
 --------------------------------------------------------------------
     1 basis functions        1 primitive gaussians
     1 alpha electrons        1 beta electrons

 Harmonic frequencies (cm**-1), IR intensities (km*mol⁻¹),
 Raman scattering activities (A**4/amu), Raman depolarization ratios,
 reduced masses (AMU), force constants (mDyne/A) and normal coordinates:
                      1                      2                      3
                        a                      a                      a 
 Frequencies --   225.7759               339.6218               420.5390
 Red. masses --     1.0976                 1.1291                 2.7587
 Frc consts  --     0.0000                 0.0000                 0.0000
 IR Inten    --     2.6571               141.4123                30.1520
 Raman Activ --     0.0000                 0.0000                 0.0000
 Depolar     --     0.0000                 0.0000                 0.0000
 Atom AN      X      Y      Z        X      Y      Z        X      Y      Z
   1   6    -0.01  -0.01   0.00     0.16   0.06  -0.06     0.40   0.10   0.04
   2   6    -0.01   0.01   0.22    -0.01  -0.14   0.15     0.05  -0.39  -0.06
   3   8     0.02   0.02  -0.19    -0.03  -0.08  -0.19    -0.53   0.26   0.05
   4   1     0.26   0.37   0.24     0.15   0.02  -0.03     0.25   0.08   0.04
   5   1    -0.30  -0.36   0.23     0.02   0.03  -0.03     0.30   0.03   0.03
   6   1     0.02  -0.02  -0.55    -0.01   0.08  -0.08    -0.05   0.23   0.01
   7   1     0.00   0.08   0.12     0.01   0.00   0.07     0.04  -0.11  -0.02
   8   1    -0.02  -0.08   0.12    -0.01  -0.08   0.07     0.06  -0.09  -0.02
   9   1     0.03  -0.11  -0.15    -0.59   0.54   0.44    -0.04  -0.18  -0.20
                      4                      5                      6
                        a                      a                      a 
 Frequencies --   831.5590               932.1039              1045.6968
 Red. masses --     1.0900                 2.1804                 1.3608
 Frc consts  --     0.0000                 0.0000                 0.0000
 IR Inten    --     8.0597                 7.8508                48.4268
 Raman Activ --     0.0000                 0.0000                 0.0000
 Depolar     --     0.0000                 0.0000                 0.0000
 Atom AN      X      Y      Z        X      Y      Z        X      Y      Z
   1   6     0.01  -0.01  -0.13     0.49   0.03   0.04     0.08  -0.31   0.15
   2   6    -0.00   0.01  -0.25    -0.01   0.36  -0.01    -0.17   0.27  -0.18
   3   8    -0.01  -0.02   0.06    -0.40  -0.24  -0.02    -0.14  -0.08  -0.02
   4   1    -0.34   0.23   0.16    -0.11  -0.07  -0.03     0.40  -0.13  -0.02
   5   1     0.33  -0.24   0.18    -0.15  -0.04   0.01     0.10   0.07  -0.06
   6   1     0.00  -0.01   0.16     0.44  -0.37   0.02    -0.18   0.17  -0.09
   7   1    -0.23   0.38   0.22    -0.09   0.09  -0.00     0.25   0.26   0.09
   8   1     0.20  -0.37   0.24    -0.14   0.05  -0.00    -0.16  -0.10   0.07
   9   1     0.06   0.09   0.09    -0.04  -0.04   0.00     0.43   0.22   0.19
                      7                      8                      9
                        a                      a                      a 
 Frequencies --  1089.8148              1130.1030              1235.4926
 Red. masses --     2.6604                 2.2590                 1.3028
 Frc consts  --     0.0000                 0.0000                 0.0000
 IR Inten    --    51.9712                37.9334                12.5963
 Raman Activ --     0.0000                 0.0000                 0.0000
 Depolar     --     0.0000                 0.0000                 0.0000
 Atom AN      X      Y      Z        X      Y      Z        X      Y      Z
   1   6    -0.28   0.32   0.10     0.13   0.18   0.16     0.03   0.09  -0.33
   2   6     0.58  -0.14  -0.16    -0.34  -0.45  -0.23    -0.11  -0.13   0.30
   3   8    -0.28  -0.17   0.03     0.24   0.31   0.06    -0.06   0.03  -0.05
   4   1    -0.08  -0.00  -0.04    -0.02  -0.12  -0.07    -0.28   0.17   0.05
   5   1    -0.30   0.14  -0.05    -0.30   0.08  -0.03     0.18  -0.19   0.10
   6   1     0.01  -0.02  -0.05     0.23  -0.20  -0.06     0.08  -0.07   0.13
   7   1     0.34   0.13   0.08    -0.07   0.06   0.07     0.54  -0.13  -0.02
   8   1     0.04  -0.21   0.06    -0.25  -0.25   0.04    -0.31   0.10  -0.06
   9   1     0.09   0.04   0.07     0.18   0.12   0.06     0.29   0.15   0.11
                     10                     11                     12
                        a                      a                      a 
 Frequencies --  1314.5069              1349.7052              1404.7978
 Red. masses --     1.1758                 1.2710                 1.2365
 Frc consts  --     0.0000                 0.0000                 0.0000
 IR Inten    --    17.8966                62.8026                 8.3614
 Raman Activ --     0.0000                 0.0000                 0.0000
 Depolar     --     0.0000                 0.0000                 0.0000
 Atom AN      X      Y      Z        X      Y      Z        X      Y      Z
   1   6     0.00  -0.13  -0.07    -0.01   0.09   0.03     0.40  -0.18   0.00
   2   6     0.16   0.11  -0.16    -0.38   0.06  -0.16    -0.10  -0.00  -0.01
   3   8     0.13   0.04   0.23     0.12  -0.07   0.14     0.00  -0.02   0.01
   4   1    -0.02   0.05   0.03     0.07  -0.06  -0.06    -0.45   0.12   0.12
   5   1     0.07  -0.01  -0.02     0.05  -0.03   0.04    -0.50   0.09  -0.14
   6   1    -0.10   0.09  -0.00     0.11  -0.11  -0.03    -0.31   0.40   0.04
   7   1     0.11   0.15   0.04     0.61   0.16   0.04     0.11   0.06   0.03
   8   1    -0.72  -0.14  -0.01     0.39  -0.02   0.05     0.12   0.05  -0.02
   9   1    -0.42  -0.22  -0.14    -0.35  -0.20  -0.12    -0.01  -0.02  -0.01
                     13                     14                     15
                        a                      a                      a 
 Frequencies --  1482.9970              1489.7871              1496.9643
 Red. masses --     1.0815                 1.0541                 1.0597
 Frc consts  --     0.0000                 0.0000                 0.0000
 IR Inten    --     1.0121                 3.0825                 1.8940
 Raman Activ --     0.0000                 0.0000                 0.0000
 Depolar     --     0.0000                 0.0000                 0.0000
 Atom AN      X      Y      Z        X      Y      Z        X      Y      Z
   1   6    -0.02   0.02   0.00    -0.03  -0.01  -0.21     0.08   0.20  -0.02
   2   6     0.05  -0.26   0.01    -0.00  -0.01  -0.05     0.04   0.06  -0.01
   3   8    -0.02  -0.03  -0.01     0.01   0.00   0.01    -0.00  -0.00   0.00
   4   1     0.01  -0.06  -0.04     0.46   0.24   0.13    -0.01  -0.50  -0.36
   5   1     0.04  -0.05   0.04    -0.37  -0.12   0.03    -0.15  -0.54   0.39
   6   1     0.00  -0.01  -0.02     0.02  -0.05   0.71    -0.18   0.24   0.08
   7   1    -0.07   0.53   0.40    -0.02   0.04   0.01    -0.03  -0.04  -0.04
   8   1    -0.02   0.55  -0.40     0.02   0.00  -0.01    -0.03  -0.05   0.04
   9   1    -0.01  -0.01  -0.00    -0.02  -0.01  -0.01    -0.00  -0.01  -0.00
                     16                     17                     18
                        a                      a                      a 
 Frequencies --  2865.8304              2983.2992              3018.9557
 Red. masses --     1.0728                 1.0682                 1.0750
 Frc consts  --     0.0000                 0.0000                 0.0000
 IR Inten    --    80.3236                17.8302                49.6267
 Raman Activ --     0.0000                 0.0000                 0.0000
 Depolar     --     0.0000                 0.0000                 0.0000
 Atom AN      X      Y      Z        X      Y      Z        X      Y      Z
   1   6     0.01   0.00   0.00     0.01   0.03  -0.04    -0.00   0.13  -0.22
   2   6     0.03  -0.12  -0.22     0.01  -0.15   0.19    -0.00   0.03  -0.05
   3   8    -0.01  -0.01  -0.01    -0.01  -0.01   0.00     0.00   0.00   0.00
   4   1    -0.00   0.01  -0.01     0.01  -0.11   0.15     0.03  -0.54   0.78
   5   1     0.01  -0.03  -0.03    -0.00   0.02   0.01    -0.00   0.05   0.02
   6   1    -0.01  -0.01   0.00    -0.03  -0.02  -0.01    -0.00   0.01  -0.03
   7   1     0.01  -0.06   0.02    -0.02   0.54  -0.78     0.00  -0.11   0.15
   8   1    -0.09   0.55   0.79    -0.00   0.02   0.09    -0.00   0.00  -0.00
   9   1    -0.00   0.00   0.00    -0.00  -0.01   0.01    -0.00   0.00  -0.00
                     19                     20                     21
                        a                      a                      a 
 Frequencies --  3043.9017              3049.2740              3543.9726
 Red. masses --     1.0669                 1.0728                 1.0654
 Frc consts  --     0.0000                 0.0000                 0.0000
 IR Inten    --    25.3740                28.6646                 6.1150
 Raman Activ --     0.0000                 0.0000                 0.0000
 Depolar     --     0.0000                 0.0000                 0.0000
 Atom AN      X      Y      Z        X      Y      Z        X      Y      Z
   1   6     0.03  -0.15  -0.19    -0.19  -0.17  -0.02     0.00  -0.00   0.00
   2   6     0.00  -0.01  -0.02    -0.00  -0.01   0.00     0.00   0.01  -0.00
   3   8    -0.00   0.00   0.00    -0.00   0.00  -0.00    -0.01   0.16  -0.18
   4   1    -0.00   0.01  -0.08    -0.02  -0.03   0.00     0.00  -0.00  -0.00
   5   1    -0.08   0.56   0.78    -0.03  -0.00   0.03    -0.00   0.00  -0.00
   6   1    -0.03  -0.04  -0.03     0.73   0.63   0.02    -0.00  -0.00  -0.00
   7   1     0.00  -0.01   0.01    -0.00   0.02  -0.03     0.00  -0.00   0.01
   8   1    -0.00   0.02   0.03    -0.00   0.01   0.01    -0.00  -0.00  -0.00
   9   1     0.00  -0.00  -0.00     0.00  -0.00   0.00     0.01  -0.64   0.73
