13
 energy: -307.399589583528 gnorm: 0.015692844618 xtb: 6.7.1 (41059b4)
C           -1.86208845172514       -0.00878891510389       -0.00000176770000
C           -1.16124371371458       -1.20158156193245       -0.00000142540000
C            0.22231971839852       -1.19872782973119       -0.00000014220000
C            0.91441719460520        0.00615209290273        0.00000226450000
C            0.20993082719303        1.20610433793446        0.00000009580000
C           -1.17094652731888        1.19224647232832       -0.00000280920000
O            2.27478710610802        0.05814165322576       -0.00000081800000
H           -2.94142743170342       -0.01446292650641        0.00001942530001
H           -1.69110065974937       -2.14277593394952        0.00001183550001
H            0.76990737004117       -2.13272088394507        0.00000061010000
H            0.76351717133833        2.13158011304456        0.00000417230000
H           -1.71202093215864        2.12677209174243        0.00001788030001
H            2.63573637306797       -0.83657003237071        0.00000415800000
13
 energy: -307.400041814568 gnorm: 0.005243856985 xtb: 6.7.1 (41059b4)
C           -1.87013360404620       -0.00931407564013        0.00000824291191
C           -1.16553750926085       -1.20682894363200        0.00000555217626
C            0.22394724109003       -1.20593164949691        0.00000079137969
C            0.91657826675487        0.00393479394618       -0.00000129358501
C            0.21596132690160        1.20900915657794        0.00000264675130
C           -1.17120484354639        1.19432955179316        0.00000807047660
O            2.28002788351532        0.06502156213708       -0.00000235884774
H           -2.95353447846369       -0.01327300599035        0.00001063319554
H           -1.69719079258293       -2.15164523344917        0.00000625591100
H            0.77285256392608       -2.14381914457228       -0.00000018452622
H            0.77224433077035        2.13887033513835        0.00000283419922
H           -1.71186925291423        2.13405579969052        0.00000924958612
H            2.63964690077268       -0.82904049000805        0.00000295385691
13
 energy: -307.400076038443 gnorm: 0.001875607160 xtb: 6.7.1 (41059b4)
C           -1.87264246317188       -0.00929251706813        0.00000825452287
C           -1.16675478308042       -1.20819010733456        0.00000537958693
C            0.22460203869303       -1.20896942441873        0.00000194177509
C            0.91652944022637        0.00264987189433        0.00000199030552
C            0.21771305189568        1.20945967006392        0.00000342066969
C           -1.17124107451543        1.19486363961050        0.00000638297570
O            2.28208909074090        0.06853799298485       -0.00000229229465
H           -2.95705896127105       -0.01237521629680        0.00001081287888
H           -1.69886248598606       -2.15422238823178        0.00000594718193
H            0.77299115878098       -2.14833351425826       -0.00000067717703
H            0.77455619180779        2.14036940032803        0.00000255738992
H           -1.71125295822546        2.13652761689709        0.00000888994930
H            2.64111978358035       -0.82565637861613        0.00000075100775
13
 energy: -307.400078918046 gnorm: 0.000328336750 xtb: 6.7.1 (41059b4)
C           -1.87276164079089       -0.00917609656870        0.00000781902002
C           -1.16682971727834       -1.20795813971123        0.00000564940535
C            0.22474911822676       -1.20968037888842        0.00000237637240
C            0.91585963839441        0.00215345332075        0.00000139143644
C            0.21759828346838        1.20907222257510        0.00000406857327
C           -1.17127096744420        1.19480218624309        0.00000721573471
O            2.28271938691725        0.06990177846731       -0.00000201600015
H           -2.95708351869931       -0.01210907728288        0.00001052643753
H           -1.69885270858549       -2.15412984143434        0.00000583754416
H            0.77228831370508       -2.14945884474981       -0.00000016441719
H            0.77460543574450        2.13973595972178        0.00000287384615
H           -1.71075976430639        2.13679967257240        0.00000810014003
H            2.64152616919533       -0.82458425330416       -0.00000032880685
13
 energy: -307.400078918046 gnorm: 0.000328336750 xtb: 6.7.1 (41059b4)
C           -1.87276164079089       -0.00917609656870        0.00000781902002
C           -1.16682971727834       -1.20795813971123        0.00000564940535
C            0.22474911822676       -1.20968037888842        0.00000237637240
C            0.91585963839441        0.00215345332075        0.00000139143644
C            0.21759828346838        1.20907222257510        0.00000406857327
C           -1.17127096744420        1.19480218624309        0.00000721573471
O            2.28271938691725        0.06990177846731       -0.00000201600015
H           -2.95708351869931       -0.01210907728288        0.00001052643753
H           -1.69885270858549       -2.15412984143434        0.00000583754416
H            0.77228831370508       -2.14945884474981       -0.00000016441719
H            0.77460543574450        2.13973595972178        0.00000287384615
H           -1.71075976430639        2.13679967257240        0.00000810014003
H            2.64152616919533       -0.82458425330416       -0.00000032880685
