
                                 *****************
                                 * O   R   C   A *
                                 *****************

                                            #,                                       
                                            ###                                      
                                            ####                                     
                                            #####                                    
                                            ######                                   
                                           ########,                                 
                                     ,,################,,,,,                         
                               ,,#################################,,                 
                          ,,##########################################,,             
                       ,#########################################, ''#####,          
                    ,#############################################,,   '####,        
                  ,##################################################,,,,####,       
                ,###########''''           ''''###############################       
              ,#####''   ,,,,##########,,,,          '''####'''          '####       
            ,##' ,,,,###########################,,,                        '##       
           ' ,,###''''                  '''############,,,                           
         ,,##''                                '''############,,,,        ,,,,,,###''
      ,#''                                            '''#######################'''  
     '                                                          ''''####''''         
             ,#######,   #######,   ,#######,      ##                                
            ,#'     '#,  ##    ##  ,#'     '#,    #''#        ,####,   ,####,        
            ##       ##  ##   ,#'  ##            #'  '#       #'       #'  '#        
            ##       ##  #######   ##           ,######,      #####,   #    #        
            '#,     ,#'  ##    ##  '#,     ,#' ,#      #,     #,   #   #,  ,#        
             '#######'   ##     ##  '#######'  #'      '#     '####' # '####'        



                #########################################################
                #                        -***-                          #
                #          Department of theory and spectroscopy        #
                #                                                       #
                #                      Frank Neese                      #
                #                                                       #
                #     Directorship, Architecture, Infrastructure        #
                #                    SHARK, DRIVERS                     #
                #        Core code/Algorithms in most modules           #
                #                                                       #
                #        Max Planck Institute fuer Kohlenforschung      #
                #                Kaiser Wilhelm Platz 1                 #
                #                 D-45470 Muelheim/Ruhr                 #
                #                      Germany                          #
                #                                                       #
                #                  All rights reserved                  #
                #                        -***-                          #
                #########################################################


                         Program Version 6.0.1  -  RELEASE   -


 With contributions from (in alphabetic order):
[Max-Planck-Institut fuer Kohlenforschung]                               
  Daniel Aravena         : Magnetic Suceptibility                        
  Michael Atanasov       : Ab Initio Ligand Field Theory (pilot matlab implementation)
  Alexander A. Auer      : GIAO ZORA, VPT2 properties, NMR spectrum      
  Ute Becker             : All parallelization in ORCA, NUMFREQ, NUMCALC 
  Giovanni Bistoni       : ED, misc. LED, open-shell LED, HFLD           
  Martin Brehm           : Molecular dynamics                            
  Dmytro Bykov           : pre 5.0 version of the SCF Hessian            
  Marcos Casanova-Páez   : Triplet and SCS-CIS(D). UHF-(DLPNO)-IP/EA/STEOM-CCSD. UHF-CVS-IP/STEOM-CCSD   
  Vijay G. Chilkuri      : MRCI spin determinant printing, contributions to CSF-ICE 
  Pauline Colinet        : FMM embedding                                 
  Dipayan Datta          : RHF DLPNO-CCSD density                        
  Achintya Kumar Dutta   : EOM-CC, STEOM-CC                              
  Nicolas Foglia         : Exact transition moments, OPA infrastructure, MCD improvements    
  Dmitry Ganyushin       : Spin-Orbit,Spin-Spin,Magnetic field MRCI      
  Miquel Garcia-Rates    : C-PCM and meta-GGA Hessian, CCSD/C-PCM, Gaussian charge scheme 
  Tiago L. C. Gouveia    : GS-ROHF, GS-ROCIS                             
  Yang Guo               : DLPNO-NEVPT2, F12-NEVPT2, CIM, IAO-localization        
  Andreas Hansen         : Spin unrestricted coupled pair/coupled cluster methods 
  Ingolf Harden          : AUTO-CI MPn and infrastructure                
  Benjamin Helmich-Paris : MC-RPA, TRAH-(SCF,CASSCF), AVAS, COSX integrals, SCF dyn. polar. 
  Lee Huntington         : MR-EOM, pCC                                   
  Robert Izsak           : Overlap fitted RIJCOSX, COSX-SCS-MP3, EOM     
  Riya Kayal             : Wick's Theorem for AUTO-CI, AUTO-CI UHF-CCSDT 
  Emily Kempfer          : AUTO-CI, RHF CISDT and CCSDT                  
  Christian Kollmar      : KDIIS, OOCD, Brueckner-CCSD(T), CCSD density, CASPT2, CASPT2-K, improved NEVPT2 
  Axel Koslowski         : Symmetry handling                             
  Simone Kossmann        : meta-GGA functionals, TD-DFT gradient, OOMP2, (MP2 Hessian; deprecated post 5.0) 
  Lucas Lang             : DCDCAS                                        
  Marvin Lechner         : AUTO-CI (C++ implementation), FIC-MRCC        
  Spencer Leger          : CASSCF response                               
  Dagmar Lenk            : GEPOL surface, SMD, ORCA-2-JSON               
  Dimitrios Liakos       : Extrapolation schemes; Compound Job, initial MDCI parallelization 
  Dimitrios Manganas     : Further ROCIS development; embedding schemes. LFT, Crystal Embedding 
  Dimitrios Pantazis     : SARC Basis sets                               
  Anastasios Papadopoulos: AUTO-CI, single reference methods and gradients 
  Taras Petrenko         : pre 6.0 DFT Hessian and TD-DFT gradient, (ASA, deprecated), ECA, 1-Electron XAS/XES, NRVS 
  Peter Pinski           : DLPNO-MP2, DLPNO-MP2 Gradient                 
  Christoph Reimann      : Effective Core Potentials                     
  Marius Retegan         : Local ZFS, SOC                                
  Christoph Riplinger    : Optimizer, TS searches, QM/MM, DLPNO-CCSD(T), (RO)-DLPNO pert. Triples 
  Michael Roemelt        : Original ROCIS implementation                 
  Masaaki Saitow         : Open-shell DLPNO-CCSD energy and density      
  Barbara Sandhoefer     : DKH picture change effects                    
  Kantharuban Sivalingam : CASSCF convergence/infrastructure, NEVPT2 and variants, FIC-MRCI 
  Bernardo de Souza      : ESD, SOC TD-DFT                               
  Georgi L. Stoychev     : AutoAux, RI-MP2 NMR, DLPNO-MP2 response, X2C  
  Van Anh Tran           : RI-MP2 g-tensors                              
  Willem Van den Heuvel  : Paramagnetic NMR                              
  Zikuan Wang            : NOTCH, Electric field optimization            
  Frank Wennmohs         : Technical directorship and infrastructure     
  Hang Xu                : AUTO-CI-Response properties                   
                                                                         
[FACCTs GmbH]                                                            
  Markus Bursch, Miquel Garcia-Rates, Christoph Riplinger, Bernardo de Souza, Georgi L. Stoychev 
                                                                 
  APM, Basis sets (HGBS, AHGBS, def-TZVP (Ac-Lr), def2-XVPD (La-Lu)), CI-OPT, improved COSX, DLPNO-Multilevel,           
  DOCKER, DRACO, updates on ESD, GOAT, IRC, LR-CPCM, MBIS, meta-GGA TD-DFT gradient, ML-optimized integration grids, 
  MM, NACMEs, nearIR, NEB, NEB-TS, NL-DFT gradient (VV10), 2- and 3-layer-ONIOM, interface openCOSMO-RS, QMMM,   
  Crystal-QMMM, SF, symmetry and pop. for TD-DFT, r2SCAN hybrids, SOLVATOR                                   
                                                                         
[Other institutions]                                                     
  V. Asgeirsson          : NEB                                           
  Christoph Bannwarth    : sTDA-DFT, sTD-DFT, PBEh-3c, B97-3c, D3        
  Sebastian Ehlert       : rSCAN, r2SCAN, r2SCAN-3c, D4, dhf basis sets  
  Marvin Friede          : D4 for Fr, Ra, Ac-Lr                          
  Lars Goerigk           : TD-DFT with DH, B97 family of functionals     
  Stefan Grimme          : VdW corrections, initial TS optimization, DFT functionals, gCP, sTDA/sTD-DF 
  Waldemar Hujo          : DFT-NL                                        
  H. Jonsson             : NEB                                           
  Holger Kruse           : gCP                                           
  Marcel Mueller         : wB97X-3c, vDZP basis set                      
  Hagen Neugebauer       : wr2SCAN                                       
  Tobias Risthaus        : range-separated hybrid DFT                    
  Lukas Wittmann         : regularized MP2, r2SCAN double-hybrids, wr2SCAN        
                                                                         
We gratefully acknowledge several colleagues who have allowed us to      
interface, adapt or use parts of their codes:                            
  Ed Valeev, F. Pavosevic, A. Kumar             : LibInt (2-el integral package), F12 methods 
  Garnet Chan, S. Sharma, J. Yang, R. Olivares  : DMRG                   
  Ulf Ekstrom                                   : XCFun DFT Library      
  Mihaly Kallay                                 : mrcc  (arbitrary order and MRCC methods)
  Frank Weinhold                                : gennbo (NPA and NBO analysis)           
  Simon Mueller                                 : openCOSMO-RS                            
  Christopher J. Cramer and Donald G. Truhlar   : smd solvation model                     
  S Lehtola, MJT Oliveira, MAL Marques          : LibXC Library                           
  Liviu Ungur et al                             : ANISO software                          


 Your calculation uses the libint2 library for the computation of 2-el integrals
 For citations please refer to: http://libint.valeyev.net

 Your ORCA version has been built with support for libXC version: 6.2.2
 For citations please refer to: https://libxc.gitlab.io

 This ORCA versions uses:
   CBLAS   interface :  Fast vector & matrix operations
   LAPACKE interface :  Fast linear algebra routines
   SCALAPACK package :  Parallel linear algebra routines
   Shared memory     :  Shared parallel matrices
   BLAS/LAPACK       :  OpenBLAS 0.3.27  USE64BITINT DYNAMIC_ARCH NO_AFFINITY Zen SINGLE_THREADED
        Core in use  :  Zen
   Copyright (c) 2011-2014, The OpenBLAS Project


Your calculation utilizes the geometrical counterpoise correction gCP
Please cite in your paper:
H.Kruse, S. Grimme J.Chem.Phys., 136, (2012), 154101 
   

Your calculation utilizes the DFT-NL dispersion correction.
Cite in your paper:
Vydrov, O. A.; Van Voorhis, T. J. Chem. Phys. 2010, 133, 244103
Hujo, W.; Grimme, S. J. Chem. Theory Comput. 2011, 7, 3866 
   

================================================================================

----- Orbital basis set information -----
Your calculation utilizes the basis: def2-TZVP
   F. Weigend and R. Ahlrichs, Phys. Chem. Chem. Phys. 7, 3297 (2005).

----- AuxJ basis set information -----
Your calculation utilizes the auxiliary basis: def2/J
   F. Weigend, Phys. Chem. Chem. Phys. 8, 1057 (2006).

================================================================================
                                        WARNINGS
                       Please study these warnings very carefully!
================================================================================

WARNING: Old DensityContainer found on disk!
         Will remove this file - 
         If you want to keep old densities, please start your calculation with a different basename. 


================================================================================
                                       INPUT FILE
================================================================================
NAME = sp.inp
|  1> ! wb97x-v def2-tzvp def2/J RIJCOSX DEFGRID2 scfconv7 GCP(DFT/TZ) printgap
|  2> %output
|  3>     printlevel normal
|  4> end
|  5> * xyz 0 1
|  6> C 1.4043454672429432 -0.0006212865090890128 -4.4465527897404936e-05
|  7> C 0.6939141433175331 -1.1952469176522138 -7.872774883395138e-05
|  8> C -0.6972397622359875 -1.1406551144417745 -0.00012576680232561236
|  9> N -1.3937423363812496 0.0006091094261191593 -6.262367462445339e-05
| 10> C -0.6962378014464942 1.141260116110973 -5.201965399943018e-06
| 11> C 0.694964608987435 1.19462927199724 -3.438942499895616e-05
| 12> H 2.489978917131591 -0.0010996877539630415 -5.352068191124612e-05
| 13> H 1.2048172927183831 -2.1525599724927007 -8.363331925239183e-05
| 14> H -1.2819489211831834 -2.0595677093030513 -4.1494146815059146e-05
| 15> H -1.2801369305493078 2.060686939880915 -7.597591702618606e-05
| 16> H 1.2067099329815183 2.15149301988457 -3.178512382869654e-05
| 17> *
| 18> 
| 19>                          ****END OF INPUT****
================================================================================

                       ****************************
                       * Single Point Calculation *
                       ****************************

---------------------------------
CARTESIAN COORDINATES (ANGSTROEM)
---------------------------------
  C      1.404345   -0.000621   -0.000044
  C      0.693914   -1.195247   -0.000079
  C     -0.697240   -1.140655   -0.000126
  N     -1.393742    0.000609   -0.000063
  C     -0.696238    1.141260   -0.000005
  C      0.694965    1.194629   -0.000034
  H      2.489979   -0.001100   -0.000054
  H      1.204817   -2.152560   -0.000084
  H     -1.281949   -2.059568   -0.000041
  H     -1.280137    2.060687   -0.000076
  H      1.206710    2.151493   -0.000032

----------------------------
CARTESIAN COORDINATES (A.U.)
----------------------------
  NO LB      ZA    FRAG     MASS         X           Y           Z
   0 C     6.0000    0    12.011    2.653828   -0.001174   -0.000084
   1 C     6.0000    0    12.011    1.311308   -2.258689   -0.000149
   2 C     6.0000    0    12.011   -1.317592   -2.155526   -0.000238
   3 N     7.0000    0    14.007   -2.633791    0.001151   -0.000118
   4 C     6.0000    0    12.011   -1.315699    2.156669   -0.000010
   5 C     6.0000    0    12.011    1.313293    2.257522   -0.000065
   6 H     1.0000    0     1.008    4.705378   -0.002078   -0.000101
   7 H     1.0000    0     1.008    2.276775   -4.067749   -0.000158
   8 H     1.0000    0     1.008   -2.422532   -3.892019   -0.000078
   9 H     1.0000    0     1.008   -2.419108    3.894134   -0.000144
  10 H     1.0000    0     1.008    2.280351    4.065733   -0.000060

--------------------------------
INTERNAL COORDINATES (ANGSTROEM)
--------------------------------
 C      0   0   0     0.000000000000     0.00000000     0.00000000
 C      1   0   0     1.389907574543     0.00000000     0.00000000
 C      2   1   0     1.392224642839   118.49225135     0.00000000
 N      3   2   1     1.337011543876   123.64256857     0.00000000
 C      4   3   2     1.337010582831   117.15902918     0.00000000
 C      1   2   3     1.389908306246   118.57137630     0.00000000
 H      1   2   3     1.085633555334   120.71425677   180.00283098
 H      2   1   3     1.085113041604   121.17234515   179.99911569
 H      3   2   1     1.089167188568   120.22156825   180.00681443
 H      5   4   3     1.089166599857   116.13599453   179.99286666
 H      6   1   2     1.085113592514   121.17233063   180.00147260

---------------------------
INTERNAL COORDINATES (A.U.)
---------------------------
 C      0   0   0     0.000000000000     0.00000000     0.00000000
 C      1   0   0     2.626544667349     0.00000000     0.00000000
 C      2   1   0     2.630923291861   118.49225135     0.00000000
 N      3   2   1     2.526585655818   123.64256857     0.00000000
 C      4   3   2     2.526583839706   117.15902918     0.00000000
 C      1   2   3     2.626546050067   118.57137630     0.00000000
 H      1   2   3     2.051550101376   120.71425677   180.00283098
 H      2   1   3     2.050566472978   121.17234515   179.99911569
 H      3   2   1     2.058227700447   120.22156825   180.00681443
 H      5   4   3     2.058226587944   116.13599453   179.99286666
 H      6   1   2     2.050567514046   121.17233063   180.00147260

---------------------
BASIS SET INFORMATION
---------------------
There are 3 groups of distinct atoms

 Group   1 Type C   : 11s6p2d1f contracted to 5s3p2d1f pattern {62111/411/11/1}
 Group   2 Type N   : 11s6p2d1f contracted to 5s3p2d1f pattern {62111/411/11/1}
 Group   3 Type H   : 5s1p contracted to 3s1p pattern {311/1}

Atom   0C    basis set group =>   1
Atom   1C    basis set group =>   1
Atom   2C    basis set group =>   1
Atom   3N    basis set group =>   2
Atom   4C    basis set group =>   1
Atom   5C    basis set group =>   1
Atom   6H    basis set group =>   3
Atom   7H    basis set group =>   3
Atom   8H    basis set group =>   3
Atom   9H    basis set group =>   3
Atom  10H    basis set group =>   3
---------------------------------
AUXILIARY/J BASIS SET INFORMATION
---------------------------------
There are 3 groups of distinct atoms

 Group   1 Type C   : 12s5p4d2f1g contracted to 6s4p3d1f1g pattern {711111/2111/211/2/1}
 Group   2 Type N   : 12s5p4d2f1g contracted to 6s4p3d1f1g pattern {711111/2111/211/2/1}
 Group   3 Type H   : 5s2p1d contracted to 3s1p1d pattern {311/2/1}

Atom   0C    basis set group =>   1
Atom   1C    basis set group =>   1
Atom   2C    basis set group =>   1
Atom   3N    basis set group =>   2
Atom   4C    basis set group =>   1
Atom   5C    basis set group =>   1
Atom   6H    basis set group =>   3
Atom   7H    basis set group =>   3
Atom   8H    basis set group =>   3
Atom   9H    basis set group =>   3
Atom  10H    basis set group =>   3

Checking for AutoStart:
The File: sp.gbw exists
Trying to determine its content:
     ... Fine, the file contains calculation information
     ... Fine, the calculation information was read
     ... Fine, the file contains a basis set
     ... Fine, the basis set was read
     ... Fine, the file contains a geometry
     ... Fine, the geometry was read
     ... Fine, the file contains a set of orbitals
     ... Fine, the orbitals can be read
     => possible old guess file was deleted
     => GBW file was renamed to GES file
     => GES file is set as startup file
     => Guess is set to MORead
     ... now leaving AutoStart

------------------------------------------------------------------------------
                             ORCA STARTUP CALCULATIONS
                           -- RI-GTO INTEGRALS CHOSEN --
------------------------------------------------------------------------------
------------------------------------------------------------------------------
                   ___                                                        
                  /   \      - P O W E R E D   B Y -                         
                 /     \                                                     
                 |  |  |   _    _      __       _____    __    __             
                 |  |  |  | |  | |    /  \     |  _  \  |  |  /  |          
                  \  \/   | |  | |   /    \    | | | |  |  | /  /          
                 / \  \   | |__| |  /  /\  \   | |_| |  |  |/  /          
                |  |  |   |  __  | /  /__\  \  |    /   |      \           
                |  |  |   | |  | | |   __   |  |    \   |  |\   \          
                \     /   | |  | | |  |  |  |  | |\  \  |  | \   \       
                 \___/    |_|  |_| |__|  |__|  |_| \__\ |__|  \__/        
                                                                              
                      - O R C A' S   B I G   F R I E N D -                    
                                      &                                       
                       - I N T E G R A L  F E E D E R -                       
                                                                              
 v1 FN, 2020, v2 2021, v3 2022-2024                                           
------------------------------------------------------------------------------


----------------------
SHARK INTEGRAL PACKAGE
----------------------

Number of atoms                             ...     11
Number of basis functions                   ...    216
Number of shells                            ...     86
Maximum angular momentum                    ...      3
Integral batch strategy                     ... SHARK/LIBINT Hybrid
RI-J (if used) integral strategy            ... SPLIT-RIJ (Revised 2003 algorithm where possible)
Printlevel                                  ...      1
Contraction scheme used                     ... SEGMENTED contraction
Prescreening option                         ... SCHWARTZ
   Thresh                                   ... 3.000e-11
   Tcut                                     ... 1.000e-12
   Tpresel                                  ... 1.000e-12 
Coulomb Range Separation                    ... NOT USED
Exchange Range Separation                   ... Long Range
   Mu parameter                             ... 3.000e-01
   Scaling (regular/separated)              ... 1.670e-01 8.330e-01
Multipole approximations                    ... NOT USED
Finite Nucleus Model                        ... NOT USED
CABS basis                                  ... NOT available
Auxiliary Coulomb fitting basis             ... AVAILABLE
   # of basis functions in Aux-J            ...    349
   # of shells in Aux-J                     ...    115
   Maximum angular momentum in Aux-J        ...      4
Auxiliary J/K fitting basis                 ... NOT available
Auxiliary Correlation fitting basis         ... NOT available
Auxiliary 'external' fitting basis          ... NOT available

Checking pre-screening integrals            ... done (  0.0 sec) Dimension = 86
Check shell pair data                       ... done (  0.0 sec)
Shell pair information
Shell pair cut-off parameter TPreSel        ...   1.0e-12
Total number of shell pairs                 ...      3741
Shell pairs after pre-screening             ...      3630
Total number of primitive shell pairs       ...     11472
Primitive shell pairs kept                  ...      8881
          la=0 lb=0:    958 shell pairs
          la=1 lb=0:   1005 shell pairs
          la=1 lb=1:    274 shell pairs
          la=2 lb=0:    538 shell pairs
          la=2 lb=1:    276 shell pairs
          la=2 lb=2:     78 shell pairs
          la=3 lb=0:    270 shell pairs
          la=3 lb=1:    138 shell pairs
          la=3 lb=2:     72 shell pairs
          la=3 lb=3:     21 shell pairs

Calculating one electron integrals          ... done (  0.0 sec)
Calculating RI/J V-Matrix + Cholesky decomp.... done (  0.0 sec)
Calculating Nuclear repulsion               ... done (  0.0 sec) ENN=    206.313481203884 Eh

Diagonalization of the overlap matrix:
Smallest eigenvalue                        ... 6.128e-05
Time for diagonalization                   ...    0.003 sec
Threshold for overlap eigenvalues          ... 1.000e-07
Number of eigenvalues below threshold      ... 0
Time for construction of square roots      ...    0.001 sec
Total time needed                          ...    0.005 sec

-------------------
DFT GRID GENERATION
-------------------

General Integration Accuracy     IntAcc      ... 4.388
Radial Grid Type                 RadialGrid  ... OptM3 with GC (2021)
Angular Grid (max. ang.)         AngularGrid ... 4 (Lebedev-302)
Angular grid pruning method      GridPruning ... 4 (adaptive)
Weight generation scheme         WeightScheme... mBecke (2022)
Basis function cutoff            BFCut       ... 1.0000e-11
Integration weight cutoff        WCut        ... 1.0000e-14
Partially contracted basis set               ... off
Rotationally invariant grid construction     ... off
Angular grids for H and He will be reduced by one unit

Total number of grid points                  ...    52380
Total number of batches                      ...      825
Average number of points per batch           ...       63
Average number of grid points per atom       ...     4762

--------------------
COSX GRID GENERATION
--------------------

GRIDX 1
-------
General Integration Accuracy     IntAcc      ... 3.816
Radial Grid Type                 RadialGrid  ... OptM3 with GC (2021)
Angular Grid (max. ang.)         AngularGrid ... 1 (Lebedev-50)
Angular grid pruning method      GridPruning ... 4 (adaptive)
Weight generation scheme         WeightScheme... mBecke (2022)
Basis function cutoff            BFCut       ... 1.0000e-11
Integration weight cutoff        WCut        ... 1.0000e-14
Partially contracted basis set               ... on
Rotationally invariant grid construction     ... off
Angular grids for H and He will be reduced by one unit

Total number of grid points                  ...     6708
Total number of batches                      ...       57
Average number of points per batch           ...      117
Average number of grid points per atom       ...      610
UseSFitting                                  ... on

GRIDX 2
-------
General Integration Accuracy     IntAcc      ... 4.020
Radial Grid Type                 RadialGrid  ... OptM3 with GC (2021)
Angular Grid (max. ang.)         AngularGrid ... 2 (Lebedev-110)
Angular grid pruning method      GridPruning ... 4 (adaptive)
Weight generation scheme         WeightScheme... mBecke (2022)
Basis function cutoff            BFCut       ... 1.0000e-11
Integration weight cutoff        WCut        ... 1.0000e-14
Partially contracted basis set               ... on
Rotationally invariant grid construction     ... off
Angular grids for H and He will be reduced by one unit

Total number of grid points                  ...    14724
Total number of batches                      ...      122
Average number of points per batch           ...      120
Average number of grid points per atom       ...     1339
UseSFitting                                  ... on

GRIDX 3
-------
General Integration Accuracy     IntAcc      ... 4.338
Radial Grid Type                 RadialGrid  ... OptM3 with GC (2021)
Angular Grid (max. ang.)         AngularGrid ... 3 (Lebedev-194)
Angular grid pruning method      GridPruning ... 4 (adaptive)
Weight generation scheme         WeightScheme... mBecke (2022)
Basis function cutoff            BFCut       ... 1.0000e-11
Integration weight cutoff        WCut        ... 1.0000e-14
Partially contracted basis set               ... on
Rotationally invariant grid construction     ... off
Angular grids for H and He will be reduced by one unit

Total number of grid points                  ...    32516
Total number of batches                      ...      260
Average number of points per batch           ...      125
Average number of grid points per atom       ...     2956
UseSFitting                                  ... on
Initializing property integral containers    ... done (  0.0 sec)

SHARK setup successfully completed in   0.7 seconds

Maximum memory used throughout the entire STARTUP-calculation: 30.2 MB
-------------------------------------------------------------------------------
                                 ORCA GUESS
                   Start orbitals & Density for SCF / CASSCF
-------------------------------------------------------------------------------

------------
SCF SETTINGS
------------
Hamiltonian:
 Density Functional     Method          .... DFT(GTOs)
 Exchange Functional    Exchange        .... WB97X-V
 Correlation Functional Correlation     .... WB97X-V
 Gradients option       PostSCFGGA      .... off
 Hybrid DFT is turned on
   Fraction HF Exchange ScalHFX         ....  0.167000
   Scaling of DF-GGA-X  ScalDFX         ....  0.000000
   Scaling of DF-GGA-C  ScalDFC         ....  1.000000
   Scaling of DF-LDA-C  ScalLDAC        ....  1.000000
   Perturbative correction              ....  0.000000
 Long-range corrected/Screened/Range-Separated Hybrid DFT is turned on
   Amount of maximum screened exact exchange              ....  0.833000
   Range separation parameter mu (erf(mu*r12)/r12)        ....  0.300000
   NL short-range parameter             ....  6.000000
   NL long-range parameter              ....  0.010000
 RI-approximation to the Coulomb term is turned on
   Number of AuxJ basis functions       .... 349
   RIJ-COSX (HFX calculated with COS-X)).... on


General Settings:
 Integral files         IntName         .... sp
 Hartree-Fock type      HFTyp           .... RHF
 Total Charge           Charge          ....    0
 Multiplicity           Mult            ....    1
 Number of Electrons    NEL             ....   42
 Basis Dimension        Dim             ....  216
 Nuclear Repulsion      ENuc            ....    206.3134812039 Eh

Convergence Acceleration:
 AO-DIIS                CNVDIIS         .... on
   Start iteration      DIISMaxIt       ....    12
   Startup error        DIISStart       ....  0.200000
   # of expansion vecs  DIISMaxEq       ....     5
   Bias factor          DIISBfac        ....   1.050
   Max. coefficient     DIISMaxC        ....  10.000
 MO-DIIS                CNVKDIIS        .... off
 Trust-Rad. Augm. Hess. CNVTRAH         .... auto
   Auto Start mean grad. ratio tolernc. ....  1.125000
   Auto Start start iteration           ....     1
   Auto Start num. interpolation iter.  ....    10
   Max. Number of Micro iterations      ....    24
   Max. Number of Macro iterations      .... Maxiter - #DIIS iter
   Number of Davidson start vectors     ....     2
   Converg. threshold    (grad. norm)   ....   1.000e-04
   Grad. Scal. Fac. for Micro threshold ....   0.100
   Minimum threshold for Micro iter.    ....   1.000e-02
   NR start threshold (gradient norm)   ....   1.000e-04
   Initial trust radius                 ....   0.400
   Minimum AH scaling param. (alpha)    ....   1.000
   Maximum AH scaling param. (alpha)    .... 1000.000
   Quad. conv. algorithm                .... NR
   White noise on init. David. guess    .... on
   Maximum white noise                  ....   0.010
   Pseudo random numbers                .... off
   Inactive MOs                         .... canonical
   Orbital update algorithm             .... Taylor
   Preconditioner                       .... Diag
   Full preconditioner red. dimension   ....   250
 SOSCF                  CNVSOSCF        .... on
   Start iteration      SOSCFMaxIt      ....   150
   Startup grad/error   SOSCFStart      ....  0.003300
   Hessian update       SOSCFHessUp     .... L-BFGS
 Level Shifting         CNVShift        .... on
   Level shift para.    LevelShift      ....    0.2500
   Turn off err/grad.   ShiftErr        ....    0.0010
 Zerner damping         CNVZerner       .... off
 Static damping         CNVDamp         .... on
   Fraction old density DampFac         ....    0.7000
   Max. Damping (<1)    DampMax         ....    0.9800
   Min. Damping (>=0)   DampMin         ....    0.0000
   Turn off err/grad.   DampErr         ....    0.1000

SCF Procedure:
 Maximum # iterations   MaxIter         ....   125
 SCF integral mode      SCFMode         .... Direct
   Integral package                     .... SHARK and LIBINT hybrid scheme
 Reset frequency        DirectResetFreq ....    20
 Integral Threshold     Thresh          ....  3.000e-11 Eh
 Primitive CutOff       TCut            ....  1.000e-12 Eh

Convergence Tolerance:
 Convergence Check Mode ConvCheckMode   .... Total+1el-Energy
 Convergence forced     ConvForced      .... 0
 Energy Change          TolE            ....  1.000e-07 Eh
 1-El. energy change                    ....  1.000e-04 Eh
 Orbital Gradient       TolG            ....  1.000e-04
 Orbital Rotation angle TolX            ....  1.000e-04
 DIIS Error             TolErr          ....  1.000e-07

---------------------
INITIAL GUESS: MOREAD
---------------------
Guess MOs are being read from file: sp.ges
Input Geometry matches current geometry (good)
Atom 0: N(Shells)= 11 and 9 - projection required
Input basis set needs projection
NBasis(read)= 144
NBasis(calc)= 216
Basis set overlap was calculated
Using GuessMode=FMatrix for the initial guess
C*T matrix was formed
Effective Fockian was calculated
Effective Fockian was diagonalized
Initial density was built
                      ------------------
                      INITIAL GUESS DONE (   0.0 sec)
                      ------------------
             **** ENERGY FILE WAS UPDATED (sp.en.tmp) ****
Finished Guess after   0.0 sec
Maximum memory used throughout the entire GUESS-calculation: 18.4 MB

-------------------------------------------------------------------------------------------
                                      ORCA LEAN-SCF
                              memory conserving SCF solver
-------------------------------------------------------------------------------------------

----------------------------------------D-I-I-S--------------------------------------------
Iteration    Energy (Eh)           Delta-E    RMSDP     MaxDP     DIISErr   Damp  Time(sec)
-------------------------------------------------------------------------------------------
               ***  Starting incremental Fock matrix formation  ***
    1    -248.4460946298007968     0.00e+00  1.22e-03  2.27e-02  4.80e-02  0.700   4.6
    2    -248.4496574311716302    -3.56e-03  1.04e-03  2.02e-02  3.51e-02  0.700   2.2
                               ***Turning on AO-DIIS***
    3    -248.4523176486218574    -2.66e-03  8.62e-04  1.73e-02  2.52e-02  0.700   2.2
    4    -248.4542608476087651    -1.94e-03  2.15e-03  4.40e-02  1.78e-02  0.000   2.2
                              *** Initializing SOSCF ***
---------------------------------------S-O-S-C-F--------------------------------------
Iteration    Energy (Eh)           Delta-E    RMSDP     MaxDP     MaxGrad    Time(sec)
--------------------------------------------------------------------------------------
    5    -248.4591317833219080    -4.87e-03  9.49e-05  2.61e-03  6.50e-04     2.3
               *** Restarting incremental Fock matrix formation ***
    6    -248.4591375990910080    -5.82e-06  5.47e-05  1.68e-03  2.86e-04     4.6
    7    -248.4591398157231481    -2.22e-06  3.21e-05  1.06e-03  9.71e-05     3.8
    8    -248.4591402126033870    -3.97e-07  2.97e-06  6.50e-05  5.87e-05     3.7
    9    -248.4591402513356968    -3.87e-08  2.39e-06  7.49e-05  1.88e-05     3.4
                 **** Energy Check signals convergence ****

               *****************************************************
               *                     SUCCESS                       *
               *           SCF CONVERGED AFTER   9 CYCLES          *
               *****************************************************


------------------
NL GRID GENERATION
------------------

General Integration Accuracy     IntAcc      ... 4.004
Radial Grid Type                 RadialGrid  ... OptM3 with GC (2021)
Angular Grid (max. ang.)         AngularGrid ... 2 (Lebedev-110)
Angular grid pruning method      GridPruning ... 4 (adaptive)
Weight generation scheme         WeightScheme... mBecke (2022)
Basis function cutoff            BFCut       ... 1.0000e-10
Integration weight cutoff        WCut        ... 1.0000e-14
Partially contracted basis set               ... off
Rotationally invariant grid construction     ... off
Angular grids for H and He will be reduced by one unit

Total number of grid points                  ...    16784
Total number of batches                      ...      268
Average number of points per batch           ...       62
Average number of grid points per atom       ...     1526
Final grid set up in    0.1 sec

-------------------------------------------------------------------------------
                    post-SCF DFT-NL dispersion correction                      
-------------------------------------------------------------------------------

SCF Energy:     -248.459140251 
NL    Energy:      0.161796884 
SC+NL Energy:   -248.297343367 
NL done in  :              0.8 sec
-------------------------------------------------------------------------------
Recomputing exchange energy using gridx3       ... done (    8.567 sec)
Old exchange energy                            :    -11.189201398 Eh
New exchange energy                            :    -11.189182888 Eh
Exchange energy change after final integration :      0.000018510 Eh
Total energy after final integration           :   -248.297324857 Eh
             **** ENERGY FILE WAS UPDATED (sp.en.tmp) ****

----------------
TOTAL SCF ENERGY
----------------

Total Energy       :       -248.29732485727075 Eh           -6756.51370 eV

Components:
Nuclear Repulsion  :        206.31348120388444 Eh            5614.07524 eV
Electronic Energy  :       -454.77262145522013 Eh          -12374.99216 eV
One Electron Energy:       -742.14265387606042 Eh          -20194.72829 eV
Two Electron Energy:        287.37003242084029 Eh            7819.73613 eV

Virial components:
Potential Energy   :       -495.61381333097825 Eh          -13486.33749 eV
Kinetic Energy     :        247.31648847370749 Eh            6729.82379 eV
Virial Ratio       :          2.00396591585792

DFT components:
N(Alpha)           :       21.000019624420 electrons
N(Beta)            :       21.000019624420 electrons
N(Total)           :       42.000039248840 electrons
E(X)               :      -23.095035454701 Eh       
E(C)               :       -1.730354294393 Eh       
NL Energy, E(C,NL) :        0.161796884167 Eh       
E(XC)              :      -24.663592864928 Eh       

---------------
SCF CONVERGENCE
---------------

  Last Energy change         ...    3.8732e-08  Tolerance :   1.0000e-07
  Last MAX-Density change    ...    7.4929e-05  Tolerance :   1.0000e-05
  Last RMS-Density change    ...    2.3928e-06  Tolerance :   1.0000e-06
  Last DIIS Error            ...    6.4963e-04  Tolerance :   1.0000e-07
  Last Orbital Gradient      ...    1.8760e-05  Tolerance :   1.0000e-04
  Last Orbital Rotation      ...    3.3450e-05  Tolerance :   1.0000e-04


----------------
ORBITAL ENERGIES
----------------

  NO   OCC          E(Eh)            E(eV) 
   0   2.0000     -14.411427      -392.1549 
   1   2.0000     -10.311316      -280.5852 
   2   2.0000     -10.311301      -280.5848 
   3   2.0000     -10.298682      -280.2414 
   4   2.0000     -10.286757      -279.9169 
   5   2.0000     -10.286734      -279.9163 
   6   2.0000      -1.081526       -29.4298 
   7   2.0000      -0.943721       -25.6799 
   8   2.0000      -0.899019       -24.4636 
   9   2.0000      -0.757656       -20.6169 
  10   2.0000      -0.757047       -20.6003 
  11   2.0000      -0.653867       -17.7926 
  12   2.0000      -0.597186       -16.2502 
  13   2.0000      -0.588242       -16.0069 
  14   2.0000      -0.543036       -14.7768 
  15   2.0000      -0.522103       -14.2071 
  16   2.0000      -0.517732       -14.0882 
  17   2.0000      -0.472029       -12.8446 
  18   2.0000      -0.390687       -10.6311 
  19   2.0000      -0.366728        -9.9792 
  20   2.0000      -0.362234        -9.8569 
  21   0.0000       0.045639         1.2419 
  22   0.0000       0.059537         1.6201 
  23   0.0000       0.125098         3.4041 
  24   0.0000       0.151481         4.1220 
  25   0.0000       0.161965         4.4073 
  26   0.0000       0.181751         4.9457 
  27   0.0000       0.183448         4.9919 
  28   0.0000       0.204715         5.5706 
  29   0.0000       0.226858         6.1731 
  30   0.0000       0.255791         6.9604 
  31   0.0000       0.276359         7.5201 
*Only the first 10 virtual orbitals were printed.

                    ********************************
                    * MULLIKEN POPULATION ANALYSIS *
                    ********************************

-----------------------
MULLIKEN ATOMIC CHARGES
-----------------------
   0 C :   -0.131535
   1 C :   -0.091178
   2 C :   -0.046540
   3 N :   -0.220489
   4 C :   -0.046553
   5 C :   -0.091149
   6 H :    0.130354
   7 H :    0.125128
   8 H :    0.123421
   9 H :    0.123412
  10 H :    0.125129
Sum of atomic charges:    0.0000000

--------------------------------
MULLIKEN REDUCED ORBITAL CHARGES
--------------------------------
  0 C s       :     3.181341  s :     3.181341
      pz      :     0.912992  p :     2.854081
      px      :     1.013412
      py      :     0.927678
      dz2     :     0.004317  d :     0.088621
      dxz     :     0.005616
      dyz     :     0.024042
      dx2y2   :     0.031015
      dxy     :     0.023631
      f0      :     0.001605  f :     0.007492
      f+1     :     0.000670
      f-1     :     0.000550
      f+2     :     0.000152
      f-2     :     0.001214
      f+3     :     0.001072
      f-3     :     0.002227

  1 C s       :     3.137980  s :     3.137980
      pz      :     0.984942  p :     2.865062
      px      :     0.928277
      py      :     0.951843
      dz2     :     0.005340  d :     0.080783
      dxz     :     0.014768
      dyz     :     0.009208
      dx2y2   :     0.025881
      dxy     :     0.025585
      f0      :     0.001613  f :     0.007353
      f+1     :     0.000619
      f-1     :     0.000693
      f+2     :     0.000766
      f-2     :     0.000412
      f+3     :     0.001074
      f-3     :     0.002175

  2 C s       :     3.189498  s :     3.189498
      pz      :     0.908814  p :     2.736551
      px      :     0.897688
      py      :     0.930049
      dz2     :     0.002788  d :     0.110143
      dxz     :     0.020804
      dyz     :     0.015276
      dx2y2   :     0.031839
      dxy     :     0.039436
      f0      :     0.001878  f :     0.010348
      f+1     :     0.000734
      f-1     :     0.000860
      f+2     :     0.001007
      f-2     :     0.000809
      f+3     :     0.001705
      f-3     :     0.003355

  3 N s       :     3.529451  s :     3.529451
      pz      :     1.087786  p :     3.620800
      px      :     1.543561
      py      :     0.989453
      dz2     :     0.006493  d :     0.066363
      dxz     :     0.010160
      dyz     :     0.013132
      dx2y2   :     0.014465
      dxy     :     0.022113
      f0      :     0.000623  f :     0.003876
      f+1     :     0.000202
      f-1     :     0.000361
      f+2     :     0.000241
      f-2     :     0.000625
      f+3     :     0.000786
      f-3     :     0.001037

  4 C s       :     3.189554  s :     3.189554
      pz      :     0.908814  p :     2.736507
      px      :     0.897530
      py      :     0.930163
      dz2     :     0.002790  d :     0.110144
      dxz     :     0.020823
      dyz     :     0.015257
      dx2y2   :     0.031878
      dxy     :     0.039396
      f0      :     0.001878  f :     0.010348
      f+1     :     0.000734
      f-1     :     0.000860
      f+2     :     0.001005
      f-2     :     0.000811
      f+3     :     0.001705
      f-3     :     0.003355

  5 C s       :     3.137962  s :     3.137962
      pz      :     0.984940  p :     2.865068
      px      :     0.928294
      py      :     0.951833
      dz2     :     0.005335  d :     0.080766
      dxz     :     0.014757
      dyz     :     0.009219
      dx2y2   :     0.025857
      dxy     :     0.025598
      f0      :     0.001613  f :     0.007353
      f+1     :     0.000619
      f-1     :     0.000693
      f+2     :     0.000768
      f-2     :     0.000411
      f+3     :     0.001074
      f-3     :     0.002175

  6 H s       :     0.847807  s :     0.847807
      pz      :     0.004076  p :     0.021838
      px      :     0.014192
      py      :     0.003571

  7 H s       :     0.852679  s :     0.852679
      pz      :     0.004572  p :     0.022193
      px      :     0.005883
      py      :     0.011738

  8 H s       :     0.855252  s :     0.855252
      pz      :     0.004000  p :     0.021327
      px      :     0.006471
      py      :     0.010856

  9 H s       :     0.855261  s :     0.855261
      pz      :     0.004000  p :     0.021327
      px      :     0.006461
      py      :     0.010866

 10 H s       :     0.852678  s :     0.852678
      pz      :     0.004572  p :     0.022193
      px      :     0.005891
      py      :     0.011730


------------------------
MULLIKEN OVERLAP CHARGES
------------------------
B(  0-C ,  1-C ) :   0.9820 B(  0-C ,  3-N ) :  -0.1509 B(  0-C ,  5-C ) :   0.9819 
B(  0-C ,  6-H ) :   0.8637 B(  0-C ,  7-H ) :  -0.1253 B(  0-C , 10-H ) :  -0.1253 
B(  1-C ,  2-C ) :   1.0473 B(  1-C ,  3-N ) :  -0.0856 B(  1-C ,  4-C ) :  -0.0693 
B(  1-C ,  5-C ) :  -0.0787 B(  1-C ,  6-H ) :  -0.0857 B(  1-C ,  7-H ) :   0.8387 
B(  1-C ,  8-H ) :  -0.1233 B(  2-C ,  3-N ) :   1.0454 B(  2-C ,  4-C ) :  -0.1803 
B(  2-C ,  5-C ) :  -0.0693 B(  2-C ,  7-H ) :  -0.0714 B(  2-C ,  8-H ) :   0.8591 
B(  3-N ,  4-C ) :   1.0455 B(  3-N ,  5-C ) :  -0.0856 B(  3-N ,  8-H ) :  -0.0574 
B(  3-N ,  9-H ) :  -0.0574 B(  4-C ,  5-C ) :   1.0473 B(  4-C ,  9-H ) :   0.8591 
B(  4-C , 10-H ) :  -0.0714 B(  5-C ,  6-H ) :  -0.0857 B(  5-C ,  9-H ) :  -0.1233 
B(  5-C , 10-H ) :   0.8387 


                     *******************************
                     * LOEWDIN POPULATION ANALYSIS *
                     *******************************

----------------------
LOEWDIN ATOMIC CHARGES
----------------------
   0 C :   -0.119444
   1 C :   -0.152022
   2 C :   -0.200235
   3 N :    0.121336
   4 C :   -0.200235
   5 C :   -0.152022
   6 H :    0.144592
   7 H :    0.143613
   8 H :    0.135402
   9 H :    0.135402
  10 H :    0.143613

-------------------------------
LOEWDIN REDUCED ORBITAL CHARGES
-------------------------------
  0 C s       :     2.767214  s :     2.767214
      pz      :     0.842925  p :     2.915988
      px      :     0.995390
      py      :     1.077673
      dz2     :     0.025490  d :     0.392117
      dxz     :     0.012641
      dyz     :     0.081539
      dx2y2   :     0.168981
      dxy     :     0.103466
      f0      :     0.003116  f :     0.044125
      f+1     :     0.003190
      f-1     :     0.004185
      f+2     :     0.001185
      f-2     :     0.008262
      f+3     :     0.007819
      f-3     :     0.016367

  1 C s       :     2.769069  s :     2.769069
      pz      :     0.898302  p :     2.968402
      px      :     1.059930
      py      :     1.010170
      dz2     :     0.026180  d :     0.371644
      dxz     :     0.054134
      dyz     :     0.026489
      dx2y2   :     0.125496
      dxy     :     0.139345
      f0      :     0.003144  f :     0.042906
      f+1     :     0.004147
      f-1     :     0.003471
      f+2     :     0.005535
      f-2     :     0.002960
      f+3     :     0.008044
      f-3     :     0.015606

  2 C s       :     2.779875  s :     2.779875
      pz      :     0.849692  p :     2.870362
      px      :     1.052254
      py      :     0.968416
      dz2     :     0.031712  d :     0.488916
      dxz     :     0.066480
      dyz     :     0.039431
      dx2y2   :     0.150848
      dxy     :     0.200444
      f0      :     0.004147  f :     0.061082
      f+1     :     0.004725
      f-1     :     0.004895
      f+2     :     0.007062
      f-2     :     0.004802
      f+3     :     0.010715
      f-3     :     0.024736

  3 N s       :     3.046982  s :     3.046982
      pz      :     1.002304  p :     3.596823
      px      :     1.437595
      py      :     1.156924
      dz2     :     0.017813  d :     0.216686
      dxz     :     0.010674
      dyz     :     0.046376
      dx2y2   :     0.067416
      dxy     :     0.074406
      f0      :     0.001091  f :     0.018173
      f+1     :     0.000662
      f-1     :     0.002087
      f+2     :     0.000355
      f-2     :     0.003446
      f+3     :     0.003808
      f-3     :     0.006725

  4 C s       :     2.779875  s :     2.779875
      pz      :     0.849692  p :     2.870362
      px      :     1.052261
      py      :     0.968409
      dz2     :     0.031712  d :     0.488916
      dxz     :     0.066545
      dyz     :     0.039367
      dx2y2   :     0.151024
      dxy     :     0.200269
      f0      :     0.004147  f :     0.061082
      f+1     :     0.004728
      f-1     :     0.004893
      f+2     :     0.007048
      f-2     :     0.004815
      f+3     :     0.010711
      f-3     :     0.024740

  5 C s       :     2.769070  s :     2.769070
      pz      :     0.898302  p :     2.968402
      px      :     1.059874
      py      :     1.010226
      dz2     :     0.026180  d :     0.371643
      dxz     :     0.054092
      dyz     :     0.026531
      dx2y2   :     0.125388
      dxy     :     0.139452
      f0      :     0.003144  f :     0.042906
      f+1     :     0.004146
      f-1     :     0.003472
      f+2     :     0.005544
      f-2     :     0.002950
      f+3     :     0.008041
      f-3     :     0.015609

  6 H s       :     0.797714  s :     0.797714
      pz      :     0.011811  p :     0.057693
      px      :     0.035132
      py      :     0.010751

  7 H s       :     0.797653  s :     0.797653
      pz      :     0.013276  p :     0.058734
      px      :     0.016085
      py      :     0.029373

  8 H s       :     0.807888  s :     0.807888
      pz      :     0.011685  p :     0.056710
      px      :     0.017368
      py      :     0.027657

  9 H s       :     0.807888  s :     0.807888
      pz      :     0.011685  p :     0.056710
      px      :     0.017346
      py      :     0.027680

 10 H s       :     0.797653  s :     0.797653
      pz      :     0.013276  p :     0.058734
      px      :     0.016103
      py      :     0.029355


---------------------------------
LOEWDIN BOND ORDERS (THRESH 0.050000)
---------------------------------
B(  0-C ,  1-C ) :   1.5838 B(  0-C ,  2-C ) :   0.2582 B(  0-C ,  3-N ) :   0.0915 
B(  0-C ,  4-C ) :   0.2582 B(  0-C ,  5-C ) :   1.5838 B(  0-C ,  6-H ) :   0.8317 
B(  0-C ,  7-H ) :   0.0944 B(  0-C , 10-H ) :   0.0944 B(  1-C ,  2-C ) :   1.5960 
B(  1-C ,  3-N ) :   0.1933 B(  1-C ,  4-C ) :   0.1260 B(  1-C ,  5-C ) :   0.2492 
B(  1-C ,  6-H ) :   0.0946 B(  1-C ,  7-H ) :   0.8326 B(  1-C ,  8-H ) :   0.0956 
B(  2-C ,  3-N ) :   1.7807 B(  2-C ,  4-C ) :   0.3072 B(  2-C ,  5-C ) :   0.1260 
B(  2-C ,  7-H ) :   0.0969 B(  2-C ,  8-H ) :   0.8513 B(  3-N ,  4-C ) :   1.7807 
B(  3-N ,  5-C ) :   0.1933 B(  3-N ,  8-H ) :   0.0767 B(  3-N ,  9-H ) :   0.0767 
B(  4-C ,  5-C ) :   1.5960 B(  4-C ,  9-H ) :   0.8513 B(  4-C , 10-H ) :   0.0969 
B(  5-C ,  6-H ) :   0.0946 B(  5-C ,  9-H ) :   0.0956 B(  5-C , 10-H ) :   0.8326 


------------------------------------------
LOEWDIN REDUCED ORBITAL POPULATIONS PER MO
-------------------------------------------
THRESHOLD FOR PRINTING IS 0.1%%
                      0         1         2         3         4         5   
                 -14.41143 -10.31132 -10.31130 -10.29868 -10.28676 -10.28673
                   2.00000   2.00000   2.00000   2.00000   2.00000   2.00000
                  --------  --------  --------  --------  --------  --------
 0 C  s               0.0       0.0       0.0      98.6       0.0       0.2
 0 C  py              0.0       0.0       0.0       0.0       0.2       0.0
 0 C  dz2             0.0       0.0       0.0       0.0       0.0       0.2
 0 C  dx2y2           0.0       0.0       0.0       0.0       0.0       0.1
 0 C  dxy             0.0       0.0       0.0       0.0       0.4       0.0
 0 C  f+3             0.0       0.0       0.0       0.0       0.0       0.1
 1 C  s               0.0       0.0       0.0       0.1      48.8      49.9
 1 C  py              0.0       0.0       0.0       0.1       0.0       0.0
 1 C  dx2y2           0.0       0.1       0.1       0.1       0.0       0.0
 1 C  dxy             0.0       0.0       0.0       0.2       0.0       0.0
 2 C  s               0.0      49.6      49.3       0.0       0.0       0.0
 2 C  dx2y2           0.0       0.0       0.0       0.0       0.1       0.1
 2 C  dxy             0.1       0.0       0.0       0.0       0.0       0.0
 3 N  s              99.3       0.0       0.0       0.0       0.0       0.0
 3 N  py              0.0       0.2       0.0       0.0       0.0       0.0
 3 N  dz2             0.0       0.0       0.1       0.0       0.0       0.0
 3 N  dxy             0.0       0.3       0.0       0.0       0.0       0.0
 4 C  s               0.0      49.3      49.6       0.0       0.0       0.0
 4 C  dx2y2           0.0       0.0       0.0       0.0       0.1       0.1
 4 C  dxy             0.1       0.0       0.0       0.0       0.0       0.0
 5 C  s               0.0       0.0       0.0       0.1      50.0      48.7
 5 C  py              0.0       0.0       0.0       0.1       0.0       0.0
 5 C  dx2y2           0.0       0.1       0.1       0.1       0.0       0.0
 5 C  dxy             0.0       0.0       0.0       0.2       0.0       0.0

                      6         7         8         9        10        11   
                  -1.08153  -0.94372  -0.89902  -0.75766  -0.75705  -0.65387
                   2.00000   2.00000   2.00000   2.00000   2.00000   2.00000
                  --------  --------  --------  --------  --------  --------
 0 C  s               2.8      23.0       0.0       0.0      10.2       1.1
 0 C  px              1.9       1.2       0.0       0.0       3.7      16.0
 0 C  py              0.0       0.0       8.7      14.1       0.0       0.0
 0 C  dz2             0.2       0.6       0.0       0.0       0.0       0.0
 0 C  dx2y2           0.0       0.3       0.0       0.0       0.0       0.1
 0 C  dxy             0.0       0.0       1.8       0.6       0.0       0.0
 0 C  f+3             0.0       0.2       0.0       0.0       0.0       0.0
 1 C  s               4.1      11.8      11.7       6.9       1.8       0.4
 1 C  px              1.7       1.7       2.0       3.9       9.2       2.7
 1 C  py              1.2       2.8       0.6       0.3       5.7       6.7
 1 C  dz2             0.3       0.3       0.2       0.0       0.0       0.0
 1 C  dx2y2           0.1       0.4       0.8       0.1       0.4       0.3
 1 C  dxy             0.1       0.7       0.0       0.0       0.2       0.4
 1 C  f+3             0.0       0.1       0.1       0.0       0.0       0.0
 2 C  s              12.9       0.1      13.4       4.9       4.3       1.0
 2 C  px              0.2       7.3       1.4       7.4       4.2       5.2
 2 C  py              5.9       1.2       0.9       0.2       5.9       6.0
 2 C  dz2             0.9       0.0       0.1       0.0       0.0       0.0
 2 C  dx2y2           0.3       1.1       0.8       0.1       0.3       0.0
 2 C  dxy             0.7       0.8       0.0       0.0       0.1       0.3
 2 C  f+3             0.3       0.0       0.1       0.0       0.0       0.0
 3 N  s              29.0       8.4       0.0       0.0       4.5       1.1
 3 N  px              4.0       0.4       0.0       0.0       0.8       5.0
 3 N  py              0.0       0.0      10.9      20.3       0.0       0.0
 3 N  dz2             0.4       0.0       0.0       0.0       0.0       0.0
 3 N  dx2y2           0.1       0.2       0.0       0.0       0.0       0.9
 3 N  dxy             0.0       0.0       1.1       0.6       0.0       0.0
 4 C  s              12.9       0.1      13.4       4.9       4.3       1.0
 4 C  px              0.2       7.3       1.4       7.4       4.2       5.2
 4 C  py              5.9       1.2       0.9       0.2       5.9       6.0
 4 C  dz2             0.9       0.0       0.1       0.0       0.0       0.0
 4 C  dx2y2           0.3       1.1       0.8       0.1       0.3       0.0
 4 C  dxy             0.7       0.8       0.0       0.0       0.1       0.3
 4 C  f+3             0.3       0.0       0.1       0.0       0.0       0.0
 5 C  s               4.1      11.8      11.7       6.9       1.8       0.4
 5 C  px              1.7       1.7       2.0       3.9       9.2       2.7
 5 C  py              1.2       2.8       0.6       0.3       5.7       6.7
 5 C  dz2             0.3       0.3       0.2       0.0       0.0       0.0
 5 C  dx2y2           0.1       0.4       0.8       0.1       0.4       0.3
 5 C  dxy             0.1       0.7       0.0       0.0       0.2       0.4
 5 C  f+3             0.0       0.1       0.1       0.0       0.0       0.0
 6 H  s               0.3       4.1       0.0       0.0       6.7       8.9
 6 H  px              0.0       0.4       0.0       0.0       0.6       0.4
 7 H  s               0.4       2.0       2.7       4.1       1.1       3.8
 7 H  px              0.0       0.0       0.1       0.0       0.2       0.0
 7 H  py              0.0       0.2       0.2       0.3       0.0       0.1
 8 H  s               1.4       0.0       3.1       3.1       2.6       6.0
 8 H  px              0.0       0.0       0.1       0.0       0.2       0.1
 8 H  py              0.1       0.0       0.2       0.3       0.1       0.2
 9 H  s               1.4       0.0       3.1       3.1       2.6       6.0
 9 H  px              0.0       0.0       0.1       0.0       0.2       0.1
 9 H  py              0.1       0.0       0.2       0.3       0.1       0.2
10 H  s               0.4       2.0       2.7       4.1       1.1       3.8
10 H  px              0.0       0.0       0.1       0.0       0.2       0.0
10 H  py              0.0       0.2       0.2       0.3       0.0       0.1

                     12        13        14        15        16        17   
                  -0.59719  -0.58824  -0.54304  -0.52210  -0.51773  -0.47203
                   2.00000   2.00000   2.00000   2.00000   2.00000   2.00000
                  --------  --------  --------  --------  --------  --------
 0 C  s               0.0       2.1       0.0       0.0       0.2       0.0
 0 C  pz              0.0       0.0       0.0      10.9       0.0       0.0
 0 C  px              0.0       0.1       0.0       0.0      26.3       0.0
 0 C  py             16.0       0.0       1.6       0.0       0.0      13.2
 0 C  dz2             0.0       0.1       0.0       0.0       0.1       0.0
 0 C  dxz             0.0       0.0       0.0       0.5       0.0       0.0
 0 C  dx2y2           0.0       2.4       0.0       0.0       4.5       0.0
 0 C  dxy             0.1       0.0       1.9       0.0       0.0       0.3
 0 C  f-3             0.1       0.0       0.6       0.0       0.0       0.0
 1 C  s               0.0       2.0       0.3       0.0       0.3       0.1
 1 C  pz              0.0       0.0       0.0      12.2       0.0       0.0
 1 C  px             13.6       2.7       5.5       0.0       4.7       0.6
 1 C  py              2.5       9.3       9.9       0.0       1.5      10.0
 1 C  dz2             0.0       0.0       0.1       0.0       0.0       0.0
 1 C  dxz             0.0       0.0       0.0       0.3       0.0       0.0
 1 C  dyz             0.0       0.0       0.0       0.3       0.0       0.0
 1 C  dx2y2           0.1       0.3       0.8       0.0       2.0       0.6
 1 C  dxy             0.1       2.3       0.0       0.0       0.0       2.6
 1 C  f0              0.0       0.0       0.0       0.1       0.0       0.0
 1 C  f-3             0.1       0.0       0.1       0.0       0.4       0.0
 2 C  s               0.2       2.0       0.3       0.0       0.5       0.1
 2 C  pz              0.0       0.0       0.0      17.6       0.0       0.0
 2 C  px              9.0       1.0       6.8       0.0       5.1       0.6
 2 C  py              5.9       4.4       7.7       0.0       1.4       7.6
 2 C  dz2             0.0       0.0       0.1       0.0       0.1       0.0
 2 C  dyz             0.0       0.0       0.0       0.8       0.0       0.0
 2 C  dx2y2           0.2       0.0       0.8       0.0       0.3       0.4
 2 C  dxy             0.1       2.6       0.0       0.0       0.1       3.0
 2 C  f0              0.0       0.0       0.0       0.2       0.0       0.0
 2 C  f-3             0.1       0.1       0.1       0.0       0.2       0.0
 3 N  s               0.0       1.7       0.0       0.0       1.6       0.0
 3 N  pz              0.0       0.0       0.0      24.1       0.0       0.0
 3 N  px              0.0       0.2       0.0       0.0      11.7       0.0
 3 N  py             17.4       0.0       0.9       0.0       0.0       8.2
 3 N  dxz             0.0       0.0       0.0       0.5       0.0       0.0
 3 N  dx2y2           0.0       0.4       0.0       0.0       0.3       0.0
 3 N  dxy             0.1       0.0       1.1       0.0       0.0       0.5
 3 N  f-3             0.0       0.0       0.2       0.0       0.0       0.1
 4 C  s               0.2       2.0       0.3       0.0       0.5       0.1
 4 C  pz              0.0       0.0       0.0      17.6       0.0       0.0
 4 C  px              9.1       1.0       6.8       0.0       5.1       0.6
 4 C  py              5.8       4.4       7.8       0.0       1.4       7.6
 4 C  dz2             0.0       0.0       0.1       0.0       0.1       0.0
 4 C  dyz             0.0       0.0       0.0       0.8       0.0       0.0
 4 C  dx2y2           0.2       0.0       0.8       0.0       0.3       0.4
 4 C  dxy             0.1       2.6       0.0       0.0       0.1       3.0
 4 C  f0              0.0       0.0       0.0       0.2       0.0       0.0
 4 C  f-3             0.1       0.1       0.1       0.0       0.2       0.0
 5 C  s               0.0       2.0       0.3       0.0       0.3       0.1
 5 C  pz              0.0       0.0       0.0      12.2       0.0       0.0
 5 C  px             13.6       2.7       5.5       0.0       4.7       0.6
 5 C  py              2.5       9.3       9.9       0.0       1.5      10.0
 5 C  dz2             0.0       0.0       0.1       0.0       0.0       0.0
 5 C  dxz             0.0       0.0       0.0       0.3       0.0       0.0
 5 C  dyz             0.0       0.0       0.0       0.3       0.0       0.0
 5 C  dx2y2           0.1       0.3       0.8       0.0       2.0       0.6
 5 C  dxy             0.1       2.3       0.0       0.0       0.0       2.6
 5 C  f0              0.0       0.0       0.0       0.1       0.0       0.0
 5 C  f-3             0.1       0.0       0.1       0.0       0.4       0.0
 6 H  s               0.0       1.4       0.0       0.0      17.5       0.0
 6 H  pz              0.0       0.0       0.0       0.1       0.0       0.0
 6 H  px              0.0       0.1       0.0       0.0       0.3       0.0
 6 H  py              0.2       0.0       0.0       0.0       0.0       0.2
 7 H  s               0.1      11.5       7.2       0.0       0.2       5.9
 7 H  pz              0.0       0.0       0.0       0.1       0.0       0.0
 7 H  px              0.1       0.1       0.0       0.0       0.0       0.1
 7 H  py              0.1       0.3       0.1       0.0       0.0       0.0
 8 H  s               0.4       6.5       6.5       0.0       1.8       6.9
 8 H  pz              0.0       0.0       0.0       0.2       0.0       0.0
 8 H  px              0.2       0.1       0.0       0.0       0.0       0.1
 8 H  py              0.0       0.2       0.1       0.0       0.1       0.0
 9 H  s               0.4       6.5       6.5       0.0       1.8       6.9
 9 H  pz              0.0       0.0       0.0       0.2       0.0       0.0
 9 H  px              0.2       0.1       0.0       0.0       0.0       0.1
 9 H  py              0.0       0.2       0.1       0.0       0.1       0.0
10 H  s               0.1      11.5       7.2       0.0       0.2       5.9
10 H  pz              0.0       0.0       0.0       0.1       0.0       0.0
10 H  px              0.1       0.1       0.0       0.0       0.0       0.1
10 H  py              0.1       0.3       0.1       0.0       0.0       0.0

                     18        19        20        21        22        23   
                  -0.39069  -0.36673  -0.36223   0.04564   0.05954   0.12510
                   2.00000   2.00000   2.00000   0.00000   0.00000   0.00000
                  --------  --------  --------  --------  --------  --------
 0 C  s               0.0       0.0       0.0       0.0       0.0       2.0
 0 C  pz             31.3       0.0       0.0      25.5       0.0       0.0
 0 C  px              0.0       0.5       0.0       0.0       0.0       6.2
 0 C  dz2             0.0       0.0       0.0       0.0       0.0       0.1
 0 C  dxz             0.1       0.0       0.0       2.5       0.0       0.0
 0 C  dyz             0.0       0.0       4.1       0.0       6.4       0.0
 0 C  dx2y2           0.0       1.0       0.0       0.0       0.0       3.0
 0 C  f0              0.1       0.0       0.0       0.2       0.0       0.0
 0 C  f-2             0.0       0.0       0.4       0.0       0.3       0.0
 1 C  s               0.0       0.3       0.0       0.0       0.0       1.3
 1 C  pz             10.9       0.0      21.8       5.1      16.7       0.0
 1 C  px              0.0       4.5       0.0       0.0       0.0       1.1
 1 C  py              0.0       0.1       0.0       0.0       0.0       3.1
 1 C  dxz             1.5       0.0       0.9       2.9       3.3       0.0
 1 C  dyz             0.9       0.0       0.1       2.9       0.3       0.0
 1 C  dx2y2           0.0       0.1       0.0       0.0       0.0       0.9
 1 C  dxy             0.0       0.3       0.0       0.0       0.0       1.7
 1 C  f0              0.0       0.0       0.0       0.0       0.2       0.0
 1 C  f+2             0.1       0.0       0.1       0.1       0.1       0.0
 1 C  f-2             0.1       0.0       0.0       0.2       0.0       0.0
 2 C  s               0.0       0.3       0.0       0.0       0.0       0.7
 2 C  pz              3.3       0.0      21.6       7.8      18.8       0.0
 2 C  px              0.0       4.2       0.0       0.0       0.0       0.6
 2 C  py              0.0       1.2       0.0       0.0       0.0       0.8
 2 C  dxz             2.4       0.0       0.9       2.1       3.1       0.0
 2 C  dyz             1.0       0.0       0.2       2.8       0.2       0.0
 2 C  dx2y2           0.0       3.0       0.0       0.0       0.0       0.1
 2 C  dxy             0.0       2.2       0.0       0.0       0.0       1.0
 2 C  f0              0.0       0.0       0.0       0.1       0.2       0.0
 2 C  f+2             0.2       0.0       0.1       0.1       0.1       0.0
 2 C  f-2             0.2       0.0       0.0       0.2       0.0       0.0
 2 C  f-3             0.0       0.5       0.0       0.0       0.0       0.0
 3 N  s               0.0       6.8       0.0       0.0       0.0       0.1
 3 N  pz             26.0       0.0       0.0      20.1       0.0       0.0
 3 N  px              0.0      49.8       0.0       0.0       0.0       0.3
 3 N  dz2             0.0       0.2       0.0       0.0       0.0       0.0
 3 N  dxz             0.1       0.0       0.0       0.9       0.0       0.0
 3 N  dyz             0.0       0.0       2.3       0.0       4.0       0.0
 3 N  dx2y2           0.0       1.4       0.0       0.0       0.0       0.5
 3 N  f-2             0.0       0.0       0.2       0.0       0.2       0.0
 4 C  s               0.0       0.3       0.0       0.0       0.0       0.7
 4 C  pz              3.3       0.0      21.6       7.8      18.8       0.0
 4 C  px              0.0       4.2       0.0       0.0       0.0       0.6
 4 C  py              0.0       1.1       0.0       0.0       0.0       0.8
 4 C  dxz             2.4       0.0       0.9       2.1       3.1       0.0
 4 C  dyz             1.0       0.0       0.2       2.8       0.2       0.0
 4 C  dx2y2           0.0       3.0       0.0       0.0       0.0       0.1
 4 C  dxy             0.0       2.2       0.0       0.0       0.0       1.0
 4 C  f0              0.0       0.0       0.0       0.1       0.2       0.0
 4 C  f+2             0.2       0.0       0.1       0.1       0.1       0.0
 4 C  f-2             0.2       0.0       0.0       0.2       0.0       0.0
 4 C  f-3             0.0       0.5       0.0       0.0       0.0       0.0
 5 C  s               0.0       0.3       0.0       0.0       0.0       1.3
 5 C  pz             10.9       0.0      21.8       5.1      16.7       0.0
 5 C  px              0.0       4.5       0.0       0.0       0.0       1.1
 5 C  py              0.0       0.1       0.0       0.0       0.0       3.1
 5 C  dxz             1.5       0.0       0.9       2.9       3.3       0.0
 5 C  dyz             0.9       0.0       0.1       2.9       0.3       0.0
 5 C  dx2y2           0.0       0.1       0.0       0.0       0.0       0.9
 5 C  dxy             0.0       0.3       0.0       0.0       0.0       1.7
 5 C  f0              0.0       0.0       0.0       0.0       0.2       0.0
 5 C  f+2             0.1       0.0       0.1       0.1       0.1       0.0
 5 C  f-2             0.1       0.0       0.0       0.2       0.0       0.0
 6 H  s               0.0       0.9       0.0       0.0       0.0      21.5
 6 H  pz              0.5       0.0       0.0       1.1       0.0       0.0
 6 H  px              0.0       0.0       0.0       0.0       0.0       2.3
 7 H  s               0.0       0.7       0.0       0.0       0.0      13.3
 7 H  pz              0.2       0.0       0.4       0.2       0.7       0.0
 7 H  px              0.0       0.1       0.0       0.0       0.0       0.3
 7 H  py              0.0       0.0       0.0       0.0       0.0       1.1
 8 H  s               0.0       2.0       0.0       0.0       0.0       5.4
 8 H  pz              0.1       0.0       0.4       0.3       0.8       0.0
 8 H  px              0.0       0.0       0.0       0.0       0.0       0.2
 8 H  py              0.0       0.0       0.0       0.0       0.0       0.4
 9 H  s               0.0       2.0       0.0       0.0       0.0       5.4
 9 H  pz              0.1       0.0       0.4       0.3       0.8       0.0
 9 H  px              0.0       0.0       0.0       0.0       0.0       0.2
 9 H  py              0.0       0.0       0.0       0.0       0.0       0.4
10 H  s               0.0       0.7       0.0       0.0       0.0      13.3
10 H  pz              0.2       0.0       0.4       0.2       0.7       0.0
10 H  px              0.0       0.1       0.0       0.0       0.0       0.3
10 H  py              0.0       0.0       0.0       0.0       0.0       1.1

                     24        25        26        27        28        29   
                   0.15148   0.16196   0.18175   0.18345   0.20471   0.22686
                   0.00000   0.00000   0.00000   0.00000   0.00000   0.00000
                  --------  --------  --------  --------  --------  --------
 0 C  s               0.0       2.5       0.0       6.5       4.4       0.0
 0 C  pz              0.0       0.0       0.0       0.0       0.0      10.4
 0 C  px              0.0       7.0       0.0       0.1       3.2       0.0
 0 C  py              0.3       0.0       2.2       0.0       0.0       0.0
 0 C  dz2             0.0       0.6       0.0       0.0       3.7       0.0
 0 C  dxz             0.0       0.0       0.0       0.0       0.0       3.3
 0 C  dx2y2           0.0       0.0       0.0       0.6       0.1       0.0
 0 C  dxy             0.0       0.0       1.2       0.0       0.0       0.0
 0 C  f0              0.0       0.0       0.0       0.0       0.0       0.4
 0 C  f+2             0.0       0.0       0.0       0.0       0.0       0.3
 0 C  f+3             0.0       0.0       0.0       0.0       0.1       0.0
 0 C  f-3             0.2       0.0       0.0       0.0       0.0       0.0
 1 C  s               1.8       0.2       1.3       1.6       7.9       0.0
 1 C  pz              0.0       0.0       0.0       0.0       0.0      11.6
 1 C  px              1.5       1.1       1.9       0.6       0.0       0.0
 1 C  py              5.5       0.2       0.5       3.2       0.1       0.0
 1 C  dz2             0.1       0.0       0.8       2.5       0.7       0.0
 1 C  dxz             0.0       0.0       0.0       0.0       0.0       0.7
 1 C  dyz             0.0       0.0       0.0       0.0       0.0       2.9
 1 C  dx2y2           0.0       0.2       0.7       0.1       0.1       0.0
 1 C  dxy             0.4       0.1       0.1       0.7       0.0       0.0
 1 C  f0              0.0       0.0       0.0       0.0       0.0       0.3
 1 C  f-2             0.0       0.0       0.0       0.0       0.0       0.1
 1 C  f-3             0.0       0.1       0.0       0.0       0.0       0.0
 2 C  s               0.5       2.5       2.0       6.7       6.8       0.0
 2 C  pz              0.0       0.0       0.0       0.0       0.0      13.8
 2 C  px              0.7       1.5       2.2       2.2       0.4       0.0
 2 C  py              3.5       2.8       2.3       2.6       4.0       0.0
 2 C  dz2             0.0       0.1       0.6       1.2       5.0       0.0
 2 C  dxz             0.0       0.0       0.0       0.0       0.0       0.9
 2 C  dyz             0.0       0.0       0.0       0.0       0.0       2.2
 2 C  dx2y2           0.1       0.3       0.3       0.2       0.0       0.0
 2 C  dxy             0.5       0.0       0.0       0.3       0.1       0.0
 2 C  f0              0.0       0.0       0.0       0.0       0.0       0.5
 2 C  f-2             0.0       0.0       0.0       0.0       0.0       0.3
 2 C  f+3             0.0       0.0       0.1       0.0       0.1       0.0
 3 N  s               0.0       0.2       0.0       3.0       1.8       0.0
 3 N  pz              0.0       0.0       0.0       0.0       0.0      12.9
 3 N  px              0.0       1.1       0.0       1.5       0.1       0.0
 3 N  py              0.6       0.0       0.3       0.0       0.0       0.0
 3 N  dz2             0.0       0.2       0.0       0.1       0.1       0.0
 3 N  dxz             0.0       0.0       0.0       0.0       0.0       1.1
 3 N  dx2y2           0.0       1.2       0.0       0.0       0.2       0.0
 3 N  dxy             0.1       0.0       0.1       0.0       0.0       0.0
 3 N  f0              0.0       0.0       0.0       0.0       0.0       0.1
 4 C  s               0.5       2.5       2.0       6.7       6.8       0.0
 4 C  pz              0.0       0.0       0.0       0.0       0.0      13.8
 4 C  px              0.7       1.5       2.2       2.2       0.4       0.0
 4 C  py              3.5       2.8       2.4       2.6       4.0       0.0
 4 C  dz2             0.0       0.1       0.6       1.2       5.0       0.0
 4 C  dxz             0.0       0.0       0.0       0.0       0.0       0.9
 4 C  dyz             0.0       0.0       0.0       0.0       0.0       2.2
 4 C  dx2y2           0.1       0.3       0.3       0.2       0.0       0.0
 4 C  dxy             0.5       0.0       0.0       0.3       0.1       0.0
 4 C  f0              0.0       0.0       0.0       0.0       0.0       0.5
 4 C  f-2             0.0       0.0       0.0       0.0       0.0       0.3
 4 C  f+3             0.0       0.0       0.1       0.0       0.1       0.0
 5 C  s               1.8       0.2       1.3       1.6       7.9       0.0
 5 C  pz              0.0       0.0       0.0       0.0       0.0      11.6
 5 C  px              1.5       1.1       1.9       0.6       0.0       0.0
 5 C  py              5.4       0.2       0.5       3.2       0.1       0.0
 5 C  dz2             0.1       0.0       0.8       2.5       0.7       0.0
 5 C  dxz             0.0       0.0       0.0       0.0       0.0       0.7
 5 C  dyz             0.0       0.0       0.0       0.0       0.0       2.8
 5 C  dx2y2           0.0       0.2       0.7       0.1       0.1       0.0
 5 C  dxy             0.4       0.1       0.1       0.7       0.0       0.0
 5 C  f0              0.0       0.0       0.0       0.0       0.0       0.3
 5 C  f-2             0.0       0.0       0.0       0.0       0.0       0.1
 5 C  f-3             0.0       0.1       0.0       0.0       0.0       0.0
 6 H  s               0.0      23.2       0.0      11.5       7.1       0.0
 6 H  pz              0.0       0.0       0.0       0.0       0.0       0.9
 6 H  px              0.0       2.0       0.0       1.0       0.6       0.0
 6 H  py              0.0       0.0       0.3       0.0       0.0       0.0
 7 H  s              21.4       0.0      10.1      10.6       8.7       0.0
 7 H  pz              0.0       0.0       0.0       0.0       0.0       1.0
 7 H  px              0.4       0.1       0.5       0.0       0.3       0.0
 7 H  py              1.6       0.1       0.4       0.9       0.7       0.0
 8 H  s              10.1      19.7      22.1       3.7       3.7       0.0
 8 H  pz              0.0       0.0       0.0       0.0       0.0       0.8
 8 H  px              0.2       0.4       1.0       0.4       0.0       0.0
 8 H  py              0.8       1.5       1.1       0.0       0.5       0.0
 9 H  s              10.1      19.7      22.1       3.7       3.7       0.0
 9 H  pz              0.0       0.0       0.0       0.0       0.0       0.8
 9 H  px              0.2       0.4       1.0       0.4       0.0       0.0
 9 H  py              0.8       1.5       1.1       0.0       0.5       0.0
10 H  s              21.4       0.0      10.1      10.6       8.7       0.0
10 H  pz              0.0       0.0       0.0       0.0       0.0       1.0
10 H  px              0.4       0.1       0.5       0.0       0.3       0.0
10 H  py              1.5       0.1       0.4       0.9       0.7       0.0

                     30        31        32        33        34        35   
                   0.25579   0.27636   0.28466   0.30188   0.30847   0.31100
                   0.00000   0.00000   0.00000   0.00000   0.00000   0.00000
                  --------  --------  --------  --------  --------  --------
 0 C  s               7.1       0.0       0.0       0.0       8.0       0.0
 0 C  pz              0.0       0.0      24.4       0.0       0.0       0.0
 0 C  px              0.7       0.0       0.0       0.0       1.6       0.0
 0 C  py              0.0      27.4       0.0       4.3       0.0       7.1
 0 C  dz2             4.8       0.0       0.0       0.0       2.6       0.0
 0 C  dxz             0.0       0.0       0.6       0.0       0.0       0.0
 0 C  dx2y2           0.0       0.0       0.0       0.0       0.9       0.0
 0 C  dxy             0.0       5.3       0.0       6.5       0.0       2.0
 0 C  f-1             0.0       0.0       0.0       0.0       0.0       0.1
 1 C  s               1.8       0.4       0.0       6.8       3.3       8.5
 1 C  pz              0.0       0.0      20.2       0.0       0.0       0.0
 1 C  px              2.5       9.6       0.0       2.1      13.0       1.7
 1 C  py              1.1       2.9       0.0       0.7       3.7       2.1
 1 C  dz2             1.1       0.0       0.0       3.5       2.3       2.8
 1 C  dxz             0.0       0.0       0.4       0.0       0.0       0.0
 1 C  dyz             0.0       0.0       1.3       0.0       0.0       0.0
[...]

                    204       205       206       207       208       209   
                   5.46487   5.50161   5.68095   5.72173   5.87227   6.09552
                   0.00000   0.00000   0.00000   0.00000   0.00000   0.00000
                  --------  --------  --------  --------  --------  --------
 0 C  s               0.8       0.0       1.1       0.0       0.2       0.0
 0 C  px              2.0       0.0       0.3       0.0       0.1       0.0
 0 C  py              0.0       1.7       0.0       0.2       0.0       0.2
 0 C  dz2             0.0       0.0       0.2       0.0       0.0       0.0
 0 C  dx2y2           1.0       0.0       0.8       0.0       0.2       0.0
 0 C  dxy             0.0       2.9       0.0       0.2       0.0       0.8
 0 C  f+1             0.7       0.0       0.2       0.0       0.1       0.0
 0 C  f-1             0.0       0.6       0.0       0.0       0.0       0.0
 0 C  f+3             2.2       0.0       0.1       0.0       1.0       0.0
 0 C  f-3             0.0       8.8       0.0       0.0       0.0       1.2
 1 C  s               0.4       0.7       0.0       0.6       0.2       0.1
 1 C  px              0.7       0.8       0.9       0.2       0.0       0.2
 1 C  py              2.1       0.1       0.2       0.1       0.4       0.1
 1 C  dz2             0.2       0.1       0.1       0.1       0.0       0.0
 1 C  dx2y2           0.1       2.0       0.1       0.3       0.0       0.3
 1 C  dxy             0.2       0.1       0.2       0.1       0.3       1.3
 1 C  f+1             0.4       0.4       0.4       0.0       0.0       0.0
 1 C  f-1             0.8       0.0       0.0       0.0       0.2       0.0
 1 C  f+3             4.3       1.1       2.0       0.7       0.5       0.1
 1 C  f-3             0.9       5.5       0.6       0.1       0.9       2.3
 2 C  s               0.1       2.1       0.5       2.2       3.7       0.2
 2 C  px              1.9       0.4       0.6       0.2       0.7       0.9
 2 C  py              1.7       0.9       0.9       0.3       1.5       0.2
 2 C  dz2             0.3       0.6       1.1       0.9       0.6       0.0
 2 C  dx2y2           1.5       0.0       0.3       0.0       0.2       4.7
 2 C  dxy             1.9       7.5       1.8       0.8       2.7       0.0
 2 C  f+1             0.5       0.3       0.6       0.1       0.1       0.6
 2 C  f-1             0.4       0.6       0.1       0.4       0.3       0.1
 2 C  f+3             2.4       2.3       3.8       5.2       0.1       0.1
 2 C  f-3             0.0       0.1       2.5       1.0       0.9       9.5
 3 N  s               2.6       0.0       4.9       0.0       9.5       0.0
 3 N  px              7.6       0.0       0.9       0.0       2.3       0.0
 3 N  py              0.0       9.3       0.0       3.3       0.0       0.9
 3 N  dz2             3.9       0.0      17.0       0.0       2.2       0.0
 3 N  dx2y2          18.0       0.0      32.1       0.0      18.0       0.0
 3 N  dxy             0.0       3.2       0.0      65.3       0.0       4.3
 3 N  f+1            12.8       0.0       0.2       0.0       1.3       0.0
 3 N  f-1             0.0      19.2       0.0       2.7       0.0       0.2
 3 N  f+3             0.5       0.0       5.9       0.0      37.7       0.0
 3 N  f-3             0.0       1.1       0.0       0.2       0.0      50.3
 4 C  s               0.1       2.1       0.5       2.2       3.7       0.2
 4 C  px              1.9       0.4       0.6       0.2       0.7       0.9
 4 C  py              1.7       0.9       0.9       0.3       1.5       0.2
 4 C  dz2             0.3       0.6       1.1       0.9       0.6       0.0
 4 C  dx2y2           1.5       0.0       0.3       0.0       0.2       4.7
 4 C  dxy             1.9       7.5       1.8       0.8       2.7       0.0
 4 C  f+1             0.5       0.3       0.6       0.1       0.1       0.6
 4 C  f-1             0.4       0.6       0.1       0.4       0.3       0.1
 4 C  f+3             2.4       2.3       3.7       5.2       0.1       0.1
 4 C  f-3             0.0       0.1       2.6       1.0       0.9       9.5
 5 C  s               0.4       0.7       0.0       0.6       0.2       0.1
 5 C  px              0.7       0.8       0.9       0.2       0.0       0.2
 5 C  py              2.1       0.1       0.2       0.1       0.4       0.1
 5 C  dz2             0.2       0.1       0.1       0.1       0.0       0.0
 5 C  dx2y2           0.1       2.0       0.1       0.3       0.0       0.3
 5 C  dxy             0.2       0.1       0.2       0.1       0.3       1.3
 5 C  f+1             0.4       0.4       0.4       0.0       0.0       0.0
 5 C  f-1             0.8       0.0       0.0       0.0       0.2       0.0
 5 C  f+3             4.3       1.1       2.0       0.7       0.5       0.1
 5 C  f-3             0.9       5.5       0.6       0.1       0.9       2.3
 6 H  s               0.7       0.0       0.0       0.0       0.3       0.0
 6 H  py              0.0       0.1       0.0       0.0       0.0       0.0
 7 H  s               1.8       0.1       0.8       0.1       0.1       0.0
 7 H  px              0.1       0.1       0.0       0.0       0.0       0.0
 7 H  py              0.1       0.2       0.1       0.0       0.0       0.0
 8 H  s               0.7       0.5       0.4       0.5       0.0       0.2
 8 H  px              0.0       0.2       0.2       0.0       0.0       0.0
 8 H  py              0.1       0.1       0.1       0.1       0.0       0.1
 9 H  s               0.7       0.5       0.4       0.5       0.0       0.2
 9 H  px              0.0       0.2       0.2       0.0       0.0       0.0
 9 H  py              0.1       0.1       0.1       0.1       0.0       0.1
10 H  s               1.8       0.1       0.8       0.1       0.1       0.0
10 H  px              0.1       0.1       0.0       0.0       0.0       0.0
10 H  py              0.1       0.2       0.1       0.0       0.0       0.0

                    210       211       212       213       214       215   
                  22.30631  22.63221  22.69849  22.82836  23.06082  32.44464
                   0.00000   0.00000   0.00000   0.00000   0.00000   0.00000
                  --------  --------  --------  --------  --------  --------
 0 C  s              29.6       0.0      46.7       0.0      22.0       0.0
 0 C  py              0.0       0.7       0.0       0.0       0.0       0.0
 0 C  dxy             0.0       0.2       0.0       0.0       0.0       0.0
 1 C  s              29.0      41.5       2.0       7.6      18.3       0.0
 1 C  px              0.0       0.1       0.3       0.1       0.0       0.0
 1 C  py              0.1       0.0       0.1       0.0       0.0       0.0
 2 C  s               5.0       7.4      23.7      41.5      19.8       0.0
 2 C  px              0.3       0.1       0.0       0.0       0.0       0.0
 3 N  s               0.6       0.0       0.4       0.0       0.4      99.7
 3 N  px              0.1       0.0       0.1       0.0       0.1       0.0
 3 N  py              0.0       0.2       0.0       0.6       0.0       0.0
 3 N  dxy             0.0       0.0       0.0       0.1       0.0       0.0
 4 C  s               5.0       7.4      23.7      41.5      19.8       0.0
 4 C  px              0.3       0.1       0.0       0.0       0.0       0.0
 5 C  s              29.0      41.5       2.0       7.6      18.3       0.0
 5 C  px              0.0       0.1       0.3       0.1       0.0       0.0
 5 C  py              0.1       0.0       0.1       0.0       0.0       0.0
 6 H  s               0.1       0.0       0.1       0.0       0.1       0.0



                      *****************************
                      * MAYER POPULATION ANALYSIS *
                      *****************************

  NA   - Mulliken gross atomic population
  ZA   - Total nuclear charge
  QA   - Mulliken gross atomic charge
  VA   - Mayer's total valence
  BVA  - Mayer's bonded valence
  FA   - Mayer's free valence

  ATOM       NA         ZA         QA         VA         BVA        FA
  0 C      6.1315     6.0000    -0.1315     4.0148     4.0148     0.0000
  1 C      6.0912     6.0000    -0.0912     3.8906     3.8906     0.0000
  2 C      6.0465     6.0000    -0.0465     4.0727     4.0727     0.0000
  3 N      7.2205     7.0000    -0.2205     3.0940     3.0940    -0.0000
  4 C      6.0466     6.0000    -0.0466     4.0727     4.0727    -0.0000
  5 C      6.0911     6.0000    -0.0911     3.8906     3.8906    -0.0000
  6 H      0.8696     1.0000     0.1304     0.9691     0.9691     0.0000
  7 H      0.8749     1.0000     0.1251     0.9688     0.9688     0.0000
  8 H      0.8766     1.0000     0.1234     0.9756     0.9756     0.0000
  9 H      0.8766     1.0000     0.1234     0.9756     0.9756    -0.0000
 10 H      0.8749     1.0000     0.1251     0.9688     0.9688    -0.0000

  Mayer bond orders larger than 0.100000
B(  0-C ,  1-C ) :   1.4489 B(  0-C ,  5-C ) :   1.4488 B(  0-C ,  6-H ) :   0.9634 
B(  1-C ,  2-C ) :   1.4147 B(  1-C ,  7-H ) :   0.9633 B(  2-C ,  3-N ) :   1.5020 
B(  2-C ,  8-H ) :   0.9813 B(  3-N ,  4-C ) :   1.5020 B(  4-C ,  5-C ) :   1.4147 
B(  4-C ,  9-H ) :   0.9813 B(  5-C , 10-H ) :   0.9633 

-------
TIMINGS
-------

Total SCF time: 0 days 0 hours 0 min 38 sec 

Total time                  ....      38.634 sec
Sum of individual times     ....      37.764 sec  ( 97.7%)

SCF preparation             ....       0.043 sec  (  0.1%)
Fock matrix formation       ....      37.487 sec  ( 97.0%)
  Startup                   ....       0.002 sec  (  0.0% of F)
  Split-RI-J                ....       1.313 sec  (  3.5% of F)
  Chain of spheres X        ....      32.708 sec  ( 87.3% of F)
  XC integration            ....       4.295 sec  ( 11.5% of F)
    XC Preparation          ....       0.000 sec  (  0.0% of XC)
    Basis function eval.    ....       1.072 sec  ( 25.0% of XC)
    Density eval.           ....       0.861 sec  ( 20.1% of XC)
    XC-Functional eval.     ....       1.058 sec  ( 24.6% of XC)
    XC-Potential eval.      ....       1.241 sec  ( 28.9% of XC)
Diagonalization             ....       0.000 sec  (  0.0%)
Density matrix formation    ....       0.011 sec  (  0.0%)
Total Energy calculation    ....       0.002 sec  (  0.0%)
Population analysis         ....       0.089 sec  (  0.2%)
Orbital Transformation      ....       0.015 sec  (  0.0%)
Orbital Orthonormalization  ....       0.000 sec  (  0.0%)
DIIS solution               ....       0.036 sec  (  0.1%)
  MO trafo                  ....       0.000 sec  (  0.0 % of DIIS)
  Orb grad                  ....       0.000 sec  (  0.0 % of DIIS)
  Energy W gradient         ....       0.000 sec  (  0.0 % of DIIS)
  DIIS error                ....       0.004 sec  ( 11.7 % of DIIS)
  DIIS work                 ....       0.026 sec  ( 72.3 % of DIIS)
  Form Q                    ....       0.000 sec  (  0.0 % of DIIS)
  Form QpQm                 ....       0.000 sec  (  0.0 % of DIIS)
  Exp/Cayley                ....       0.000 sec  (  0.0 % of DIIS)
  Orb update                ....       0.000 sec  (  0.0 % of DIIS)
  Wake-sleep                ....       0.000 sec  (  1.0 % of DIIS)
SOSCF solution              ....       0.017 sec  (  0.0%)
  MO trafo                  ....       0.010 sec  ( 55.5 % of SOSCF)
  Orb grad                  ....       0.000 sec  (  0.9 % of SOSCF)
  Rot update                ....       0.001 sec  (  3.0 % of SOSCF)
  Step                      ....       0.007 sec  ( 40.4 % of SOSCF)
Grid generation             ....       0.063 sec  (  0.2%)
Finished LeanSCF after  38.6 sec

Maximum memory used throughout the entire LEANSCF-calculation: 25.4 MB
------------------   -----------------
gCP correction             0.005259789
------------------   -----------------

-------------------------   --------------------
FINAL SINGLE POINT ENERGY      -248.292065067771
-------------------------   --------------------


------------------------------------------------------------------------------
                              ORCA PROPERTY CALCULATIONS
------------------------------------------------------------------------------

GBWName                                 ... sp.gbw
Number of atoms                         ...     11
Number of basis functions               ...    216
Max core memory                         ...   1024 MB

Electric properties:
Dipole moment                           ... YES
Quadrupole moment                       ...  NO
Static polarizability (Dipole/Dipole)   ...  NO
Static polarizability (Dipole/Quad.)    ...  NO
Static polarizability (Quad./Quad.)     ...  NO
Static polarizability (Velocity)        ...  NO

Atomic electric properties:
Dipole moment                           ...  NO
Quadrupole moment                       ...  NO
Static polarizability                   ...  NO

Choice of electric origin               ... Center of mass
Position of electric origin             ...    -0.008401    -0.000003    -0.000111

General magnetic properties:
Magnetizability                         ...  NO

EPR properties:
g-Tensor (aka g-matrix)                 ...  NO
Zero-Field splitting spin-orbit         ...  NO
Zero-field splitting spin-spin          ...  NO
Hyperfine couplings                     ...  NO (   0 nuclei)
Quadrupole couplings                    ...  NO (   0 nuclei)
Contact density                         ...  NO (   0 nuclei)

NMR properties:
Chemical shifts                         ...  NO (   0 nuclei)
Spin-rotation constants                 ...  NO (   0 nuclei)
Spin-spin couplings                     ...  NO (   0 nuclei,    0 pairs)

Choice of magnetic origin               ... GIAO
Position of magnetic origin             ...     0.000000     0.000000     0.000000

Properties with geometric perturbations:
SCF Hessian                             ...  NO
IR spectrum                             ...  NO
VCD spectrum                            ...  NO
X-ray spectroscopy properties:
SCF XES/XAS/RIXS spectra                ...  NO


-------------
DIPOLE MOMENT
-------------

Method             : SCF
Type of density    : Electron Density
Multiplicity       :   1
Irrep              :   0
Energy             :  -248.2973248572707519 Eh
Relativity type    : 
Basis              : AO
                                X                 Y                 Z
Electronic contribution:     -1.320383459       0.000580919      -0.000005930
Nuclear contribution   :      2.207992374      -0.000971100       0.000005941
                        -----------------------------------------
Total Dipole Moment    :      0.887608914      -0.000390181       0.000000011
                        -----------------------------------------
Magnitude (a.u.)       :      0.887609000
Magnitude (Debye)      :      2.256122781



--------------------
Rotational spectrum 
--------------------
 
Rotational constants in cm-1:             0.201974             0.194593             0.099107 
Rotational constants in MHz :          6055.013614          5833.763924          2971.165024 

Dipole components along the rotational axes: 
x,y,z [a.u.] :     0.887609     0.000006    -0.000005 
x,y,z [Debye]:     2.256123     0.000015    -0.000013 

 

Dipole moment calculation done in   0.0 sec 

Maximum memory used throughout the entire PROP-calculation: 15.8 MB

--------------------------------
SUGGESTED CITATIONS FOR THIS RUN
--------------------------------

Below you find a list of papers that are relevant to this ORCA run
We neither can nor want to force you to cite these papers, but we appreciate if you do
You receive ORCA, which is the product of decades of hard work by many enthusiastic individuals, for free
The only thing we kindly ask in return is that you cite our papers,
We deeply appreciate it, if you show your appreciation for ORCA by not just citing the generic ORCA reference.

Please note that relegating all ORCA citations to the supporting information does *not* help us.
SI sections are not indexed - citations you put there will not count into any citation statistics
But we need these citations in order to attract the funding resources that allow us to do what we are doing

Therefore, if you are a happy ORCA user, please consider citing a few of the papers listed below in the main body of your paper

In addition to the list printed below, the program has created the file sp.bibtex that contains the list in bibtex format
You can import this file easily into all common literature databanks and citation aid programs


List of essential papers. We consider these as the minimum necessary citations

  1. Neese,F.
     Software update: the ORCA program system, version 5.0
     WIRES Comput. Molec. Sci., 2022 12(1)e1606
     doi.org/10.1002/wcms.1606

List of papers to cite with high priority. The work reported in these papers was absolutely
necessary for this run to complete.
Our perspective: the developers of density functionals and basis sets usually get cited in chemistry papers
Good! But without the algorithms to do something with them, the functionals or basis sets would not do anything.
Hence, in our opinion, the algorithm design and method developments papers are equally worthy of getting cited

  1. Neese,F.
     An improvement of the resolution of the identity approximation for the formation of the Coulomb matrix
     J. Comp. Chem., 2003 24(14)1740-1747
     doi.org/10.1002/jcc.10318
  2. Neese,F.; Wennmohs,F.; Hansen,A.; Becker,U.
     Efficient, approximate and parallel Hartree-Fock and hybrid DFT calculations. A 'chain-of-spheres' algorithm for the Hartree-Fock exchange
     Chem. Phys., 2009 356(1-3)98-109
     doi.org/10.1016/j.chemphys.2008.10.036
  3. Helmich-Paris,B.; de Souza,B.; Neese,F.; Izsák,R.
     An improved chain of spheres for exchange algorithm
     J. Chem. Phys., 2021 155 104109
     doi.org/doi: 10.1063/5.0058766.
  4. Neese,F.
     The SHARK Integral Generation and Digestion System
     J. Comp. Chem., 2022  1-16
     doi.org/10.1002/jcc.26942

List of suggested additional citations. These are papers that are important in the 'surrounding' of 
of this run, or papers that preceded the highly important papers. If you like your results we are grateful for a citation.

  1. Izsak,R.; Neese,F.
     An overlap fitted chain of spheres exchange method
     J. Chem. Phys., 2011 135 144105
     doi.org/10.1063/1.3646921
  2. Izsak,R.; Hansen,A.; Neese,F.
     The resolution of identity and chain of spheres approximations for the LPNO-CCSD singles Fock term
     Molec. Phys., 2012 110 2413-2417
     doi.org/10.1080/00268976.2012.687466
  3. Neese,F.
     The ORCA program system
     WIRES Comput. Molec. Sci., 2012 2(1)73-78
     doi.org/10.1002/wcms.81
  4. Izsak,R.; Neese,F.; Klopper,W.
     Robust fitting techniques in the chain of spheres approximation to the Fock exchange: The role of the complementary space
     J. Chem. Phys., 2013 139 
     doi.org/10.1063/1.4819264
  5. Neese,F.
     Software update: the ORCA program system, version 4.0
     WIRES Comput. Molec. Sci., 2018 8(1)1-6
     doi.org/10.1002/wcms.1327
  6. Neese,F.; Wennmohs,F.; Becker,U.; Riplinger,C.
     The ORCA quantum chemistry program package
     J. Chem. Phys., 2020 152 Art. No. L224108
     doi.org/10.1063/5.0004608

List of optional additional citations

  1. Neese,F.
     Approximate second-order SCF convergence for spin unrestricted wavefunctions
     Chem. Phys. Lett., 2000 325(1-3)93-98
     doi.org/10.1016/s0009-2614(00)00662-x

Timings for individual modules:

Sum of individual times          ...       39.411 sec (=   0.657 min)
Startup calculation              ...        0.672 sec (=   0.011 min)   1.7 %
SCF iterations                   ...       38.702 sec (=   0.645 min)  98.2 %
Property calculations            ...        0.036 sec (=   0.001 min)   0.1 %
                             ****ORCA TERMINATED NORMALLY****
TOTAL RUN TIME: 0 days 0 hours 0 minutes 39 seconds 453 msec
