11
 energy: -16.149323331697 gnorm: 0.024030239258 xtb: 6.7.1 (41059b4)
C            1.40434546786525       -0.00062128650936       -0.00004446552792
C            0.69391414362502       -1.19524691818186       -0.00007872774887
C           -0.69723976254495       -1.14065511494723       -0.00012576680238
N           -1.39374233699885        0.00060910942639       -0.00006262367465
C           -0.69623780175502        1.14126011661670       -0.00000520196540
C            0.69496460929539        1.19462927252661       -0.00003438942501
H            2.48997891823497       -0.00109968775445       -0.00005352068193
H            1.20481729325227       -2.15255997344656       -0.00008363331929
H           -1.28194892175125       -2.05956771021570       -0.00004149414683
H           -1.28013693111657        2.06068694079406       -0.00007597591706
H            1.20670993351624        2.15149302083795       -0.00003178512384
11
 energy: -16.150062681278 gnorm: 0.006008545614 xtb: 6.7.1 (41059b4)
C            1.40254723306036       -0.00062030433503       -0.00005786726359
C            0.69300002904510       -1.19095416019612       -0.00005419090781
C           -0.69280412586653       -1.13257065885529       -0.00004160850820
N           -1.37930345578354        0.00060270631302       -0.00006021954002
C           -0.69180841425174        1.13317167075773       -0.00007460772299
C            0.69404698398656        1.19033697892294       -0.00005987009974
H            2.48426365099459       -0.00109630417700       -0.00004928085934
H            1.20050217892112       -2.14473840679391       -0.00007529939668
H           -1.28460126824732       -2.04027863188979       -0.00011041587413
H           -1.28280597324059        2.04140026977678       -0.00001946601753
H            1.20238777300447        2.14367460962324       -0.00003475814316
11
 energy: -16.150103921652 gnorm: 0.001281899779 xtb: 6.7.1 (41059b4)
C            1.40193304414862       -0.00062006341581       -0.00005198313001
C            0.69332900006149       -1.19135102214236       -0.00008620119838
C           -0.69201182638092       -1.13181849783969       -0.00010445813320
N           -1.37351190032419        0.00060018722721       -0.00006427093320
C           -0.69101641799369        1.13241895448606       -0.00002135099719
C            0.69437641546557        1.19073341424851       -0.00002683951882
H            2.48263629069241       -0.00109539278646       -0.00005203627658
H            1.20108703624804       -2.14366835841277       -0.00007610389454
H           -1.28807976721504       -2.03547036091966       -0.00005384332615
H           -1.28628891400935        2.03659504158692       -0.00006560829508
H            1.20297165092956        2.14260386711461       -0.00003488863005
11
 energy: -16.150108126906 gnorm: 0.000569501154 xtb: 6.7.1 (41059b4)
C            1.40107372618030       -0.00061975853893       -0.00005787673271
C            0.69364500198228       -1.19232135164871       -0.00003626292128
C           -0.69210817689856       -1.13279698659837       -0.00001583645984
N           -1.37140453210404        0.00059930281570       -0.00005997560731
C           -0.69111173388516        1.13339769956912       -0.00009844578746
C            0.69469331185417        1.19170342564417       -0.00007658699501
H            2.48174592344885       -0.00109498838328       -0.00005069432132
H            1.20301411600900       -2.14364464917531       -0.00007874432612
H           -1.29040594766184       -2.03492076557056       -0.00013162188988
H           -1.28861581703681        2.03604739640640       -0.00000094759812
H            1.20489873973432        2.14257844462631       -0.00003059169414
11
 energy: -16.150108402977 gnorm: 0.000140594929 xtb: 6.7.1 (41059b4)
C            1.40074490727506       -0.00061963734608       -0.00005065242966
C            0.69359215994790       -1.19241514341490       -0.00011978806104
C           -0.69219462503612       -1.13305580968386       -0.00015720528277
N           -1.37171993703258        0.00059944337196       -0.00006608446266
C           -0.69119794297807        1.13365664174664        0.00002700477961
C            0.69464054032499        1.19179727992941        0.00000588683754
H            2.48161989152288       -0.00109494120041       -0.00005204686878
H            1.20362889518862       -2.14352520322251       -0.00007237655220
H           -1.29049653104459       -2.03520963428378       -0.00000767903622
H           -1.28870620561094        2.03633631019165       -0.00010623141778
H            1.20551345906536        2.14245846305842       -0.00003841183923
11
 energy: -16.150108421553 gnorm: 0.000055785422 xtb: 6.7.1 (41059b4)
C            1.40073040266659       -0.00061963243885       -0.00005748876520
C            0.69356728252453       -1.19240366285863       -0.00001123762642
C           -0.69216286683281       -1.13300732100348        0.00002059189911
N           -1.37168439292786        0.00059942704816       -0.00005936930500
C           -0.69116621514321        1.13360813714012       -0.00013373054103
C            0.69461564525345        1.19178582289853       -0.00010084903280
H            2.48160286366878       -0.00109492026082       -0.00005105551106
H            1.20366584410640       -2.14345889545039       -0.00008224514273
H           -1.29054226221032       -2.03508244433992       -0.00016340676849
H           -1.28875205235974        2.03620914821840        0.00002901728140
H            1.20555036287669        2.14239211019342       -0.00002781082098
