
                                 *****************
                                 * O   R   C   A *
                                 *****************

                                            #,                                       
                                            ###                                      
                                            ####                                     
                                            #####                                    
                                            ######                                   
                                           ########,                                 
                                     ,,################,,,,,                         
                               ,,#################################,,                 
                          ,,##########################################,,             
                       ,#########################################, ''#####,          
                    ,#############################################,,   '####,        
                  ,##################################################,,,,####,       
                ,###########''''           ''''###############################       
              ,#####''   ,,,,##########,,,,          '''####'''          '####       
            ,##' ,,,,###########################,,,                        '##       
           ' ,,###''''                  '''############,,,                           
         ,,##''                                '''############,,,,        ,,,,,,###''
      ,#''                                            '''#######################'''  
     '                                                          ''''####''''         
             ,#######,   #######,   ,#######,      ##                                
            ,#'     '#,  ##    ##  ,#'     '#,    #''#        ,####,   ,####,        
            ##       ##  ##   ,#'  ##            #'  '#       #'       #'  '#        
            ##       ##  #######   ##           ,######,      #####,   #    #        
            '#,     ,#'  ##    ##  '#,     ,#' ,#      #,     #,   #   #,  ,#        
             '#######'   ##     ##  '#######'  #'      '#     '####' # '####'        



                #########################################################
                #                        -***-                          #
                #          Department of theory and spectroscopy        #
                #                                                       #
                #                      Frank Neese                      #
                #                                                       #
                #     Directorship, Architecture, Infrastructure        #
                #                    SHARK, DRIVERS                     #
                #        Core code/Algorithms in most modules           #
                #                                                       #
                #        Max Planck Institute fuer Kohlenforschung      #
                #                Kaiser Wilhelm Platz 1                 #
                #                 D-45470 Muelheim/Ruhr                 #
                #                      Germany                          #
                #                                                       #
                #                  All rights reserved                  #
                #                        -***-                          #
                #########################################################


                         Program Version 6.0.1  -  RELEASE   -


 With contributions from (in alphabetic order):
[Max-Planck-Institut fuer Kohlenforschung]                               
  Daniel Aravena         : Magnetic Suceptibility                        
  Michael Atanasov       : Ab Initio Ligand Field Theory (pilot matlab implementation)
  Alexander A. Auer      : GIAO ZORA, VPT2 properties, NMR spectrum      
  Ute Becker             : All parallelization in ORCA, NUMFREQ, NUMCALC 
  Giovanni Bistoni       : ED, misc. LED, open-shell LED, HFLD           
  Martin Brehm           : Molecular dynamics                            
  Dmytro Bykov           : pre 5.0 version of the SCF Hessian            
  Marcos Casanova-Páez   : Triplet and SCS-CIS(D). UHF-(DLPNO)-IP/EA/STEOM-CCSD. UHF-CVS-IP/STEOM-CCSD   
  Vijay G. Chilkuri      : MRCI spin determinant printing, contributions to CSF-ICE 
  Pauline Colinet        : FMM embedding                                 
  Dipayan Datta          : RHF DLPNO-CCSD density                        
  Achintya Kumar Dutta   : EOM-CC, STEOM-CC                              
  Nicolas Foglia         : Exact transition moments, OPA infrastructure, MCD improvements    
  Dmitry Ganyushin       : Spin-Orbit,Spin-Spin,Magnetic field MRCI      
  Miquel Garcia-Rates    : C-PCM and meta-GGA Hessian, CCSD/C-PCM, Gaussian charge scheme 
  Tiago L. C. Gouveia    : GS-ROHF, GS-ROCIS                             
  Yang Guo               : DLPNO-NEVPT2, F12-NEVPT2, CIM, IAO-localization        
  Andreas Hansen         : Spin unrestricted coupled pair/coupled cluster methods 
  Ingolf Harden          : AUTO-CI MPn and infrastructure                
  Benjamin Helmich-Paris : MC-RPA, TRAH-(SCF,CASSCF), AVAS, COSX integrals, SCF dyn. polar. 
  Lee Huntington         : MR-EOM, pCC                                   
  Robert Izsak           : Overlap fitted RIJCOSX, COSX-SCS-MP3, EOM     
  Riya Kayal             : Wick's Theorem for AUTO-CI, AUTO-CI UHF-CCSDT 
  Emily Kempfer          : AUTO-CI, RHF CISDT and CCSDT                  
  Christian Kollmar      : KDIIS, OOCD, Brueckner-CCSD(T), CCSD density, CASPT2, CASPT2-K, improved NEVPT2 
  Axel Koslowski         : Symmetry handling                             
  Simone Kossmann        : meta-GGA functionals, TD-DFT gradient, OOMP2, (MP2 Hessian; deprecated post 5.0) 
  Lucas Lang             : DCDCAS                                        
  Marvin Lechner         : AUTO-CI (C++ implementation), FIC-MRCC        
  Spencer Leger          : CASSCF response                               
  Dagmar Lenk            : GEPOL surface, SMD, ORCA-2-JSON               
  Dimitrios Liakos       : Extrapolation schemes; Compound Job, initial MDCI parallelization 
  Dimitrios Manganas     : Further ROCIS development; embedding schemes. LFT, Crystal Embedding 
  Dimitrios Pantazis     : SARC Basis sets                               
  Anastasios Papadopoulos: AUTO-CI, single reference methods and gradients 
  Taras Petrenko         : pre 6.0 DFT Hessian and TD-DFT gradient, (ASA, deprecated), ECA, 1-Electron XAS/XES, NRVS 
  Peter Pinski           : DLPNO-MP2, DLPNO-MP2 Gradient                 
  Christoph Reimann      : Effective Core Potentials                     
  Marius Retegan         : Local ZFS, SOC                                
  Christoph Riplinger    : Optimizer, TS searches, QM/MM, DLPNO-CCSD(T), (RO)-DLPNO pert. Triples 
  Michael Roemelt        : Original ROCIS implementation                 
  Masaaki Saitow         : Open-shell DLPNO-CCSD energy and density      
  Barbara Sandhoefer     : DKH picture change effects                    
  Kantharuban Sivalingam : CASSCF convergence/infrastructure, NEVPT2 and variants, FIC-MRCI 
  Bernardo de Souza      : ESD, SOC TD-DFT                               
  Georgi L. Stoychev     : AutoAux, RI-MP2 NMR, DLPNO-MP2 response, X2C  
  Van Anh Tran           : RI-MP2 g-tensors                              
  Willem Van den Heuvel  : Paramagnetic NMR                              
  Zikuan Wang            : NOTCH, Electric field optimization            
  Frank Wennmohs         : Technical directorship and infrastructure     
  Hang Xu                : AUTO-CI-Response properties                   
                                                                         
[FACCTs GmbH]                                                            
  Markus Bursch, Miquel Garcia-Rates, Christoph Riplinger, Bernardo de Souza, Georgi L. Stoychev 
                                                                 
  APM, Basis sets (HGBS, AHGBS, def-TZVP (Ac-Lr), def2-XVPD (La-Lu)), CI-OPT, improved COSX, DLPNO-Multilevel,           
  DOCKER, DRACO, updates on ESD, GOAT, IRC, LR-CPCM, MBIS, meta-GGA TD-DFT gradient, ML-optimized integration grids, 
  MM, NACMEs, nearIR, NEB, NEB-TS, NL-DFT gradient (VV10), 2- and 3-layer-ONIOM, interface openCOSMO-RS, QMMM,   
  Crystal-QMMM, SF, symmetry and pop. for TD-DFT, r2SCAN hybrids, SOLVATOR                                   
                                                                         
[Other institutions]                                                     
  V. Asgeirsson          : NEB                                           
  Christoph Bannwarth    : sTDA-DFT, sTD-DFT, PBEh-3c, B97-3c, D3        
  Sebastian Ehlert       : rSCAN, r2SCAN, r2SCAN-3c, D4, dhf basis sets  
  Marvin Friede          : D4 for Fr, Ra, Ac-Lr                          
  Lars Goerigk           : TD-DFT with DH, B97 family of functionals     
  Stefan Grimme          : VdW corrections, initial TS optimization, DFT functionals, gCP, sTDA/sTD-DF 
  Waldemar Hujo          : DFT-NL                                        
  H. Jonsson             : NEB                                           
  Holger Kruse           : gCP                                           
  Marcel Mueller         : wB97X-3c, vDZP basis set                      
  Hagen Neugebauer       : wr2SCAN                                       
  Tobias Risthaus        : range-separated hybrid DFT                    
  Lukas Wittmann         : regularized MP2, r2SCAN double-hybrids, wr2SCAN        
                                                                         
We gratefully acknowledge several colleagues who have allowed us to      
interface, adapt or use parts of their codes:                            
  Ed Valeev, F. Pavosevic, A. Kumar             : LibInt (2-el integral package), F12 methods 
  Garnet Chan, S. Sharma, J. Yang, R. Olivares  : DMRG                   
  Ulf Ekstrom                                   : XCFun DFT Library      
  Mihaly Kallay                                 : mrcc  (arbitrary order and MRCC methods)
  Frank Weinhold                                : gennbo (NPA and NBO analysis)           
  Simon Mueller                                 : openCOSMO-RS                            
  Christopher J. Cramer and Donald G. Truhlar   : smd solvation model                     
  S Lehtola, MJT Oliveira, MAL Marques          : LibXC Library                           
  Liviu Ungur et al                             : ANISO software                          


 Your calculation uses the libint2 library for the computation of 2-el integrals
 For citations please refer to: http://libint.valeyev.net

 Your ORCA version has been built with support for libXC version: 6.2.2
 For citations please refer to: https://libxc.gitlab.io

 This ORCA versions uses:
   CBLAS   interface :  Fast vector & matrix operations
   LAPACKE interface :  Fast linear algebra routines
   SCALAPACK package :  Parallel linear algebra routines
   Shared memory     :  Shared parallel matrices
   BLAS/LAPACK       :  OpenBLAS 0.3.27  USE64BITINT DYNAMIC_ARCH NO_AFFINITY Zen SINGLE_THREADED
        Core in use  :  Zen
   Copyright (c) 2011-2014, The OpenBLAS Project


Your calculation utilizes the geometrical counterpoise correction gCP
Please cite in your paper:
H.Kruse, S. Grimme J.Chem.Phys., 136, (2012), 154101 
   

Your calculation utilizes the atom-pairwise dispersion correction
based on EEQ partial charges (D4)


================================================================================

----- Orbital basis set information -----
Your calculation utilizes the basis: def2-SV(P)
   F. Weigend and R. Ahlrichs, Phys. Chem. Chem. Phys. 7, 3297 (2005).

----- AuxJ basis set information -----
Your calculation utilizes the auxiliary basis: def2/J
   F. Weigend, Phys. Chem. Chem. Phys. 8, 1057 (2006).

================================================================================
                                        WARNINGS
                       Please study these warnings very carefully!
================================================================================

WARNING: Old DensityContainer found on disk!
         Will remove this file - 
         If you want to keep old densities, please start your calculation with a different basename. 


================================================================================
                                       INPUT FILE
================================================================================
NAME = sp.inp
|  1> ! pbe def2-sv(p) def2/J RI DEFGRID1 loosescf d4 GCP(DFT/SV(P)) printgap
|  2> %output
|  3>     printlevel normal
|  4> end
|  5> * xyz 0 1
|  6> C 0.858093444 1.3997891002 -0.5913670115
|  7> C 1.5890078005 0.1657803821 -0.0271264911
|  8> H 2.5671507124 0.0904714806 -0.5165729673
|  9> C 0.7780684582 -1.1140456921 -0.327598534
| 10> H 1.1988312985 -1.9364611992 0.2609269517
| 11> C -0.6844241865 -0.9140802009 0.116702164
| 12> H -1.2934905579 -1.7545597189 -0.2505060642
| 13> C -1.2599073707 0.3881768999 -0.4708530619
| 14> H -1.3289702255 0.3006858109 -1.5791672501
| 15> O -0.4738525825 1.5012040807 -0.1361492443
| 16> O -2.5181416362 0.5782929255 0.0855801616
| 17> O -0.7210291667 -0.8480776958 1.5202313406
| 18> O 0.8715072239 -1.5207368386 -1.6665528803
| 19> O 1.8400668838 0.298180956 1.3413569583
| 20> H 0.8760244983 1.378867112 -1.6929424031
| 21> H 1.3513062221 2.3069466152 -0.2405611909
| 22> H -2.7339241274 1.5164693626 0.0210261634
| 23> H -1.5866136373 -0.488988684 1.7624147803
| 24> H 0.5782694261 -0.8104279877 -2.2482616476
| 25> H 1.0048528507 0.142669177 1.8111991328
| 26> *
| 27> 
| 28>                          ****END OF INPUT****
================================================================================

                       ****************************
                       * Single Point Calculation *
                       ****************************

---------------------------------
CARTESIAN COORDINATES (ANGSTROEM)
---------------------------------
  C      0.858093    1.399789   -0.591367
  C      1.589008    0.165780   -0.027126
  H      2.567151    0.090471   -0.516573
  C      0.778068   -1.114046   -0.327599
  H      1.198831   -1.936461    0.260927
  C     -0.684424   -0.914080    0.116702
  H     -1.293491   -1.754560   -0.250506
  C     -1.259907    0.388177   -0.470853
  H     -1.328970    0.300686   -1.579167
  O     -0.473853    1.501204   -0.136149
  O     -2.518142    0.578293    0.085580
  O     -0.721029   -0.848078    1.520231
  O      0.871507   -1.520737   -1.666553
  O      1.840067    0.298181    1.341357
  H      0.876024    1.378867   -1.692942
  H      1.351306    2.306947   -0.240561
  H     -2.733924    1.516469    0.021026
  H     -1.586614   -0.488989    1.762415
  H      0.578269   -0.810428   -2.248262
  H      1.004853    0.142669    1.811199

----------------------------
CARTESIAN COORDINATES (A.U.)
----------------------------
  NO LB      ZA    FRAG     MASS         X           Y           Z
   0 C     6.0000    0    12.011    1.621562    2.645218   -1.117522
   1 C     6.0000    0    12.011    3.002790    0.313280   -0.051262
   2 H     1.0000    0     1.008    4.851212    0.170966   -0.976181
   3 C     6.0000    0    12.011    1.470336   -2.105241   -0.619072
   4 H     1.0000    0     1.008    2.265463   -3.659381    0.493080
   5 C     6.0000    0    12.011   -1.293374   -1.727361    0.220535
   6 H     1.0000    0     1.008   -2.444343   -3.315637   -0.473388
   7 C     6.0000    0    12.011   -2.380880    0.733548   -0.889783
   8 H     1.0000    0     1.008   -2.511390    0.568214   -2.984194
   9 O     8.0000    0    15.999   -0.895452    2.836865   -0.257285
  10 O     8.0000    0    15.999   -4.758598    1.092815    0.161723
  11 O     8.0000    0    15.999   -1.362548   -1.602635    2.872821
  12 O     8.0000    0    15.999    1.646910   -2.873776   -3.149329
  13 O     8.0000    0    15.999    3.477222    0.563480    2.534797
  14 H     1.0000    0     1.008    1.655446    2.605681   -3.199198
  15 H     1.0000    0     1.008    2.553599    4.359497   -0.454595
  16 H     1.0000    0     1.008   -5.166368    2.865712    0.039734
  17 H     1.0000    0     1.008   -2.998265   -0.924055    3.330481
  18 H     1.0000    0     1.008    1.092771   -1.531487   -4.248599
  19 H     1.0000    0     1.008    1.898897    0.269606    3.422670

--------------------------------
INTERNAL COORDINATES (ANGSTROEM)
--------------------------------
 C      0   0   0     0.000000000000     0.00000000     0.00000000
 C      1   0   0     1.541227003963     0.00000000     0.00000000
 H      2   1   0     1.096354340444   108.34079943     0.00000000
 C      2   1   3     1.544623205075   110.07256451   240.96988127
 H      4   2   1     1.095340532170   108.41632050   192.01985817
 C      4   2   1     1.541516799687   109.54485264   309.50642348
 H      6   4   2     1.101003881830   109.24932363   170.51292257
 C      6   4   2     1.540219333525   110.74512835    51.49378081
 H      8   6   4     1.113905161283   109.65262168    66.06686351
 O      8   6   4     1.403117343905   111.73899507   304.42213118
 O      8   6   4     1.388854024829   107.54172708   186.48042632
 O      6   4   2     1.405556973168   108.57868155   291.40945259
 O      4   2   1     1.402471829682   113.01729734    75.26078113
 O      2   1   3     1.397607787098   111.58058747   116.88248049
 H      1   2   3     1.101919958834   110.06369154    50.25471000
 H      1   2   3     1.090531212423   109.49845186   290.11977774
 H     11   8   6     0.964833835083   107.99372447   157.54774067
 H     12   6   4     0.967901964356   106.89180053   165.00644914
 H     13   4   2     0.963800892134   110.01333112   302.70912584
 H     14   2   1     0.970833695045   107.70743196    75.99133757

---------------------------
INTERNAL COORDINATES (A.U.)
---------------------------
 C      0   0   0     0.000000000000     0.00000000     0.00000000
 C      1   0   0     2.912496947695     0.00000000     0.00000000
 H      2   1   0     2.071809449175   108.34079943     0.00000000
 C      2   1   3     2.918914837692   110.07256451   240.96988127
 H      4   2   1     2.069893629185   108.41632050   192.01985817
 C      4   2   1     2.913044582246   109.54485264   309.50642348
 H      6   4   2     2.080595809044   109.24932363   170.51292257
 C      6   4   2     2.910592726532   110.74512835    51.49378081
 H      8   6   4     2.104975693986   109.65262168    66.06686351
 O      8   6   4     2.651507513736   111.73899507   304.42213118
 O      8   6   4     2.624553746921   107.54172708   186.48042632
 O      6   4   2     2.656117744912   108.57868155   291.40945259
 O      4   2   1     2.650287668639   113.01729734    75.26078113
 O      2   1   3     2.641095960252   111.58058747   116.88248049
 H      1   2   3     2.082326943698   110.06369154    50.25471000
 H      1   2   3     2.060805331973   109.49845186   290.11977774
 H     11   8   6     1.823271713049   107.99372447   157.54774067
 H     12   6   4     1.829069637117   106.89180053   165.00644914
 H     13   4   2     1.821319733763   110.01333112   302.70912584
 H     14   2   1     1.834609805217   107.70743196    75.99133757

---------------------
BASIS SET INFORMATION
---------------------
There are 3 groups of distinct atoms

 Group   1 Type C   : 7s4p1d contracted to 3s2p1d pattern {511/31/1}
 Group   2 Type H   : 4s contracted to 2s pattern {31}
 Group   3 Type O   : 7s4p1d contracted to 3s2p1d pattern {511/31/1}

Atom   0C    basis set group =>   1
Atom   1C    basis set group =>   1
Atom   2H    basis set group =>   2
Atom   3C    basis set group =>   1
Atom   4H    basis set group =>   2
Atom   5C    basis set group =>   1
Atom   6H    basis set group =>   2
Atom   7C    basis set group =>   1
Atom   8H    basis set group =>   2
Atom   9O    basis set group =>   3
Atom  10O    basis set group =>   3
Atom  11O    basis set group =>   3
Atom  12O    basis set group =>   3
Atom  13O    basis set group =>   3
Atom  14H    basis set group =>   2
Atom  15H    basis set group =>   2
Atom  16H    basis set group =>   2
Atom  17H    basis set group =>   2
Atom  18H    basis set group =>   2
Atom  19H    basis set group =>   2
---------------------------------
AUXILIARY/J BASIS SET INFORMATION
---------------------------------
There are 3 groups of distinct atoms

 Group   1 Type C   : 12s5p4d2f1g contracted to 6s4p3d1f1g pattern {711111/2111/211/2/1}
 Group   2 Type H   : 5s2p1d contracted to 3s1p1d pattern {311/2/1}
 Group   3 Type O   : 12s5p4d2f1g contracted to 6s4p3d1f1g pattern {711111/2111/211/2/1}

Atom   0C    basis set group =>   1
Atom   1C    basis set group =>   1
Atom   2H    basis set group =>   2
Atom   3C    basis set group =>   1
Atom   4H    basis set group =>   2
Atom   5C    basis set group =>   1
Atom   6H    basis set group =>   2
Atom   7C    basis set group =>   1
Atom   8H    basis set group =>   2
Atom   9O    basis set group =>   3
Atom  10O    basis set group =>   3
Atom  11O    basis set group =>   3
Atom  12O    basis set group =>   3
Atom  13O    basis set group =>   3
Atom  14H    basis set group =>   2
Atom  15H    basis set group =>   2
Atom  16H    basis set group =>   2
Atom  17H    basis set group =>   2
Atom  18H    basis set group =>   2
Atom  19H    basis set group =>   2

Checking for AutoStart:
The File: sp.gbw exists
Trying to determine its content:
     ... Fine, the file contains calculation information
     ... Fine, the calculation information was read
     ... Fine, the file contains a basis set
     ... Fine, the basis set was read
     ... Fine, the file contains a geometry
     ... Fine, the geometry was read
     ... Fine, the file contains a set of orbitals
     ... Fine, the orbitals can be read
     => possible old guess file was deleted
     => GBW file was renamed to GES file
     => GES file is set as startup file
     => Guess is set to MORead
     ... now leaving AutoStart

------------------------------------------------------------------------------
                             ORCA STARTUP CALCULATIONS
                           -- RI-GTO INTEGRALS CHOSEN --
------------------------------------------------------------------------------
------------------------------------------------------------------------------
                   ___                                                        
                  /   \      - P O W E R E D   B Y -                         
                 /     \                                                     
                 |  |  |   _    _      __       _____    __    __             
                 |  |  |  | |  | |    /  \     |  _  \  |  |  /  |          
                  \  \/   | |  | |   /    \    | | | |  |  | /  /          
                 / \  \   | |__| |  /  /\  \   | |_| |  |  |/  /          
                |  |  |   |  __  | /  /__\  \  |    /   |      \           
                |  |  |   | |  | | |   __   |  |    \   |  |\   \          
                \     /   | |  | | |  |  |  |  | |\  \  |  | \   \       
                 \___/    |_|  |_| |__|  |__|  |_| \__\ |__|  \__/        
                                                                              
                      - O R C A' S   B I G   F R I E N D -                    
                                      &                                       
                       - I N T E G R A L  F E E D E R -                       
                                                                              
 v1 FN, 2020, v2 2021, v3 2022-2024                                           
------------------------------------------------------------------------------


----------------------
SHARK INTEGRAL PACKAGE
----------------------

Number of atoms                             ...     20
Number of basis functions                   ...    160
Number of shells                            ...     80
Maximum angular momentum                    ...      2
Integral batch strategy                     ... SHARK/LIBINT Hybrid
RI-J (if used) integral strategy            ... SPLIT-RIJ (Revised 2003 algorithm where possible)
Printlevel                                  ...      1
Contraction scheme used                     ... SEGMENTED contraction
Prescreening option                         ... SCHWARTZ
   Thresh                                   ... 1.000e-09
   Tcut                                     ... 1.000e-10
   Tpresel                                  ... 1.000e-10 
Coulomb Range Separation                    ... NOT USED
Exchange Range Separation                   ... NOT USED
Multipole approximations                    ... NOT USED
Finite Nucleus Model                        ... NOT USED
CABS basis                                  ... NOT available
Auxiliary Coulomb fitting basis             ... AVAILABLE
   # of basis functions in Aux-J            ...    600
   # of shells in Aux-J                     ...    200
   Maximum angular momentum in Aux-J        ...      4
Auxiliary J/K fitting basis                 ... NOT available
Auxiliary Correlation fitting basis         ... NOT available
Auxiliary 'external' fitting basis          ... NOT available

Checking pre-screening integrals            ... done (  0.0 sec) Dimension = 80
Check shell pair data                       ... done (  0.0 sec)
Shell pair information
Shell pair cut-off parameter TPreSel        ...   1.0e-10
Total number of shell pairs                 ...      3240
Shell pairs after pre-screening             ...      3073
Total number of primitive shell pairs       ...     13040
Primitive shell pairs kept                  ...      8621
          la=0 lb=0:   1193 shell pairs
          la=1 lb=0:    963 shell pairs
          la=1 lb=1:    208 shell pairs
          la=2 lb=0:    460 shell pairs
          la=2 lb=1:    196 shell pairs
          la=2 lb=2:     53 shell pairs

Calculating one electron integrals          ... done (  0.0 sec)
Calculating RI/J V-Matrix + Cholesky decomp.... done (  0.0 sec)
Calculating Nuclear repulsion               ... done (  0.0 sec) ENN=    635.719462140725 Eh

Diagonalization of the overlap matrix:
Smallest eigenvalue                        ... 1.081e-03
Time for diagonalization                   ...    0.003 sec
Threshold for overlap eigenvalues          ... 1.000e-07
Number of eigenvalues below threshold      ... 0
Time for construction of square roots      ...    0.001 sec
Total time needed                          ...    0.005 sec

-------------------
DFT GRID GENERATION
-------------------

General Integration Accuracy     IntAcc      ... 4.159
Radial Grid Type                 RadialGrid  ... OptM3 with GC (2021)
Angular Grid (max. ang.)         AngularGrid ... 3 (Lebedev-194)
Angular grid pruning method      GridPruning ... 4 (adaptive)
Weight generation scheme         WeightScheme... mBecke (2022)
Basis function cutoff            BFCut       ... 1.0000e-10
Integration weight cutoff        WCut        ... 1.0000e-14
Partially contracted basis set               ... off
Rotationally invariant grid construction     ... off
Angular grids for H and He will be reduced by one unit

Total number of grid points                  ...    46472
Total number of batches                      ...      736
Average number of points per batch           ...       63
Average number of grid points per atom       ...     2324
Initializing property integral containers    ... done (  0.0 sec)

SHARK setup successfully completed in   0.5 seconds

Maximum memory used throughout the entire STARTUP-calculation: 23.8 MB
-------------------------------------------------------------------------------
                                 ORCA GUESS
                   Start orbitals & Density for SCF / CASSCF
-------------------------------------------------------------------------------

------------
SCF SETTINGS
------------
Hamiltonian:
 Density Functional     Method          .... DFT(GTOs)
 Exchange Functional    Exchange        .... PBE
   PBE kappa parameter   XKappa         ....  0.804000
   PBE mue parameter    XMuePBE         ....  0.219520
 Correlation Functional Correlation     .... PBE
   PBE beta parameter  CBetaPBE         ....  0.066725
 LDA part of GGA corr.  LDAOpt          .... PW91-LDA
 Gradients option       PostSCFGGA      .... off
   NL short-range parameter             ....  6.400000
 RI-approximation to the Coulomb term is turned on
   Number of AuxJ basis functions       .... 600


General Settings:
 Integral files         IntName         .... sp
 Hartree-Fock type      HFTyp           .... RHF
 Total Charge           Charge          ....    0
 Multiplicity           Mult            ....    1
 Number of Electrons    NEL             ....   80
 Basis Dimension        Dim             ....  160
 Nuclear Repulsion      ENuc            ....    635.7194621407 Eh

Convergence Acceleration:
 AO-DIIS                CNVDIIS         .... on
   Start iteration      DIISMaxIt       ....    12
   Startup error        DIISStart       ....  0.200000
   # of expansion vecs  DIISMaxEq       ....     5
   Bias factor          DIISBfac        ....   1.050
   Max. coefficient     DIISMaxC        ....  10.000
 MO-DIIS                CNVKDIIS        .... off
 Trust-Rad. Augm. Hess. CNVTRAH         .... auto
   Auto Start mean grad. ratio tolernc. ....  1.125000
   Auto Start start iteration           ....     1
   Auto Start num. interpolation iter.  ....    10
   Max. Number of Micro iterations      ....    24
   Max. Number of Macro iterations      .... Maxiter - #DIIS iter
   Number of Davidson start vectors     ....     2
   Converg. threshold    (grad. norm)   ....   1.000e-04
   Grad. Scal. Fac. for Micro threshold ....   0.100
   Minimum threshold for Micro iter.    ....   1.000e-02
   NR start threshold (gradient norm)   ....   1.000e-04
   Initial trust radius                 ....   0.400
   Minimum AH scaling param. (alpha)    ....   1.000
   Maximum AH scaling param. (alpha)    .... 1000.000
   Quad. conv. algorithm                .... NR
   White noise on init. David. guess    .... on
   Maximum white noise                  ....   0.010
   Pseudo random numbers                .... off
   Inactive MOs                         .... canonical
   Orbital update algorithm             .... Taylor
   Preconditioner                       .... Diag
   Full preconditioner red. dimension   ....   250
 SOSCF                  CNVSOSCF        .... on
   Start iteration      SOSCFMaxIt      ....   150
   Startup grad/error   SOSCFStart      ....  0.003300
   Hessian update       SOSCFHessUp     .... L-BFGS
 Level Shifting         CNVShift        .... on
   Level shift para.    LevelShift      ....    0.2500
   Turn off err/grad.   ShiftErr        ....    0.0010
 Zerner damping         CNVZerner       .... off
 Static damping         CNVDamp         .... on
   Fraction old density DampFac         ....    0.7000
   Max. Damping (<1)    DampMax         ....    0.9800
   Min. Damping (>=0)   DampMin         ....    0.0000
   Turn off err/grad.   DampErr         ....    0.1000

SCF Procedure:
 Maximum # iterations   MaxIter         ....   125
 SCF integral mode      SCFMode         .... Direct
   Integral package                     .... SHARK and LIBINT hybrid scheme
 Reset frequency        DirectResetFreq ....    20
 Integral Threshold     Thresh          ....  1.000e-09 Eh
 Primitive CutOff       TCut            ....  1.000e-10 Eh

Convergence Tolerance:
 Convergence Check Mode ConvCheckMode   .... Total+1el-Energy
 Convergence forced     ConvForced      .... 0
 Energy Change          TolE            ....  1.000e-05 Eh
 1-El. energy change                    ....  1.000e-02 Eh
 Orbital Gradient       TolG            ....  1.000e-04
 Orbital Rotation angle TolX            ....  1.000e-04
 DIIS Error             TolErr          ....  5.000e-04

---------------------
INITIAL GUESS: MOREAD
---------------------
Guess MOs are being read from file: sp.ges
Input Geometry matches current geometry (good)
Input basis set matches current basis set (good)
Occupation numbers will be reassigned to an Aufbau configuration
MOs were renormalized
MOs were reorthogonalized (Cholesky)
                      ------------------
                      INITIAL GUESS DONE (   0.0 sec)
                      ------------------
             **** ENERGY FILE WAS UPDATED (sp.en.tmp) ****
Finished Guess after   0.1 sec
Maximum memory used throughout the entire GUESS-calculation: 11.8 MB

-------------------------------------------------------------------------------------------
                                      ORCA LEAN-SCF
                              memory conserving SCF solver
-------------------------------------------------------------------------------------------

----------------------------------------D-I-I-S--------------------------------------------
Iteration    Energy (Eh)           Delta-E    RMSDP     MaxDP     DIISErr   Damp  Time(sec)
-------------------------------------------------------------------------------------------
               ***  Starting incremental Fock matrix formation  ***
                              *** Initializing SOSCF ***
---------------------------------------S-O-S-C-F--------------------------------------
Iteration    Energy (Eh)           Delta-E    RMSDP     MaxDP     MaxGrad    Time(sec)
--------------------------------------------------------------------------------------
    1    -571.5289243903972647     0.00e+00  2.20e-05  4.03e-04  3.11e-05     0.7
               *** Restarting incremental Fock matrix formation ***
    2    -571.5289244530489441    -6.27e-08  3.64e-05  7.47e-04  8.52e-05     0.7
    3    -571.5289228980558391     1.55e-06  2.39e-05  5.10e-04  1.73e-04     0.5
                 **** Energy Check signals convergence ****

               *****************************************************
               *                     SUCCESS                       *
               *           SCF CONVERGED AFTER   3 CYCLES          *
               *****************************************************

             **** ENERGY FILE WAS UPDATED (sp.en.tmp) ****

----------------
TOTAL SCF ENERGY
----------------

Total Energy       :       -571.52892289805584 Eh          -15552.09265 eV

Components:
Nuclear Repulsion  :        635.71946214072489 Eh           17298.80602 eV
Electronic Energy  :      -1207.24838503878073 Eh          -32850.89866 eV
One Electron Energy:      -2045.14219937852408 Eh          -55651.14849 eV
Two Electron Energy:        837.89381433974324 Eh           22800.24983 eV

Virial components:
Potential Energy   :      -1139.12303115702571 Eh          -30997.11354 eV
Kinetic Energy     :        567.59410825896998 Eh           15445.02090 eV
Virial Ratio       :          2.00693244447367

DFT components:
N(Alpha)           :       40.000189736509 electrons
N(Beta)            :       40.000189736509 electrons
N(Total)           :       80.000379473018 electrons
E(X)               :      -70.502011433979 Eh       
E(C)               :       -2.736855903308 Eh       
E(XC)              :      -73.238867337287 Eh       

---------------
SCF CONVERGENCE
---------------

  Last Energy change         ...   -1.5550e-06  Tolerance :   1.0000e-05
  Last MAX-Density change    ...    5.1039e-04  Tolerance :   1.0000e-03
  Last RMS-Density change    ...    2.3870e-05  Tolerance :   1.0000e-04
  Last DIIS Error            ...    3.2492e-04  Tolerance :   5.0000e-04
  Last Orbital Gradient      ...    1.7287e-04  Tolerance :   1.0000e-04
  Last Orbital Rotation      ...    9.5736e-05  Tolerance :   1.0000e-04


----------------
ORBITAL ENERGIES
----------------

  NO   OCC          E(Eh)            E(eV) 
   0   2.0000     -18.784222      -511.1447 
   1   2.0000     -18.783493      -511.1248 
   2   2.0000     -18.769606      -510.7469 
   3   2.0000     -18.764806      -510.6163 
   4   2.0000     -18.736979      -509.8591 
   5   2.0000     -10.002800      -272.1900 
   6   2.0000      -9.948559      -270.7141 
   7   2.0000      -9.945938      -270.6427 
   8   2.0000      -9.943763      -270.5835 
   9   2.0000      -9.939262      -270.4611 
  10   2.0000      -1.003827       -27.3155 
  11   2.0000      -0.949277       -25.8311 
  12   2.0000      -0.941231       -25.6122 
  13   2.0000      -0.933149       -25.3923 
  14   2.0000      -0.914045       -24.8724 
  15   2.0000      -0.697546       -18.9812 
  16   2.0000      -0.682895       -18.5825 
  17   2.0000      -0.608780       -16.5657 
  18   2.0000      -0.587513       -15.9870 
  19   2.0000      -0.533620       -14.5205 
  20   2.0000      -0.509931       -13.8759 
  21   2.0000      -0.486956       -13.2507 
  22   2.0000      -0.482672       -13.1342 
  23   2.0000      -0.465526       -12.6676 
  24   2.0000      -0.427492       -11.6326 
  25   2.0000      -0.424082       -11.5399 
  26   2.0000      -0.406978       -11.0744 
  27   2.0000      -0.390871       -10.6361 
  28   2.0000      -0.380052       -10.3417 
  29   2.0000      -0.361221        -9.8293 
  30   2.0000      -0.332491        -9.0475 
  31   2.0000      -0.326166        -8.8754 
  32   2.0000      -0.312541        -8.5047 
  33   2.0000      -0.288994        -7.8639 
  34   2.0000      -0.281563        -7.6617 
  35   2.0000      -0.268969        -7.3190 
  36   2.0000      -0.256331        -6.9751 
  37   2.0000      -0.233584        -6.3561 
  38   2.0000      -0.225925        -6.1477 
  39   2.0000      -0.201079        -5.4716 
  40   0.0000       0.003659         0.0996 
  41   0.0000       0.014799         0.4027 
  42   0.0000       0.052551         1.4300 
  43   0.0000       0.065009         1.7690 
  44   0.0000       0.070245         1.9115 
  45   0.0000       0.080884         2.2010 
  46   0.0000       0.091824         2.4987 
  47   0.0000       0.100948         2.7469 
  48   0.0000       0.111720         3.0400 
  49   0.0000       0.118722         3.2306 
  50   0.0000       0.124116         3.3774 
*Only the first 10 virtual orbitals were printed.

                    ********************************
                    * MULLIKEN POPULATION ANALYSIS *
                    ********************************

-----------------------
MULLIKEN ATOMIC CHARGES
-----------------------
   0 C :    0.033056
   1 C :    0.034953
   2 H :    0.078282
   3 C :    0.031571
   4 H :    0.095701
   5 C :    0.069085
   6 H :    0.080888
   7 C :    0.131742
   8 H :    0.035064
   9 O :   -0.314020
  10 O :   -0.391100
  11 O :   -0.426195
  12 O :   -0.409502
  13 O :   -0.426741
  14 H :    0.050385
  15 H :    0.107064
  16 H :    0.313643
  17 H :    0.309584
  18 H :    0.295800
  19 H :    0.300741
Sum of atomic charges:    0.0000000

--------------------------------
MULLIKEN REDUCED ORBITAL CHARGES
--------------------------------
  0 C s       :     3.032801  s :     3.032801
      pz      :     0.981544  p :     2.872664
      px      :     0.788514
      py      :     1.102606
      dz2     :     0.015714  d :     0.061478
      dxz     :     0.012209
      dyz     :     0.003532
      dx2y2   :     0.015318
      dxy     :     0.014706

  1 C s       :     3.059763  s :     3.059763
      pz      :     0.804870  p :     2.835423
      px      :     1.039221
      py      :     0.991332
      dz2     :     0.019065  d :     0.069861
      dxz     :     0.016667
      dyz     :     0.017362
      dx2y2   :     0.009039
      dxy     :     0.007729

  2 H s       :     0.921718  s :     0.921718

  3 C s       :     3.071661  s :     3.071661
      pz      :     0.780770  p :     2.828992
      px      :     1.001674
      py      :     1.046549
      dz2     :     0.017263  d :     0.067776
      dxz     :     0.015199
      dyz     :     0.016406
      dx2y2   :     0.009287
      dxy     :     0.009622

  4 H s       :     0.904299  s :     0.904299

  5 C s       :     3.051456  s :     3.051456
      pz      :     0.750889  p :     2.813064
      px      :     1.063832
      py      :     0.998343
      dz2     :     0.020415  d :     0.066395
      dxz     :     0.012841
      dyz     :     0.017323
      dx2y2   :     0.005793
      dxy     :     0.010023

  6 H s       :     0.919112  s :     0.919112

  7 C s       :     3.068446  s :     3.068446
      pz      :     1.002142  p :     2.699315
      px      :     0.783921
      py      :     0.913252
      dz2     :     0.023212  d :     0.100497
      dxz     :     0.017698
      dyz     :     0.011475
      dx2y2   :     0.024817
      dxy     :     0.023294

  8 H s       :     0.964936  s :     0.964936

  9 O s       :     3.758444  s :     3.758444
      pz      :     1.747073  p :     4.539889
      px      :     1.269785
      py      :     1.523031
      dz2     :     0.002176  d :     0.015686
      dxz     :     0.003156
      dyz     :     0.002421
      dx2y2   :     0.003962
      dxy     :     0.003971

 10 O s       :     3.768109  s :     3.768109
      pz      :     1.779718  p :     4.607549
      px      :     1.443391
      py      :     1.384439
      dz2     :     0.002879  d :     0.015443
      dxz     :     0.002868
      dyz     :     0.000930
      dx2y2   :     0.006922
      dxy     :     0.001843

 11 O s       :     3.787209  s :     3.787209
      pz      :     1.329681  p :     4.623660
      px      :     1.471922
      py      :     1.822058
      dz2     :     0.005440  d :     0.015326
      dxz     :     0.002397
      dyz     :     0.001957
      dx2y2   :     0.002758
      dxy     :     0.002773

 12 O s       :     3.783999  s :     3.783999
      pz      :     1.213157  p :     4.609644
      px      :     1.839755
      py      :     1.556732
      dz2     :     0.002110  d :     0.015859
      dxz     :     0.002099
      dyz     :     0.006693
      dx2y2   :     0.002498
      dxy     :     0.002459

 13 O s       :     3.780166  s :     3.780166
      pz      :     1.238267  p :     4.630962
      px      :     1.519970
      py      :     1.872726
      dz2     :     0.003307  d :     0.015612
      dxz     :     0.005383
      dyz     :     0.001760
      dx2y2   :     0.003753
      dxy     :     0.001409

 14 H s       :     0.949615  s :     0.949615

 15 H s       :     0.892936  s :     0.892936

 16 H s       :     0.686357  s :     0.686357

 17 H s       :     0.690416  s :     0.690416

 18 H s       :     0.704200  s :     0.704200

 19 H s       :     0.699259  s :     0.699259


------------------------
MULLIKEN OVERLAP CHARGES
------------------------
B(  0-C ,  1-C ) :   0.5494 B(  0-C ,  2-H ) :  -0.0744 B(  0-C ,  5-C ) :  -0.1259 
B(  0-C ,  9-O ) :   0.6513 B(  0-C , 13-O ) :  -0.0889 B(  0-C , 14-H ) :   0.5956 
B(  0-C , 15-H ) :   0.6838 B(  1-C ,  2-H ) :   0.6680 B(  1-C ,  3-C ) :   0.3934 
B(  1-C ,  4-H ) :  -0.1020 B(  1-C ,  5-C ) :   0.0679 B(  1-C ,  7-C ) :  -0.1250 
B(  1-C ,  9-O ) :  -0.0780 B(  1-C , 12-O ) :  -0.0779 B(  1-C , 13-O ) :   0.5836 
B(  1-C , 14-H ) :  -0.0622 B(  1-C , 19-H ) :  -0.0910 B(  2-H ,  3-C ) :  -0.0855 
B(  2-H , 13-O ) :  -0.0510 B(  3-C ,  4-H ) :   0.7078 B(  3-C ,  5-C ) :   0.1796 
B(  3-C ,  6-H ) :  -0.0841 B(  3-C ,  9-O ) :  -0.0524 B(  3-C , 11-O ) :  -0.0797 
B(  3-C , 12-O ) :   0.5825 B(  3-C , 13-O ) :  -0.0528 B(  3-C , 18-H ) :  -0.1117 
B(  4-H ,  5-C ) :  -0.0910 B(  5-C ,  6-H ) :   0.6313 B(  5-C ,  7-C ) :   0.1663 
B(  5-C ,  8-H ) :  -0.2260 B(  5-C , 10-O ) :  -0.1476 B(  5-C , 11-O ) :   0.4187 
B(  5-C , 12-O ) :  -0.0847 B(  5-C , 17-H ) :  -0.1337 B(  7-C ,  8-H ) :   0.7548 
B(  7-C ,  9-O ) :   0.5587 B(  7-C , 10-O ) :   0.7270 B(  7-C , 16-H ) :  -0.0700 
B(  8-H ,  9-O ) :  -0.1102 B(  8-H , 10-O ) :  -0.0825 B(  9-O , 10-O ) :  -0.1212 
B(  9-O , 14-H ) :  -0.0767 B( 10-O , 16-H ) :   0.5261 B( 10-O , 17-H ) :   0.0760 
B( 11-O , 17-H ) :   0.5231 B( 11-O , 19-H ) :   0.1116 B( 12-O , 18-H ) :   0.5494 
B( 13-O , 19-H ) :   0.5484 B( 14-H , 15-H ) :  -0.0537 


                     *******************************
                     * LOEWDIN POPULATION ANALYSIS *
                     *******************************

----------------------
LOEWDIN ATOMIC CHARGES
----------------------
   0 C :   -0.128542
   1 C :   -0.085241
   2 H :    0.118260
   3 C :   -0.070252
   4 H :    0.125460
   5 C :   -0.087695
   6 H :    0.111237
   7 C :   -0.007312
   8 H :    0.074982
   9 O :   -0.160480
  10 O :   -0.299865
  11 O :   -0.307217
  12 O :   -0.304632
  13 O :   -0.321364
  14 H :    0.091007
  15 H :    0.126136
  16 H :    0.294196
  17 H :    0.285333
  18 H :    0.274194
  19 H :    0.271794

-------------------------------
LOEWDIN REDUCED ORBITAL CHARGES
-------------------------------
  0 C s       :     2.930977  s :     2.930977
      pz      :     1.070816  p :     3.057330
      px      :     0.871655
      py      :     1.114859
      dz2     :     0.037292  d :     0.140235
      dxz     :     0.026809
      dyz     :     0.008459
      dx2y2   :     0.033311
      dxy     :     0.034363

  1 C s       :     2.892411  s :     2.892411
      pz      :     0.897732  p :     3.030606
      px      :     1.075124
      py      :     1.057751
      dz2     :     0.043841  d :     0.162223
      dxz     :     0.036387
      dyz     :     0.039118
      dx2y2   :     0.019991
      dxy     :     0.022886

  2 H s       :     0.881740  s :     0.881740

  3 C s       :     2.892120  s :     2.892120
      pz      :     0.888075  p :     3.019556
      px      :     1.058206
      py      :     1.073276
      dz2     :     0.039814  d :     0.158576
      dxz     :     0.034704
      dyz     :     0.036986
      dx2y2   :     0.023284
      dxy     :     0.023788

  4 H s       :     0.874540  s :     0.874540

  5 C s       :     2.905360  s :     2.905360
      pz      :     0.863118  p :     3.026236
      px      :     1.086864
      py      :     1.076254
      dz2     :     0.047739  d :     0.156099
      dxz     :     0.027650
      dyz     :     0.039887
      dx2y2   :     0.017377
      dxy     :     0.023446

  6 H s       :     0.888763  s :     0.888763

  7 C s       :     2.890241  s :     2.890241
      pz      :     1.058486  p :     2.891082
      px      :     0.859648
      py      :     0.972948
      dz2     :     0.055349  d :     0.225989
      dxz     :     0.039583
      dyz     :     0.025600
      dx2y2   :     0.054189
      dxy     :     0.051268

  8 H s       :     0.925018  s :     0.925018

  9 O s       :     3.472929  s :     3.472929
      pz      :     1.772393  p :     4.657197
      px      :     1.324623
      py      :     1.560182
      dz2     :     0.003630  d :     0.030354
      dxz     :     0.006037
      dyz     :     0.003517
      dx2y2   :     0.008386
      dxy     :     0.008784

 10 O s       :     3.524610  s :     3.524610
      pz      :     1.804113  p :     4.748047
      px      :     1.499053
      py      :     1.444881
      dz2     :     0.004575  d :     0.027208
      dxz     :     0.005121
      dyz     :     0.001334
      dx2y2   :     0.012656
      dxy     :     0.003522

 11 O s       :     3.526951  s :     3.526951
      pz      :     1.400005  p :     4.753261
      px      :     1.524018
      py      :     1.829238
      dz2     :     0.010898  d :     0.027006
      dxz     :     0.004544
      dyz     :     0.003187
      dx2y2   :     0.004156
      dxy     :     0.004221

 12 O s       :     3.529223  s :     3.529223
      pz      :     1.294933  p :     4.747560
      px      :     1.841220
      py      :     1.611407
      dz2     :     0.005265  d :     0.027849
      dxz     :     0.003909
      dyz     :     0.012380
      dx2y2   :     0.003168
      dxy     :     0.003127

 13 O s       :     3.525731  s :     3.525731
      pz      :     1.321873  p :     4.768424
      px      :     1.577277
      py      :     1.869273
      dz2     :     0.007513  d :     0.027209
      dxz     :     0.009631
      dyz     :     0.003236
      dx2y2   :     0.005228
      dxy     :     0.001600

 14 H s       :     0.908993  s :     0.908993

 15 H s       :     0.873864  s :     0.873864

 16 H s       :     0.705804  s :     0.705804

 17 H s       :     0.714667  s :     0.714667

 18 H s       :     0.725806  s :     0.725806

 19 H s       :     0.728206  s :     0.728206


---------------------------------
LOEWDIN BOND ORDERS (THRESH 0.050000)
---------------------------------
B(  0-C ,  1-C ) :   1.0558 B(  0-C ,  3-C ) :   0.0560 B(  0-C ,  7-C ) :   0.0706 
B(  0-C ,  9-O ) :   1.1545 B(  0-C , 13-O ) :   0.0827 B(  0-C , 14-H ) :   0.8916 
B(  0-C , 15-H ) :   0.9078 B(  1-C ,  2-H ) :   0.8725 B(  1-C ,  3-C ) :   1.0144 
B(  1-C ,  5-C ) :   0.0539 B(  1-C ,  9-O ) :   0.0605 B(  1-C , 12-O ) :   0.0770 
B(  1-C , 13-O ) :   1.2454 B(  3-C ,  4-H ) :   0.8704 B(  3-C ,  5-C ) :   1.0167 
B(  3-C ,  7-C ) :   0.0544 B(  3-C , 11-O ) :   0.0583 B(  3-C , 12-O ) :   1.2285 
B(  3-C , 13-O ) :   0.0798 B(  5-C ,  6-H ) :   0.8668 B(  5-C ,  7-C ) :   1.0190 
B(  5-C ,  9-O ) :   0.0613 B(  5-C , 10-O ) :   0.0639 B(  5-C , 11-O ) :   1.2103 
B(  5-C , 12-O ) :   0.0812 B(  7-C ,  8-H ) :   0.8640 B(  7-C ,  9-O ) :   1.1826 
B(  7-C , 10-O ) :   1.2671 B(  7-C , 11-O ) :   0.0754 B(  9-O , 10-O ) :   0.0757 
B( 10-O , 16-H ) :   0.8674 B( 10-O , 17-H ) :   0.0504 B( 11-O , 17-H ) :   0.8573 
B( 11-O , 19-H ) :   0.0853 B( 12-O , 18-H ) :   0.8809 B( 13-O , 19-H ) :   0.8512 


------------------------------------------
LOEWDIN REDUCED ORBITAL POPULATIONS PER MO
-------------------------------------------
THRESHOLD FOR PRINTING IS 0.1%%
                      0         1         2         3         4         5   
                 -18.78422 -18.78349 -18.76961 -18.76481 -18.73698 -10.00280
                   2.00000   2.00000   2.00000   2.00000   2.00000   2.00000
                  --------  --------  --------  --------  --------  --------
 7 C  s               0.0       0.0       0.0       0.0       0.0      99.6
 9 O  s              99.8       0.1       0.0       0.0       0.0       0.0
10 O  s               0.1      99.8       0.0       0.0       0.0       0.0
10 O  px              0.0       0.0       0.0       0.0       0.0       0.1
11 O  s               0.0       0.0      99.9       0.0       0.0       0.0
12 O  s               0.0       0.0       0.0      99.9       0.0       0.0
13 O  s               0.0       0.0       0.0       0.0      99.9       0.0

                      6         7         8         9        10        11   
                  -9.94856  -9.94594  -9.94376  -9.93926  -1.00383  -0.94928
                   2.00000   2.00000   2.00000   2.00000   2.00000   2.00000
                  --------  --------  --------  --------  --------  --------
 0 C  s               0.0       0.0      99.6       0.0       3.4       0.0
 0 C  pz              0.0       0.0       0.0       0.0       0.4       0.0
 0 C  px              0.0       0.0       0.0       0.0       3.1       0.2
 0 C  py              0.0       0.0       0.0       0.1       0.0       0.2
 0 C  dx2y2           0.0       0.0       0.0       0.0       0.2       0.0
 1 C  s               0.0       0.0       0.0      99.6       0.6       2.3
 1 C  pz              0.0       0.0       0.0       0.0       0.0       0.2
 1 C  px              0.0       0.0       0.0       0.0       0.4       0.2
 1 C  py              0.0       0.1       0.1       0.0       0.1       0.5
 2 H  s               0.0       0.0       0.0       0.1       0.1       0.3
 3 C  s               0.0      99.6       0.0       0.0       0.6       8.0
 3 C  pz              0.0       0.0       0.0       0.0       0.0       2.2
 3 C  px              0.1       0.0       0.0       0.0       0.2       0.1
 3 C  py              0.0       0.0       0.0       0.1       0.1       0.0
 3 C  dz2             0.0       0.0       0.0       0.0       0.0       0.3
 4 H  s               0.0       0.1       0.0       0.0       0.1       1.1
 5 C  s              99.6       0.0       0.0       0.0       3.0       4.9
 5 C  pz              0.0       0.0       0.0       0.0       0.1       1.9
 5 C  px              0.0       0.1       0.0       0.0       0.1       0.8
 5 C  py              0.0       0.0       0.0       0.0       1.6       0.1
 5 C  dz2             0.0       0.0       0.0       0.0       0.0       0.3
 6 H  s               0.1       0.0       0.0       0.0       0.4       0.6
 7 C  s               0.0       0.0       0.0       0.0      15.7       0.5
 7 C  pz              0.0       0.0       0.0       0.0       1.9       0.0
 7 C  px              0.0       0.0       0.0       0.0       0.1       1.4
 7 C  py              0.1       0.0       0.0       0.0       2.3       1.2
 7 C  dz2             0.0       0.0       0.0       0.0       0.2       0.0
 8 H  s               0.0       0.0       0.0       0.0       1.7       0.0
 9 O  s               0.0       0.0       0.0       0.0      24.6       0.5
 9 O  pz              0.0       0.0       0.0       0.0       0.4       0.0
 9 O  px              0.0       0.0       0.1       0.0       0.1       0.1
 9 O  py              0.0       0.0       0.0       0.0       1.6       0.0
10 O  s               0.0       0.0       0.0       0.0      22.6       6.5
10 O  pz              0.0       0.0       0.0       0.0       0.3       0.1
10 O  px              0.0       0.0       0.0       0.0       1.6       0.1
10 O  py              0.0       0.0       0.0       0.0       0.4       0.3
11 O  s               0.0       0.0       0.0       0.0       3.4      19.2
11 O  pz              0.1       0.0       0.0       0.0       0.3       0.7
11 O  px              0.0       0.0       0.0       0.0       0.1       0.3
12 O  s               0.0       0.0       0.0       0.0       0.4      26.5
12 O  pz              0.0       0.1       0.0       0.0       0.0       0.4
12 O  px              0.0       0.0       0.0       0.0       0.0       0.2
12 O  py              0.0       0.0       0.0       0.0       0.0       1.2
13 O  s               0.0       0.0       0.0       0.0       0.4       3.9
13 O  pz              0.0       0.0       0.0       0.1       0.0       0.1
13 O  px              0.0       0.0       0.0       0.0       0.0       0.2
14 H  s               0.0       0.0       0.1       0.0       0.4       0.0
15 H  s               0.0       0.0       0.1       0.0       0.4       0.0
16 H  s               0.0       0.0       0.0       0.0       4.8       1.4
17 H  s               0.0       0.0       0.0       0.0       1.1       3.4
18 H  s               0.0       0.0       0.0       0.0       0.1       5.6
19 H  s               0.0       0.0       0.0       0.0       0.2       1.4

                     12        13        14        15        16        17   
                  -0.94123  -0.93315  -0.91404  -0.69755  -0.68289  -0.60878
                   2.00000   2.00000   2.00000   2.00000   2.00000   2.00000
                  --------  --------  --------  --------  --------  --------
 0 C  s               3.1       2.8       0.1       0.3      20.3       6.0
 0 C  pz              0.2       0.4       0.2       0.0       0.0       0.4
 0 C  px              1.5       1.4       1.7       0.9       1.2       1.9
 0 C  py              0.0       0.0       0.4       1.7       0.1       0.0
 0 C  dx2y2           0.1       0.1       0.1       0.1       0.0       0.1
 1 C  s               1.1       0.9       7.5       4.9       9.4       0.4
 1 C  pz              0.0       1.0       8.2       1.2       3.3       0.4
 1 C  px              0.2       0.0       0.3       1.2       0.5       0.2
 1 C  py              0.0       0.7       0.0       1.2       1.4       6.7
 1 C  dz2             0.0       0.1       0.7       0.1       0.1       0.0
 1 C  dxy             0.0       0.0       0.0       0.0       0.0       0.1
 2 H  s               0.2       0.1       0.9       0.9       2.3       0.2
 3 C  s               1.2       1.7       0.0      13.3       0.7      10.2
 3 C  pz              2.4       4.4       0.6       2.3       0.0       1.1
 3 C  px              0.5       0.0       0.5       1.4       1.8       0.2
 3 C  py              0.0       0.7       0.6       1.3       1.1       1.6
 3 C  dz2             0.1       0.3       0.0       0.2       0.0       0.0
 4 H  s               0.1       0.2       0.0       2.5       0.1       4.8
 5 C  s               3.1       0.2       0.4      15.0       2.1       0.2
 5 C  pz              6.1       1.4       0.3       3.2       0.8       0.8
 5 C  px              0.7       0.0       0.0       1.5       0.7       7.5
 5 C  py              0.0       0.0       0.0       0.1       0.8       2.5
 5 C  dz2             0.5       0.1       0.0       0.2       0.0       0.0
 5 C  dx2y2           0.0       0.0       0.0       0.0       0.0       0.1
 6 H  s               0.3       0.0       0.0       2.9       0.5       0.2
 7 C  s               0.0       0.2       0.0       4.0       8.8       6.1
 7 C  pz              0.4       0.1       0.0       0.0       0.0       0.5
 7 C  px              3.0       7.2       2.2       0.6       0.8       0.5
 7 C  py              2.0       0.4       0.1       5.4       0.2       5.1
 7 C  dxz             0.1       0.2       0.1       0.0       0.0       0.0
 7 C  dx2y2           0.1       0.2       0.1       0.0       0.1       0.0
 7 C  dxy             0.2       0.3       0.1       0.1       0.0       0.0
 8 H  s               0.0       0.0       0.0       1.0       1.7       3.0
 9 O  s              13.1      11.5       5.0       2.5       0.5       3.4
 9 O  pz              0.2       0.2       0.1       0.0       0.0       0.3
 9 O  px              0.5       0.8       0.1       0.0      10.5       0.6
 9 O  py              0.2       0.2       0.1       0.7       2.3       0.4
 9 O  dx2y2           0.0       0.0       0.0       0.0       0.1       0.0
10 O  s               5.5      20.3       4.8       0.3       2.8       0.4
10 O  pz              0.0       0.2       0.0       0.1       0.2       0.6
10 O  px              0.1       0.2       0.0       0.6       2.9       4.0
10 O  py              0.1       0.5       0.1       0.9       1.2       6.4
10 O  dx2y2           0.0       0.0       0.0       0.0       0.1       0.1
11 O  s              28.7       4.6       2.6       4.0       0.7       0.1
11 O  pz              0.7       0.1       0.1       3.4       0.4       0.0
11 O  px              0.8       0.1       0.1       1.3       0.1       0.9
11 O  py              0.1       0.0       0.0       0.2       0.0       0.2
12 O  s              10.5      19.8       0.9       4.8       0.3       0.5
12 O  pz              0.1       0.1       0.0       3.6       0.2       7.9
12 O  px              0.1       0.1       0.0       0.0       0.1       0.2
12 O  py              0.5       0.9       0.0       0.1       0.0       0.7
13 O  s               1.0       4.4      47.3       2.3       3.1       0.0
13 O  pz              0.1       0.1       0.8       0.9       2.1       0.2
13 O  px              0.0       0.2       1.9       0.1       0.2       0.1
13 O  py              0.0       0.0       0.1       0.0       0.0       0.3
14 H  s               0.4       0.3       0.0       0.1       4.3       2.7
15 H  s               0.4       0.4       0.0       0.0       4.9       2.0
16 H  s               0.9       3.9       0.9       0.5       1.8       3.3
17 H  s               6.1       0.6       0.5       2.4       0.3       0.1
18 H  s               2.2       4.1       0.2       2.2       0.1       3.0
19 H  s               0.1       1.2       8.7       0.9       1.3       0.1

                     18        19        20        21        22        23   
                  -0.58751  -0.53362  -0.50993  -0.48696  -0.48267  -0.46553
                   2.00000   2.00000   2.00000   2.00000   2.00000   2.00000
                  --------  --------  --------  --------  --------  --------
 0 C  s               2.9       1.1       0.7       0.0       1.7       1.1
 0 C  pz              0.0       0.2       6.1       0.4       4.3       0.2
 0 C  px              2.0       0.3       0.1       0.1       3.5       8.6
 0 C  py              4.3       2.4       1.8       1.1       1.8       0.4
 0 C  dx2y2           0.0       0.0       0.1       0.0       0.0       0.1
 1 C  s              10.1       1.7       0.9       0.0       0.2       0.1
 1 C  pz              0.9       0.0       2.0       1.3       0.4       1.6
 1 C  px              1.5       0.1       4.7       9.5       1.0       0.0
 1 C  py              1.3       0.2       0.0       1.2       0.3       7.6
 1 C  dz2             0.0       0.0       0.0       0.1       0.0       0.0
 2 H  s               5.0       0.6       1.3       1.2       0.2       0.0
 3 C  s               0.2       2.8       0.2       0.4       0.0       0.5
 3 C  pz              0.1       1.8       0.0       1.0       0.8       5.8
 3 C  px              8.0       1.5       0.5       0.8       0.6       1.0
 3 C  py              1.7       5.5       1.8       4.3       2.9       0.9
 4 H  s               0.0       2.4       0.1       0.0       1.1       1.1
 5 C  s               7.3       2.0       0.8       1.3       0.3       0.6
 5 C  pz              0.1       1.6       1.1       2.4       9.1       0.1
 5 C  px              0.0       0.6       2.9       2.0       0.9       0.7
 5 C  py              1.9       0.0       0.9       6.1       2.0       0.5
 5 C  dz2             0.0       0.1       0.0       0.0       0.3       0.0
 5 C  dx2y2           0.0       0.0       0.0       0.0       0.0       0.1
 6 H  s               3.3       0.1       1.3       5.2       0.5       0.2
 7 C  s               2.0       0.8       1.1       0.4       0.4       0.1
 7 C  pz              0.0       0.5      10.5      10.5       0.7      12.9
 7 C  px              0.0       4.0       3.1       0.9       3.2       4.1
 7 C  py              4.4       0.5       0.4       0.0       7.8       0.5
 7 C  dxz             0.0       0.1       0.0       0.0       0.0       0.0
 7 C  dx2y2           0.0       0.1       0.0       0.3       0.0       0.2
 8 H  s               0.4       0.7       5.6       4.5       0.4       6.2
 9 O  s               0.0       0.0       3.2       0.0       0.1       0.2
 9 O  pz              0.0       0.3       4.2       2.7       1.0       2.7
 9 O  px             11.0       1.7       0.7       0.8       6.7       6.9
 9 O  py              2.9       1.2       3.1       0.4       0.2       4.9
10 O  s               0.9       0.0       0.2       0.5       0.8       0.2
10 O  pz              0.1       0.8       0.3       0.3       3.2       4.6
10 O  px              2.2       4.0       3.4       4.7       5.2       0.1
10 O  py              0.1       7.7       6.4       6.4       0.1       2.5
11 O  s               0.7       0.0       0.8       0.0       0.8       0.7
11 O  pz              4.5       6.7       4.1       0.2       6.9       0.5
11 O  px              2.0       3.8       0.1       2.5      11.5       0.8
11 O  py              0.7       0.6       0.4       1.3       3.4       0.7
11 O  dz2             0.1       0.1       0.0       0.0       0.1       0.0
12 O  s               0.1       0.0       0.6       0.0       0.3       0.2
12 O  pz              0.2      18.8       0.0       1.7       0.0       7.6
12 O  px              0.5       0.7       0.1       0.1       0.4       0.0
12 O  py              0.1       2.6       0.7       1.3       0.5       1.5
12 O  dyz             0.0       0.1       0.0       0.0       0.0       0.1
13 O  s               1.1       0.3       0.0       0.7       0.0       0.3
13 O  pz              5.9       2.8       8.8       6.0       0.5       2.1
13 O  px              1.1       0.3       3.1       6.3       0.0       0.1
13 O  py              0.1       0.0       0.1       0.3       0.0       1.5
14 H  s               0.6       0.5       3.7       0.1       4.1       0.8
15 H  s               1.7       1.0       0.1       0.2       2.1       1.1
16 H  s               0.6       3.5       2.5       3.0       0.7       0.6
17 H  s               2.2       3.1       0.4       0.3       6.1       0.1
18 H  s               0.1       6.1       0.2       0.6       0.0       2.8
19 H  s               2.2       0.8       3.7       3.5       0.2       0.4

                     24        25        26        27        28        29   
                  -0.42749  -0.42408  -0.40698  -0.39087  -0.38005  -0.36122
                   2.00000   2.00000   2.00000   2.00000   2.00000   2.00000
                  --------  --------  --------  --------  --------  --------
 0 C  s               0.1       0.4       0.4       0.1       0.3       0.1
 0 C  pz             14.9       0.3       9.5       3.2       2.1       0.3
 0 C  px              0.9       4.7       0.5       2.7       0.5       0.3
 0 C  py              0.0       2.7       4.3      16.6       2.0       0.4
 0 C  dz2             0.0       0.0       0.2       0.1       0.0       0.1
 0 C  dyz             0.0       0.0       0.0       0.2       0.0       0.0
 0 C  dx2y2           0.0       0.1       0.0       0.1       0.0       0.1
 0 C  dxy             0.0       0.0       0.2       0.0       0.0       0.0
 1 C  s               0.1       0.1       1.8       0.1       0.2       0.1
 1 C  pz              5.3       0.9       7.1       1.3       0.0       4.9
 1 C  px              2.7       1.0       0.6       2.8       2.4      12.8
 1 C  py              7.9       0.4       1.5       3.6       0.5       1.6
 1 C  dz2             0.0       0.0       0.1       0.1       0.1       0.1
 1 C  dxz             0.0       0.0       0.1       0.2       0.1       0.1
 1 C  dx2y2           0.0       0.0       0.0       0.0       0.1       0.2
 1 C  dxy             0.0       0.0       0.0       0.1       0.1       0.0
 2 H  s               3.4       1.1       1.4       2.6       0.4      10.6
 3 C  s               0.1       1.7       0.3       0.1       0.3       0.1
 3 C  pz              0.3       5.7       3.5       0.1       8.3       1.2
 3 C  px              2.2       6.1       0.1       3.8       8.1       2.0
 3 C  py              0.7       0.2       2.1       0.4       7.2       4.5
 3 C  dz2             0.1       0.1       0.0       0.0       0.1       0.1
 3 C  dyz             0.2       0.1       0.0       0.0       0.0       0.1
 3 C  dx2y2           0.0       0.0       0.0       0.0       0.2       0.1
 3 C  dxy             0.1       0.0       0.2       0.0       0.0       0.0
 4 H  s               0.1       1.4       3.3       0.2       9.9       1.7
 5 C  s               0.8       0.2       0.1       0.2       0.1       0.1
 5 C  pz              0.2       5.4       0.1       0.1       0.2       1.5
 5 C  px              5.2       4.1       1.3       0.7       5.7       3.6
 5 C  py              4.1       4.4       9.4       7.2       1.2       0.1
 5 C  dz2             0.1       0.4       0.0       0.0       0.1       0.0
 5 C  dx2y2           0.0       0.1       0.0       0.0       0.1       0.0
 5 C  dxy             0.1       0.0       0.2       0.0       0.0       0.1
 6 H  s               5.6       1.1       5.0       0.7       2.5       0.5
 7 C  s               1.1       0.1       0.2       1.2       0.2       0.0
 7 C  pz              2.0       0.8       2.6       0.3       0.2       0.0
 7 C  px              0.0       0.9       3.6       0.5       0.6       1.0
 7 C  py              0.0       2.4       0.7       3.1       0.1       0.8
 7 C  dz2             0.1       0.0       0.0       0.1       0.0       0.0
 7 C  dxz             0.1       0.0       0.0       0.2       0.0       0.0
 7 C  dyz             0.0       0.2       0.1       0.0       0.0       0.0
 7 C  dx2y2           0.1       0.0       0.0       0.3       0.0       0.1
 7 C  dxy             0.1       0.0       0.0       0.3       0.1       0.1
 8 H  s               2.3       0.7       0.6       1.6       0.3       0.0
 9 O  s               0.9       0.3       1.3       0.5       0.4       0.1
 9 O  pz              1.2       2.1       2.2       4.3       0.1       0.3
 9 O  px              1.1       6.0       0.1       0.4       0.2       0.6
 9 O  py              1.4       1.3       1.9       6.3       5.7       1.6
10 O  s               0.1       0.4       0.3       1.5       0.1       2.4
10 O  pz              2.0       0.0       4.6       0.0       0.1       1.2
10 O  px              0.0       3.9       0.2       0.6       0.8       3.5
10 O  py              0.6       0.2       0.1       5.3       0.3       6.5
11 O  s               1.2       0.0       0.4       0.1       0.7       1.5
11 O  pz              0.2      11.4       0.3       0.4       0.1       7.3
11 O  px              4.8       2.1       0.2       0.0       2.5       8.9
11 O  py              0.4       0.1       3.9       3.2       0.2       0.0
12 O  s               0.8       0.7       0.2       0.0       2.2       0.0
12 O  pz              1.6       6.1       1.2       0.3       8.2       1.7
12 O  px              0.2       5.1       0.0       1.6       4.4       0.9
12 O  py              2.7       1.0       1.0       0.5      10.3       2.0
13 O  s               0.6       0.2       0.4       0.1       1.2       0.1
13 O  pz              6.8       0.4       5.6       3.4       0.2       5.5
13 O  px              0.1       0.2       4.3       0.2       5.8       2.5
13 O  py              2.2       0.0       0.8       0.6       0.0       0.4
13 O  dxz             0.1       0.0       0.0       0.0       0.0       0.1
14 H  s               5.6       0.0       6.3       1.8       0.5       0.5
15 H  s               1.6       4.0       0.6      10.3       0.0       0.2
16 H  s               0.1       0.1       0.0       2.1       0.2       0.8
17 H  s               0.6       3.0       0.3       0.0       0.2       0.3
18 H  s               1.0       2.6       0.2       0.1       0.1       0.1
19 H  s               0.9       0.0       2.7       1.1       0.6       1.3

                     30        31        32        33        34        35   
                  -0.33249  -0.32617  -0.31254  -0.28899  -0.28156  -0.26897
                   2.00000   2.00000   2.00000   2.00000   2.00000   2.00000
                  --------  --------  --------  --------  --------  --------
 0 C  s               0.1       0.0       0.2       0.1       0.0       0.0
 0 C  pz              0.2       3.5       1.1       2.2       0.0       0.6
 0 C  px              4.0       0.1       0.2       0.4       0.5       0.3
 0 C  py              1.8       0.3       2.4       5.8       0.0       0.3
 0 C  dz2             0.0       0.1       0.0       0.5       0.0       0.1
 0 C  dx2y2           0.1       0.0       0.0       0.0       0.1       0.0
 0 C  dxy             0.1       0.0       0.5       0.2       0.0       0.2
 1 C  s               0.0       0.6       0.7       0.4       0.1       0.1
 1 C  pz              0.6       1.6       0.5       0.1       0.5       0.2
 1 C  px              1.4       0.1       0.0       0.9       4.2       0.6
 1 C  py              0.0       1.2       1.5       2.9       0.9       0.5
 1 C  dz2             0.0       0.2       0.0       0.1       0.1       0.0
 1 C  dxz             0.0       0.1       0.1       0.2       0.4       0.0
 1 C  dx2y2           0.1       0.0       0.1       0.1       0.0       0.0
 1 C  dxy             0.0       0.0       0.0       0.0       0.1       0.0
 2 H  s               1.5       0.0       0.6       2.6       2.6       0.1
 3 C  s               0.1       1.6       0.0       0.0       0.2       0.1
 3 C  pz              0.3       0.3       0.7       0.1       0.6       0.1
 3 C  px              0.4       0.0       3.6       2.4       0.1       0.0
 3 C  py              0.5       1.0       0.1       3.7       7.6       0.2
 3 C  dz2             0.1       0.0       0.1       0.0       0.2       0.0
 3 C  dxz             0.0       0.0       0.0       0.0       0.3       0.0
 3 C  dyz             0.0       0.5       0.1       0.3       0.1       0.0
 3 C  dxy             0.0       0.0       0.0       0.2       0.0       0.0
 4 H  s               0.1       3.2       0.3       5.1       2.2       0.0
 5 C  s               0.3       0.3       0.2       0.1       0.3       0.0
 5 C  pz              0.6       3.5       0.7       0.1       0.3       0.0
 5 C  px              0.2       0.9       2.5       1.9       1.1       0.1
 5 C  py              0.4       0.0       1.0       0.7       0.0       0.0
 5 C  dxz             0.0       0.3       0.1       0.2       0.0       0.0
 5 C  dyz             0.0       0.0       0.2       0.0       0.1       0.1
 5 C  dx2y2           0.0       0.1       0.2       0.0       0.0       0.0
 6 H  s               0.0       2.3       1.6       0.0       0.0       0.2
 7 C  s               0.1       0.0       0.7       0.2       0.0       0.2
 7 C  pz              2.1       0.6       1.5       0.0       0.0       0.7
 7 C  px              2.4       0.0       1.1       0.1       0.0       0.2
 7 C  py              0.4       1.3       0.4       4.3       0.0       0.3
 7 C  dz2             0.0       0.0       0.0       0.1       0.1       0.6
 7 C  dxz             0.0       0.0       0.0       0.1       0.1       0.7
 7 C  dx2y2           0.1       0.1       0.0       0.1       0.0       0.2
 7 C  dxy             0.8       0.0       0.0       0.0       0.0       0.1
 8 H  s               1.2       0.5       0.8       0.8       0.5       2.2
 9 O  s               0.6       0.4       1.9       2.1       0.2       0.1
 9 O  pz              0.1       0.2       0.0      19.1       1.1       5.2
 9 O  px              8.0       0.9       2.6       0.7       1.0       0.2
 9 O  py              0.1       2.3      16.8       5.5       0.2       8.2
10 O  s               5.5       0.0       0.0       0.2       0.0       0.0
10 O  pz              6.8       0.2       0.4       0.2       4.3      50.1
10 O  px             20.4       0.0       1.4       0.8       1.7      11.3
10 O  py             22.6       0.0       1.2       0.1       0.8       1.4
11 O  s               0.0       2.5       2.3       0.5       0.1       0.1
11 O  pz              0.5      10.5       7.1       0.8       1.1       0.2
11 O  px              0.0      14.7       4.5       2.7       0.3       0.5
11 O  py              1.6       0.0      12.5       0.0       4.4       2.5
12 O  s               0.2       2.3       1.2       1.4       2.5       0.1
12 O  pz              0.8       0.1       0.7       0.3       2.6       0.3
12 O  px              0.0       1.0       1.5       1.0      15.9       2.6
12 O  py              2.8       9.4      13.3       7.8       8.2       0.4
13 O  s               0.3       3.2       0.2       0.4       3.9       0.2
13 O  pz              1.0       6.6       0.0       0.5       3.3       0.2
13 O  px              2.4       9.6       2.0       1.5      20.4       0.3
13 O  py              0.0       5.4       0.5       4.8       0.5       5.3
14 H  s               0.2       2.0       0.4       4.6       0.0       0.8
15 H  s               3.2       0.3       3.3       4.6       0.4       0.2
16 H  s               2.2       0.1       0.2       0.5       0.0       0.0
17 H  s               0.2       1.1       1.3       0.5       0.0       0.3
18 H  s               0.0       1.5       0.5       1.2       1.4       0.1
19 H  s               0.1       0.9       0.2       0.6       2.2       0.1

                     36        37        38        39        40        41   
                  -0.25633  -0.23358  -0.22592  -0.20108   0.00366   0.01480
                   2.00000   2.00000   2.00000   2.00000   0.00000   0.00000
                  --------  --------  --------  --------  --------  --------
 0 C  s               0.2       0.4       0.1       0.8       2.5       0.4
 0 C  pz              0.1       0.7       0.4       1.5       3.8       1.3
 0 C  px              0.2       0.2       0.2       1.4       0.4       1.3
 0 C  py              0.3       0.5       0.2       3.5       0.2       0.0
 0 C  dz2             0.1       0.0       0.3       0.2       0.0       0.0
 0 C  dxz             0.2       0.0       0.2       0.1       0.1       0.1
 0 C  dyz             0.0       0.0       0.0       0.0       0.1       0.0
 0 C  dxy             0.0       0.0       0.1       0.1       0.0       0.0
 1 C  s               0.1       0.0       0.7       0.0       0.2       0.0
 1 C  pz              0.1       0.3       0.6       0.1       0.1       0.6
 1 C  px              0.2       2.0       2.2       0.0       0.3       0.1
 1 C  py              1.3       0.2       0.0       7.4       0.1       0.1
 1 C  dz2             0.0       0.0       0.1       0.0       0.1       0.1
 1 C  dxz             0.0       0.3       0.1       0.1       0.0       0.0
 1 C  dyz             0.3       0.1       0.0       1.0       0.1       0.0
 1 C  dx2y2           0.0       0.0       0.1       0.0       0.0       0.1
 1 C  dxy             0.0       0.0       0.0       0.3       0.1       0.0
 2 H  s               0.2       1.9       1.4       0.2       0.5       1.2
 3 C  s               0.1       0.1       0.1       0.4       0.2       0.0
 3 C  pz              0.0       0.1       0.0       0.3       2.8       0.6
 3 C  px              0.0       1.0       3.9       2.0       0.0       0.3
 3 C  py              0.1       0.2       0.0       2.7       0.3       0.0
 3 C  dz2             0.0       0.0       0.0       0.1       0.7       0.2
 3 C  dxz             0.4       0.0       0.7       0.1       0.0       0.1
 3 C  dyz             0.1       0.0       0.0       0.1       0.0       0.2
 3 C  dx2y2           0.1       0.0       0.3       0.0       0.0       0.1
 3 C  dxy             0.1       0.1       0.0       0.2       0.0       0.0
 4 H  s               0.1       0.1       1.7       0.7       0.4       0.2
 5 C  s               1.2       0.2       0.0       0.4       0.1       0.1
 5 C  pz              0.7       0.2       0.1       0.2       0.6       3.2
 5 C  px              0.1       1.3       6.7       0.2       0.1       0.3
 5 C  py              0.0       3.7       4.1       0.8       0.1       0.5
 5 C  dz2             0.1       0.0       0.0       0.0       0.2       0.8
 5 C  dxz             0.0       0.2       0.0       0.0       0.1       0.0
 5 C  dyz             0.2       1.0       0.0       0.0       0.1       0.0
 5 C  dx2y2           0.0       0.0       0.0       0.0       0.1       0.1
 5 C  dxy             0.0       0.2       0.0       0.1       0.0       0.0
 6 H  s               1.2       6.6       0.0       1.2       0.2       2.2
 7 C  s               0.1       0.5       0.1       0.0       1.6       0.8
 7 C  pz              0.5       1.0       2.2       0.1       2.6       3.5
 7 C  px              0.0       0.6       0.3       0.0       2.2       1.1
 7 C  py              0.3       2.2       1.4       0.5       0.3       0.5
 7 C  dz2             0.5       0.1       0.5       0.1       0.0       0.1
 7 C  dxz             0.0       0.0       0.0       0.0       0.3       0.2
 7 C  dyz             0.2       0.0       0.3       0.1       0.0       0.2
 7 C  dx2y2           0.0       0.0       0.3       0.1       0.1       0.0
[...]
11 O  dz2             0.0       0.1       0.2       0.5       1.0      27.3
11 O  dxz             9.7       0.2       0.4       7.5       0.2       0.0
11 O  dyz             4.2       1.7       0.6       0.4       1.9       0.1
11 O  dx2y2           2.7       0.1       0.3       1.0       0.2       0.1
11 O  dxy             4.4       0.9       1.3       0.8       0.1       0.2
12 O  s               0.3       0.3       0.0       0.0       0.0       0.1
12 O  pz              0.2       0.0       0.0       0.0       0.0       0.3
12 O  px              0.0       0.0       0.0       0.2       0.0       0.0
12 O  py              0.2       0.1       0.0       0.1       0.0       0.0
12 O  dz2             2.8       1.4       0.3       0.4       0.4       2.9
12 O  dxz             7.1       1.3       0.4      11.8       0.1       0.1
12 O  dyz            18.2       6.6       0.9       3.9       0.2       1.1
12 O  dx2y2           4.0       2.0       0.1       1.3       0.0       0.0
12 O  dxy             2.8       2.0       0.3       1.7       0.0       0.0
13 O  s               0.2       1.2       0.0       0.2       0.0       0.0
13 O  px              0.2       0.4       0.0       0.2       0.0       0.0
13 O  py              0.0       0.3       0.0       0.1       0.0       0.0
13 O  dz2             1.2       3.5       0.0       0.5       0.2       1.1
13 O  dxz             3.5      23.4       0.1       8.7       0.2       0.1
13 O  dyz             5.4       5.0       1.2      15.3       0.5       0.1
13 O  dx2y2           3.0      12.1       0.3       7.8       0.1       0.0
13 O  dxy             0.0       4.7       0.2       0.0       0.0       0.0
16 H  s               0.0       0.4       0.7       0.1       0.4       0.3
17 H  s               1.2       0.1       0.1       0.2       0.0       0.4
18 H  s               3.1       1.2       0.0       0.0       0.0       0.0
19 H  s               0.7       3.4       0.0       1.7       0.0       0.0

                    156       157       158       159   
                   3.28904   3.31487   3.35151   3.40468
                   0.00000   0.00000   0.00000   0.00000
                  --------  --------  --------  --------
 0 C  s               0.1       0.0       0.0       1.2
 0 C  pz              0.0       0.1       0.0       0.1
 0 C  px              0.1       0.0       0.1       1.7
 0 C  dz2             0.1       0.0       0.1       0.5
 0 C  dxz             0.2       0.0       0.3       0.8
 0 C  dx2y2           0.2       0.0       0.3       2.7
 0 C  dxy             0.2       0.1       0.2       0.0
 1 C  s               0.1       1.9       0.5       0.0
 1 C  pz              0.0       2.7       1.0       0.0
 1 C  px              0.0       0.2       0.1       0.1
 1 C  dz2             0.1       7.1       3.0       0.0
 1 C  dxz             0.2       0.8       0.1       0.0
 1 C  dyz             0.2       0.8       0.1       0.0
 3 C  s               1.4       0.1       1.0       0.0
 3 C  pz              1.3       0.2       2.0       0.0
 3 C  py              0.2       0.0       0.2       0.0
 3 C  dz2             4.1       0.3       4.7       0.1
 3 C  dxz             0.5       0.6       0.0       0.1
 3 C  dyz             1.6       0.9       0.8       0.0
 3 C  dxy             0.1       0.0       0.0       0.0
 4 H  s               0.1       0.0       0.1       0.0
 5 C  s               0.6       0.3       0.5       0.0
 5 C  pz              0.4       0.7       1.1       0.0
 5 C  py              0.1       0.0       0.1       0.1
 5 C  dz2             2.0       2.2       3.4       0.1
 5 C  dxz             0.2       0.0       0.2       0.1
 5 C  dxy             0.2       0.0       0.0       0.0
 7 C  s               0.9       0.1       0.2       0.3
 7 C  pz              0.2       0.1       0.0       0.0
 7 C  px              0.8       0.1       0.1       2.7
 7 C  py              0.0       0.0       0.0       0.9
 7 C  dz2             0.4       0.0       0.0       0.3
 7 C  dxz             0.9       0.1       0.1       2.4
 7 C  dyz             0.1       0.1       0.2       0.0
 7 C  dx2y2           2.9       0.2       1.1       1.7
 7 C  dxy             0.1       0.0       0.0       6.0
 9 O  px              0.0       0.0       0.0       4.6
 9 O  py              0.1       0.0       0.1       1.2
 9 O  dz2             0.3       0.1       0.1       0.4
 9 O  dxz             0.4       0.0       0.4      10.4
 9 O  dyz             0.2       0.0       0.0       1.5
 9 O  dx2y2           5.3       0.2       3.4      20.2
 9 O  dxy             0.3       0.1       0.7      20.8
10 O  s               1.6       0.2       0.2       1.0
10 O  pz              0.2       0.0       0.0       0.1
10 O  px              1.0       0.1       0.1       0.8
10 O  py              0.3       0.0       0.0       0.0
10 O  dz2             0.7       0.2       0.0       1.4
10 O  dxz             7.0       0.6       1.0       4.4
10 O  dyz             0.5       0.0       0.1       0.0
10 O  dx2y2           7.9       0.6       0.6       8.8
10 O  dxy             3.5       0.4       1.0       0.2
11 O  s               0.8       1.0       1.6       0.1
11 O  pz              0.8       0.7       1.2       0.0
11 O  px              0.0       0.2       0.2       0.0
11 O  dz2            10.5      11.0      15.0       0.4
11 O  dxz             0.4       0.1       0.7       0.1
11 O  dx2y2           0.1       0.0       0.0       0.1
12 O  s               1.6       0.2       3.2       0.0
12 O  pz              2.1       0.3       2.1       0.0
12 O  dz2            21.2       2.9      16.9       0.2
12 O  dxz             0.1       1.6       0.9       0.0
12 O  dyz             8.9       0.2       9.6       0.1
12 O  dx2y2           0.0       0.1       0.2       0.0
12 O  dxy             0.1       0.1       0.1       0.0
13 O  s               0.0       3.0       1.3       0.1
13 O  pz              0.1       3.4       1.1       0.0
13 O  dz2             1.6      42.6      10.9       0.1
13 O  dxz             0.0       7.9       2.6       0.1
13 O  dyz             0.1       0.6       1.8       0.0
13 O  dxy             0.1       0.1       0.2       0.0
16 H  s               0.1       0.0       0.0       0.2
17 H  s               0.1       0.1       0.2       0.0
18 H  s               0.4       0.0       0.2       0.0
19 H  s               0.0       0.7       0.2       0.0


                      *****************************
                      * MAYER POPULATION ANALYSIS *
                      *****************************

  NA   - Mulliken gross atomic population
  ZA   - Total nuclear charge
  QA   - Mulliken gross atomic charge
  VA   - Mayer's total valence
  BVA  - Mayer's bonded valence
  FA   - Mayer's free valence

  ATOM       NA         ZA         QA         VA         BVA        FA
  0 C      5.9669     6.0000     0.0331     3.9579     3.9579    -0.0000
  1 C      5.9650     6.0000     0.0350     4.0726     4.0726    -0.0000
  2 H      0.9217     1.0000     0.0783     0.9628     0.9628    -0.0000
  3 C      5.9684     6.0000     0.0316     4.0037     4.0037    -0.0000
  4 H      0.9043     1.0000     0.0957     0.9701     0.9701    -0.0000
  5 C      5.9309     6.0000     0.0691     3.8643     3.8643     0.0000
  6 H      0.9191     1.0000     0.0809     0.9666     0.9666     0.0000
  7 C      5.8683     6.0000     0.1317     4.2198     4.2198     0.0000
  8 H      0.9649     1.0000     0.0351     0.9777     0.9777    -0.0000
  9 O      8.3140     8.0000    -0.3140     2.1544     2.1544     0.0000
 10 O      8.3911     8.0000    -0.3911     2.0637     2.0637    -0.0000
 11 O      8.4262     8.0000    -0.4262     2.0472     2.0472    -0.0000
 12 O      8.4095     8.0000    -0.4095     2.0179     2.0179     0.0000
 13 O      8.4267     8.0000    -0.4267     2.0081     2.0081    -0.0000
 14 H      0.9496     1.0000     0.0504     0.9704     0.9704    -0.0000
 15 H      0.8929     1.0000     0.1071     0.9704     0.9704     0.0000
 16 H      0.6864     1.0000     0.3136     0.8914     0.8914     0.0000
 17 H      0.6904     1.0000     0.3096     0.9107     0.9107     0.0000
 18 H      0.7042     1.0000     0.2958     0.9011     0.9011     0.0000
 19 H      0.6993     1.0000     0.3007     0.9366     0.9366    -0.0000

  Mayer bond orders larger than 0.100000
B(  0-C ,  1-C ) :   1.0292 B(  0-C ,  9-O ) :   1.0054 B(  0-C , 14-H ) :   0.8910 
B(  0-C , 15-H ) :   0.9183 B(  1-C ,  2-H ) :   0.8960 B(  1-C ,  3-C ) :   0.9861 
B(  1-C , 13-O ) :   1.0659 B(  3-C ,  4-H ) :   0.8986 B(  3-C ,  5-C ) :   0.9820 
B(  3-C , 12-O ) :   1.0460 B(  5-C ,  6-H ) :   0.8868 B(  5-C ,  7-C ) :   0.9648 
B(  5-C , 11-O ) :   1.0110 B(  7-C ,  8-H ) :   0.8919 B(  7-C ,  9-O ) :   1.0354 
B(  7-C , 10-O ) :   1.1589 B( 10-O , 16-H ) :   0.8362 B( 11-O , 17-H ) :   0.8169 
B( 11-O , 19-H ) :   0.1040 B( 12-O , 18-H ) :   0.8417 B( 13-O , 19-H ) :   0.8101 


-------
TIMINGS
-------

Total SCF time: 0 days 0 hours 0 min 2 sec 

Total time                  ....       2.063 sec
Sum of individual times     ....       2.046 sec  ( 99.2%)

SCF preparation             ....       0.039 sec  (  1.9%)
Fock matrix formation       ....       1.881 sec  ( 91.2%)
  Startup                   ....       0.002 sec  (  0.1% of F)
  Split-RI-J                ....       0.917 sec  ( 48.8% of F)
  XC integration            ....       0.957 sec  ( 50.9% of F)
    Basis function eval.    ....       0.382 sec  ( 39.9% of XC)
    Density eval.           ....       0.239 sec  ( 24.9% of XC)
    XC-Functional eval.     ....       0.057 sec  (  6.0% of XC)
    XC-Potential eval.      ....       0.244 sec  ( 25.5% of XC)
Diagonalization             ....       0.000 sec  (  0.0%)
Density matrix formation    ....       0.003 sec  (  0.2%)
Total Energy calculation    ....       0.000 sec  (  0.0%)
Population analysis         ....       0.100 sec  (  4.8%)
Orbital Transformation      ....       0.004 sec  (  0.2%)
Orbital Orthonormalization  ....       0.000 sec  (  0.0%)
DIIS solution               ....       0.007 sec  (  0.3%)
  MO trafo                  ....       0.000 sec  (  0.0 % of DIIS)
  Orb grad                  ....       0.000 sec  (  0.0 % of DIIS)
  Energy W gradient         ....       0.000 sec  (  0.0 % of DIIS)
  DIIS error                ....       0.001 sec  ( 10.2 % of DIIS)
  DIIS work                 ....       0.006 sec  ( 88.8 % of DIIS)
  Form Q                    ....       0.000 sec  (  0.0 % of DIIS)
  Form QpQm                 ....       0.000 sec  (  0.0 % of DIIS)
  Exp/Cayley                ....       0.000 sec  (  0.0 % of DIIS)
  Orb update                ....       0.000 sec  (  0.0 % of DIIS)
  Wake-sleep                ....       0.000 sec  (  1.0 % of DIIS)
SOSCF solution              ....       0.011 sec  (  0.6%)
  MO trafo                  ....       0.007 sec  ( 64.1 % of SOSCF)
  Orb grad                  ....       0.000 sec  (  0.8 % of SOSCF)
  Rot update                ....       0.000 sec  (  2.3 % of SOSCF)
  Step                      ....       0.004 sec  ( 31.4 % of SOSCF)
Finished LeanSCF after   2.1 sec

Maximum memory used throughout the entire LEANSCF-calculation: 15.5 MB


-------------------------------------------------------------------------------
                          DFT DISPERSION CORRECTION                            
                                                                               
                                DFTD4 V3.4.0                                   
-------------------------------------------------------------------------------
The PBE functional is recognized
Active option DFTDOPT                   ...         5   

-------------------------   ----------------
Dispersion correction           -0.019912808
-------------------------   ----------------

------------------   -----------------
gCP correction             0.130570815
------------------   -----------------

-------------------------   --------------------
FINAL SINGLE POINT ENERGY      -571.418264891354
-------------------------   --------------------


------------------------------------------------------------------------------
                              ORCA PROPERTY CALCULATIONS
------------------------------------------------------------------------------

GBWName                                 ... sp.gbw
Number of atoms                         ...     20
Number of basis functions               ...    160
Max core memory                         ...   1024 MB

Electric properties:
Dipole moment                           ... YES
Quadrupole moment                       ...  NO
Static polarizability (Dipole/Dipole)   ...  NO
Static polarizability (Dipole/Quad.)    ...  NO
Static polarizability (Quad./Quad.)     ...  NO
Static polarizability (Velocity)        ...  NO

Atomic electric properties:
Dipole moment                           ...  NO
Quadrupole moment                       ...  NO
Static polarizability                   ...  NO

Choice of electric origin               ... Center of mass
Position of electric origin             ...     0.000006     0.000001    -0.000009

General magnetic properties:
Magnetizability                         ...  NO

EPR properties:
g-Tensor (aka g-matrix)                 ...  NO
Zero-Field splitting spin-orbit         ...  NO
Zero-field splitting spin-spin          ...  NO
Hyperfine couplings                     ...  NO (   0 nuclei)
Quadrupole couplings                    ...  NO (   0 nuclei)
Contact density                         ...  NO (   0 nuclei)

NMR properties:
Chemical shifts                         ...  NO (   0 nuclei)
Spin-rotation constants                 ...  NO (   0 nuclei)
Spin-spin couplings                     ...  NO (   0 nuclei,    0 pairs)

Choice of magnetic origin               ... GIAO
Position of magnetic origin             ...     0.000000     0.000000     0.000000

Properties with geometric perturbations:
SCF Hessian                             ...  NO
IR spectrum                             ...  NO
VCD spectrum                            ...  NO
X-ray spectroscopy properties:
SCF XES/XAS/RIXS spectra                ...  NO


-------------
DIPOLE MOMENT
-------------

Method             : SCF
Type of density    : Electron Density
Multiplicity       :   1
Irrep              :   0
Energy             :  -571.5289228980558391 Eh
Relativity type    : 
Basis              : AO
                                X                 Y                 Z
Electronic contribution:     -1.470744093       0.025795887       1.845815998
Nuclear contribution   :      0.579435197       0.699698466      -2.490252881
                        -----------------------------------------
Total Dipole Moment    :     -0.891308896       0.725494353      -0.644436883
                        -----------------------------------------
Magnitude (a.u.)       :      1.317601040
Magnitude (Debye)      :      3.349075689



--------------------
Rotational spectrum 
--------------------
 
Rotational constants in cm-1:             0.058467             0.040651             0.038193 
Rotational constants in MHz :          1752.785770          1218.672347          1144.993793 

Dipole components along the rotational axes: 
x,y,z [a.u.] :     0.975054     0.161412    -0.871372 
x,y,z [Debye]:     2.478389     0.410276    -2.214851 

 

Dipole moment calculation done in   0.0 sec 

Maximum memory used throughout the entire PROP-calculation: 10.2 MB

--------------------------------
SUGGESTED CITATIONS FOR THIS RUN
--------------------------------

Below you find a list of papers that are relevant to this ORCA run
We neither can nor want to force you to cite these papers, but we appreciate if you do
You receive ORCA, which is the product of decades of hard work by many enthusiastic individuals, for free
The only thing we kindly ask in return is that you cite our papers,
We deeply appreciate it, if you show your appreciation for ORCA by not just citing the generic ORCA reference.

Please note that relegating all ORCA citations to the supporting information does *not* help us.
SI sections are not indexed - citations you put there will not count into any citation statistics
But we need these citations in order to attract the funding resources that allow us to do what we are doing

Therefore, if you are a happy ORCA user, please consider citing a few of the papers listed below in the main body of your paper

In addition to the list printed below, the program has created the file sp.bibtex that contains the list in bibtex format
You can import this file easily into all common literature databanks and citation aid programs


List of essential papers. We consider these as the minimum necessary citations

  1. Neese,F.
     Software update: the ORCA program system, version 5.0
     WIRES Comput. Molec. Sci., 2022 12(1)e1606
     doi.org/10.1002/wcms.1606

List of papers to cite with high priority. The work reported in these papers was absolutely
necessary for this run to complete.
Our perspective: the developers of density functionals and basis sets usually get cited in chemistry papers
Good! But without the algorithms to do something with them, the functionals or basis sets would not do anything.
Hence, in our opinion, the algorithm design and method developments papers are equally worthy of getting cited

  1. Neese,F.
     An improvement of the resolution of the identity approximation for the formation of the Coulomb matrix
     J. Comp. Chem., 2003 24(14)1740-1747
     doi.org/10.1002/jcc.10318
  2. Neese,F.
     The SHARK Integral Generation and Digestion System
     J. Comp. Chem., 2022  1-16
     doi.org/10.1002/jcc.26942
  3. Caldeweyher,E.; Bannwarth,C.; Grimme,S.
     Extension of the D3 dispersion coefficient model
     J. Chem. Phys., 2017 147 034112
     doi.org/10.1063/1.4993215
  4. Caldeweyher,E.; Ehlert,S.; Hansen,A.; Neugebauer,H.; Spicher,S.; Bannwarth,C.; Grimme,S.
     A generally applicable atomic-charge dependent London dispersion correction
     J. Chem. Phys., 2019 150 154122
     doi.org/10.1063/1.5090222
  5. Caldeweyher,E.; Mewes,J.; Ehlert,S.; Grimme,S.
     Extension and evaluation of the D4 London-dispersion model for periodic systems
     Phys. Chem. Chem. Phys., 2020 22(16)8499-8512
     doi.org/10.1039/D0CP00502A
  6. Wittmann,L.; Gordiy,I.; Friede,M.; Helmich-Paris,B.; Grimme,S.; Hansen,A.; Bursch,M.
     Extension of the D3 and D4 London Dispersion Corrections to the full Actinides Series
     Phys. Chem. Chem. Phys., 2024 26(32)21379-21394
     doi.org/https://doi.org/10.1039/D4CP01514B 

List of suggested additional citations. These are papers that are important in the 'surrounding' of 
of this run, or papers that preceded the highly important papers. If you like your results we are grateful for a citation.

  1. Neese,F.
     The ORCA program system
     WIRES Comput. Molec. Sci., 2012 2(1)73-78
     doi.org/10.1002/wcms.81
  2. Neese,F.
     Software update: the ORCA program system, version 4.0
     WIRES Comput. Molec. Sci., 2018 8(1)1-6
     doi.org/10.1002/wcms.1327
  3. Neese,F.; Wennmohs,F.; Becker,U.; Riplinger,C.
     The ORCA quantum chemistry program package
     J. Chem. Phys., 2020 152 Art. No. L224108
     doi.org/10.1063/5.0004608

List of optional additional citations

  1. Neese,F.
     Approximate second-order SCF convergence for spin unrestricted wavefunctions
     Chem. Phys. Lett., 2000 325(1-3)93-98
     doi.org/10.1016/s0009-2614(00)00662-x

Timings for individual modules:

Sum of individual times          ...        2.699 sec (=   0.045 min)
Startup calculation              ...        0.486 sec (=   0.008 min)  18.0 %
SCF iterations                   ...        2.157 sec (=   0.036 min)  79.9 %
Property calculations            ...        0.057 sec (=   0.001 min)   2.1 %
                             ****ORCA TERMINATED NORMALLY****
TOTAL RUN TIME: 0 days 0 hours 0 minutes 2 seconds 831 msec
