6
 energy: -115.693087841330 gnorm: 0.015216313438 xtb: 6.7.1 (41059b4)
C            0.72219613272002        0.06678201372959        0.00000029330000
O           -0.68885840700525       -0.01121477470497       -0.00000099050000
H            1.19526397472965       -0.91535724250562        0.00176735660078
H            1.04927296526496        0.61539763127270        0.88739591599323
H            1.04964294096512        0.61241166557138       -0.88912265309399
H           -0.96555258932786       -0.93026046761222       -0.00002839200001
6
 energy: -115.693343180526 gnorm: 0.005470826365 xtb: 6.7.1 (41059b4)
C            0.71888261684193        0.06990817341141       -0.00000708388694
O           -0.70262252135339       -0.01304018472776        0.00008222642244
H            1.19898535720398       -0.91427648683488        0.00179164341950
H            1.05783413624214        0.61625956099643        0.88814520373713
H            1.05818923502676        0.61324315868446       -0.88990054469806
H           -0.96930380569508       -0.93433539298058       -0.00009991720709
6
 energy: -115.693375198036 gnorm: 0.002284903293 xtb: 6.7.1 (41059b4)
C            0.71930122523399        0.07085890483724        0.00000566739773
O           -0.70672782300197       -0.01159125973241        0.00019117647400
H            1.19777006281840       -0.91604844878532        0.00183168466445
H            1.05862600290741        0.61648890470210        0.88949580738502
H            1.05891187213201        0.61340509719174       -0.89129072019806
H           -0.96591632396209       -0.93535437305816       -0.00022208989461
6
 energy: -115.693381439630 gnorm: 0.000769195302 xtb: 6.7.1 (41059b4)
C            0.72005040267380        0.07109131716319        0.00002632793070
O           -0.70799910320073       -0.01052812966527        0.00033165903429
H            1.19604540667652       -0.91692799600317        0.00188173910867
H            1.05831301131252        0.61644591223221        0.88977744269071
H            1.05850486180181        0.61327706018659       -0.89162237212703
H           -0.96294956538121       -0.93559934123178       -0.00038327258261
6
 energy: -115.693381967236 gnorm: 0.000242102888 xtb: 6.7.1 (41059b4)
C            0.72065233770967        0.07106803928266        0.00005752384211
O           -0.70806433214953       -0.01017437247052        0.00054727533292
H            1.19497028017634       -0.91709126490401        0.00195733069314
H            1.05800374879348        0.61642216176997        0.88963724004908
H            1.05805625660768        0.61312629131896       -0.89155819829309
H           -0.96165327844849       -0.93559203318320       -0.00062964824632
6
 energy: -115.693381967236 gnorm: 0.000242102888 xtb: 6.7.1 (41059b4)
C            0.72065233770967        0.07106803928266        0.00005752384211
O           -0.70806433214953       -0.01017437247052        0.00054727533292
H            1.19497028017634       -0.91709126490401        0.00195733069314
H            1.05800374879348        0.61642216176997        0.88963724004908
H            1.05805625660768        0.61312629131896       -0.89155819829309
H           -0.96165327844849       -0.93559203318320       -0.00062964824632
