
                                 *****************
                                 * O   R   C   A *
                                 *****************

                                            #,                                       
                                            ###                                      
                                            ####                                     
                                            #####                                    
                                            ######                                   
                                           ########,                                 
                                     ,,################,,,,,                         
                               ,,#################################,,                 
                          ,,##########################################,,             
                       ,#########################################, ''#####,          
                    ,#############################################,,   '####,        
                  ,##################################################,,,,####,       
                ,###########''''           ''''###############################       
              ,#####''   ,,,,##########,,,,          '''####'''          '####       
            ,##' ,,,,###########################,,,                        '##       
           ' ,,###''''                  '''############,,,                           
         ,,##''                                '''############,,,,        ,,,,,,###''
      ,#''                                            '''#######################'''  
     '                                                          ''''####''''         
             ,#######,   #######,   ,#######,      ##                                
            ,#'     '#,  ##    ##  ,#'     '#,    #''#        ,####,   ,####,        
            ##       ##  ##   ,#'  ##            #'  '#       #'       #'  '#        
            ##       ##  #######   ##           ,######,      #####,   #    #        
            '#,     ,#'  ##    ##  '#,     ,#' ,#      #,     #,   #   #,  ,#        
             '#######'   ##     ##  '#######'  #'      '#     '####' # '####'        



                #########################################################
                #                        -***-                          #
                #          Department of theory and spectroscopy        #
                #                                                       #
                #                      Frank Neese                      #
                #                                                       #
                #     Directorship, Architecture, Infrastructure        #
                #                    SHARK, DRIVERS                     #
                #        Core code/Algorithms in most modules           #
                #                                                       #
                #        Max Planck Institute fuer Kohlenforschung      #
                #                Kaiser Wilhelm Platz 1                 #
                #                 D-45470 Muelheim/Ruhr                 #
                #                      Germany                          #
                #                                                       #
                #                  All rights reserved                  #
                #                        -***-                          #
                #########################################################


                         Program Version 6.0.1  -  RELEASE   -


 With contributions from (in alphabetic order):
[Max-Planck-Institut fuer Kohlenforschung]                               
  Daniel Aravena         : Magnetic Suceptibility                        
  Michael Atanasov       : Ab Initio Ligand Field Theory (pilot matlab implementation)
  Alexander A. Auer      : GIAO ZORA, VPT2 properties, NMR spectrum      
  Ute Becker             : All parallelization in ORCA, NUMFREQ, NUMCALC 
  Giovanni Bistoni       : ED, misc. LED, open-shell LED, HFLD           
  Martin Brehm           : Molecular dynamics                            
  Dmytro Bykov           : pre 5.0 version of the SCF Hessian            
  Marcos Casanova-Páez   : Triplet and SCS-CIS(D). UHF-(DLPNO)-IP/EA/STEOM-CCSD. UHF-CVS-IP/STEOM-CCSD   
  Vijay G. Chilkuri      : MRCI spin determinant printing, contributions to CSF-ICE 
  Pauline Colinet        : FMM embedding                                 
  Dipayan Datta          : RHF DLPNO-CCSD density                        
  Achintya Kumar Dutta   : EOM-CC, STEOM-CC                              
  Nicolas Foglia         : Exact transition moments, OPA infrastructure, MCD improvements    
  Dmitry Ganyushin       : Spin-Orbit,Spin-Spin,Magnetic field MRCI      
  Miquel Garcia-Rates    : C-PCM and meta-GGA Hessian, CCSD/C-PCM, Gaussian charge scheme 
  Tiago L. C. Gouveia    : GS-ROHF, GS-ROCIS                             
  Yang Guo               : DLPNO-NEVPT2, F12-NEVPT2, CIM, IAO-localization        
  Andreas Hansen         : Spin unrestricted coupled pair/coupled cluster methods 
  Ingolf Harden          : AUTO-CI MPn and infrastructure                
  Benjamin Helmich-Paris : MC-RPA, TRAH-(SCF,CASSCF), AVAS, COSX integrals, SCF dyn. polar. 
  Lee Huntington         : MR-EOM, pCC                                   
  Robert Izsak           : Overlap fitted RIJCOSX, COSX-SCS-MP3, EOM     
  Riya Kayal             : Wick's Theorem for AUTO-CI, AUTO-CI UHF-CCSDT 
  Emily Kempfer          : AUTO-CI, RHF CISDT and CCSDT                  
  Christian Kollmar      : KDIIS, OOCD, Brueckner-CCSD(T), CCSD density, CASPT2, CASPT2-K, improved NEVPT2 
  Axel Koslowski         : Symmetry handling                             
  Simone Kossmann        : meta-GGA functionals, TD-DFT gradient, OOMP2, (MP2 Hessian; deprecated post 5.0) 
  Lucas Lang             : DCDCAS                                        
  Marvin Lechner         : AUTO-CI (C++ implementation), FIC-MRCC        
  Spencer Leger          : CASSCF response                               
  Dagmar Lenk            : GEPOL surface, SMD, ORCA-2-JSON               
  Dimitrios Liakos       : Extrapolation schemes; Compound Job, initial MDCI parallelization 
  Dimitrios Manganas     : Further ROCIS development; embedding schemes. LFT, Crystal Embedding 
  Dimitrios Pantazis     : SARC Basis sets                               
  Anastasios Papadopoulos: AUTO-CI, single reference methods and gradients 
  Taras Petrenko         : pre 6.0 DFT Hessian and TD-DFT gradient, (ASA, deprecated), ECA, 1-Electron XAS/XES, NRVS 
  Peter Pinski           : DLPNO-MP2, DLPNO-MP2 Gradient                 
  Christoph Reimann      : Effective Core Potentials                     
  Marius Retegan         : Local ZFS, SOC                                
  Christoph Riplinger    : Optimizer, TS searches, QM/MM, DLPNO-CCSD(T), (RO)-DLPNO pert. Triples 
  Michael Roemelt        : Original ROCIS implementation                 
  Masaaki Saitow         : Open-shell DLPNO-CCSD energy and density      
  Barbara Sandhoefer     : DKH picture change effects                    
  Kantharuban Sivalingam : CASSCF convergence/infrastructure, NEVPT2 and variants, FIC-MRCI 
  Bernardo de Souza      : ESD, SOC TD-DFT                               
  Georgi L. Stoychev     : AutoAux, RI-MP2 NMR, DLPNO-MP2 response, X2C  
  Van Anh Tran           : RI-MP2 g-tensors                              
  Willem Van den Heuvel  : Paramagnetic NMR                              
  Zikuan Wang            : NOTCH, Electric field optimization            
  Frank Wennmohs         : Technical directorship and infrastructure     
  Hang Xu                : AUTO-CI-Response properties                   
                                                                         
[FACCTs GmbH]                                                            
  Markus Bursch, Miquel Garcia-Rates, Christoph Riplinger, Bernardo de Souza, Georgi L. Stoychev 
                                                                 
  APM, Basis sets (HGBS, AHGBS, def-TZVP (Ac-Lr), def2-XVPD (La-Lu)), CI-OPT, improved COSX, DLPNO-Multilevel,           
  DOCKER, DRACO, updates on ESD, GOAT, IRC, LR-CPCM, MBIS, meta-GGA TD-DFT gradient, ML-optimized integration grids, 
  MM, NACMEs, nearIR, NEB, NEB-TS, NL-DFT gradient (VV10), 2- and 3-layer-ONIOM, interface openCOSMO-RS, QMMM,   
  Crystal-QMMM, SF, symmetry and pop. for TD-DFT, r2SCAN hybrids, SOLVATOR                                   
                                                                         
[Other institutions]                                                     
  V. Asgeirsson          : NEB                                           
  Christoph Bannwarth    : sTDA-DFT, sTD-DFT, PBEh-3c, B97-3c, D3        
  Sebastian Ehlert       : rSCAN, r2SCAN, r2SCAN-3c, D4, dhf basis sets  
  Marvin Friede          : D4 for Fr, Ra, Ac-Lr                          
  Lars Goerigk           : TD-DFT with DH, B97 family of functionals     
  Stefan Grimme          : VdW corrections, initial TS optimization, DFT functionals, gCP, sTDA/sTD-DF 
  Waldemar Hujo          : DFT-NL                                        
  H. Jonsson             : NEB                                           
  Holger Kruse           : gCP                                           
  Marcel Mueller         : wB97X-3c, vDZP basis set                      
  Hagen Neugebauer       : wr2SCAN                                       
  Tobias Risthaus        : range-separated hybrid DFT                    
  Lukas Wittmann         : regularized MP2, r2SCAN double-hybrids, wr2SCAN        
                                                                         
We gratefully acknowledge several colleagues who have allowed us to      
interface, adapt or use parts of their codes:                            
  Ed Valeev, F. Pavosevic, A. Kumar             : LibInt (2-el integral package), F12 methods 
  Garnet Chan, S. Sharma, J. Yang, R. Olivares  : DMRG                   
  Ulf Ekstrom                                   : XCFun DFT Library      
  Mihaly Kallay                                 : mrcc  (arbitrary order and MRCC methods)
  Frank Weinhold                                : gennbo (NPA and NBO analysis)           
  Simon Mueller                                 : openCOSMO-RS                            
  Christopher J. Cramer and Donald G. Truhlar   : smd solvation model                     
  S Lehtola, MJT Oliveira, MAL Marques          : LibXC Library                           
  Liviu Ungur et al                             : ANISO software                          


 Your calculation uses the libint2 library for the computation of 2-el integrals
 For citations please refer to: http://libint.valeyev.net

 Your ORCA version has been built with support for libXC version: 6.2.2
 For citations please refer to: https://libxc.gitlab.io

 This ORCA versions uses:
   CBLAS   interface :  Fast vector & matrix operations
   LAPACKE interface :  Fast linear algebra routines
   SCALAPACK package :  Parallel linear algebra routines
   Shared memory     :  Shared parallel matrices
   BLAS/LAPACK       :  OpenBLAS 0.3.27  USE64BITINT DYNAMIC_ARCH NO_AFFINITY Zen SINGLE_THREADED
        Core in use  :  Zen
   Copyright (c) 2011-2014, The OpenBLAS Project


Your calculation utilizes the geometrical counterpoise correction gCP
Please cite in your paper:
H.Kruse, S. Grimme J.Chem.Phys., 136, (2012), 154101 
   

Your calculation utilizes the atom-pairwise dispersion correction
based on EEQ partial charges (D4)


================================================================================

----- Orbital basis set information -----
Your calculation utilizes the basis: def2-mTZVPP
   Stefan Grimme, Andreas Hansen, Sebastian Ehlert, and Jan-Michael Mewes 
   J. Chem. Phys. 154, 064103 (2021). DOI: 10.1063/5.0040021

----- AuxJ basis set information -----
Your calculation utilizes the auxiliary basis: def2/J
   F. Weigend, Phys. Chem. Chem. Phys. 8, 1057 (2006).

================================================================================
                                        WARNINGS
                       Please study these warnings very carefully!
================================================================================

WARNING: Old DensityContainer found on disk!
         Will remove this file - 
         If you want to keep old densities, please start your calculation with a different basename. 



WARNING: SCAN, rSCAN, or r2SCAN functional requested.
  ===> : libXC variant has now been activated.



================================================================================
                                       INPUT FILE
================================================================================
NAME = sp.inp
|  1> ! r2scan-3c def2/J RI DEFGRID2 scfconv6 printgap
|  2> %output
|  3>     printlevel normal
|  4> end
|  5> * xyz 0 1
|  6> C 0.5836319392 1.7072336875 0.0139447701
|  7> C 1.3961138216 0.4267957694 -0.2454279902
|  8> H 1.60503484 0.3463495456 -1.3201457453
|  9> C 0.54913107 -0.7743738853 0.1925482241
| 10> H 0.3408507586 -0.7055444717 1.2699554193
| 11> C -0.7938005441 -0.73827669 -0.5573772632
| 12> H -0.6143590211 -0.851090017 -1.6382046626
| 13> C -1.4766848329 0.6214352085 -0.2975060945
| 14> H -2.3691514895 0.71432422 -0.9357779922
| 15> O -0.653210377 1.6771646941 -0.6714041697
| 16> O -1.8271684891 0.7191335878 1.05417249
| 17> O -1.650731795 -1.7497765602 -0.0883679348
| 18> O 1.1893046984 -2.0160303681 0.0020052452
| 19> O 2.6543048723 0.4482627539 0.3734922456
| 20> H 1.1130842037 2.5799922179 -0.3701092787
| 21> H 0.4150044175 1.826985859 1.092275343
| 22> H -2.2553092476 -0.1159662958 1.2869409627
| 23> H -1.1160886744 -2.5486957426 0.0180013999
| 24> H 1.8281870753 -1.9361082188 -0.7150565989
| 25> H 2.5373241734 0.5031684157 1.3296706761
| 26> *
| 27> 
| 28>                          ****END OF INPUT****
================================================================================

                       ****************************
                       * Single Point Calculation *
                       ****************************

---------------------------------
CARTESIAN COORDINATES (ANGSTROEM)
---------------------------------
  C      0.583632    1.707234    0.013945
  C      1.396114    0.426796   -0.245428
  H      1.605035    0.346350   -1.320146
  C      0.549131   -0.774374    0.192548
  H      0.340851   -0.705544    1.269955
  C     -0.793801   -0.738277   -0.557377
  H     -0.614359   -0.851090   -1.638205
  C     -1.476685    0.621435   -0.297506
  H     -2.369151    0.714324   -0.935778
  O     -0.653210    1.677165   -0.671404
  O     -1.827168    0.719134    1.054172
  O     -1.650732   -1.749777   -0.088368
  O      1.189305   -2.016030    0.002005
  O      2.654305    0.448263    0.373492
  H      1.113084    2.579992   -0.370109
  H      0.415004    1.826986    1.092275
  H     -2.255309   -0.115966    1.286941
  H     -1.116089   -2.548696    0.018001
  H      1.828187   -1.936108   -0.715057
  H      2.537324    0.503168    1.329671

----------------------------
CARTESIAN COORDINATES (A.U.)
----------------------------
  NO LB      ZA    FRAG     MASS         X           Y           Z
   0 C     6.0000    0    12.011    1.102905    3.226204    0.026352
   1 C     6.0000    0    12.011    2.638273    0.806527   -0.463792
   2 H     1.0000    0     1.008    3.033076    0.654506   -2.494714
   3 C     6.0000    0    12.011    1.037707   -1.463355    0.363863
   4 H     1.0000    0     1.008    0.644115   -1.333286    2.399868
   5 C     6.0000    0    12.011   -1.500066   -1.395141   -1.053290
   6 H     1.0000    0     1.008   -1.160970   -1.608327   -3.095758
   7 C     6.0000    0    12.011   -2.790530    1.174342   -0.562205
   8 H     1.0000    0     1.008   -4.477047    1.349877   -1.768364
   9 O     8.0000    0    15.999   -1.234389    3.169382   -1.268770
  10 O     8.0000    0    15.999   -3.452848    1.358966    1.992097
  11 O     8.0000    0    15.999   -3.119431   -3.306598   -0.166991
  12 O     8.0000    0    15.999    2.247460   -3.809745    0.003789
  13 O     8.0000    0    15.999    5.015909    0.847094    0.705798
  14 H     1.0000    0     1.008    2.103424    4.875479   -0.699405
  15 H     1.0000    0     1.008    0.784245    3.452503    2.064101
  16 H     1.0000    0     1.008   -4.261917   -0.219145    2.431966
  17 H     1.0000    0     1.008   -2.109102   -4.816337    0.034018
  18 H     1.0000    0     1.008    3.454773   -3.658714   -1.351261
  19 H     1.0000    0     1.008    4.794848    0.950851    2.512713

--------------------------------
INTERNAL COORDINATES (ANGSTROEM)
--------------------------------
 C      0   0   0     0.000000000000     0.00000000     0.00000000
 C      1   0   0     1.538480516653     0.00000000     0.00000000
 H      2   1   0     1.097787702600   109.05896908     0.00000000
 C      2   1   3     1.533626905467   108.18276447   241.44883758
 H      4   2   1     1.099511000655   109.59859385   298.13219537
 C      4   2   1     1.538556649643   108.93401362    56.22736297
 H      6   4   2     1.101414533325   109.49371451    63.47017221
 C      6   4   2     1.543593347723   108.95078692   304.20298898
 H      8   6   4     1.101143095603   109.58971290   172.32187511
 O      8   6   4     1.390134776532   111.20028160    56.58694327
 O      8   6   4     1.399792399743   109.56144412   293.77007468
 O      6   4   2     1.406212255070   110.63800606   185.70255445
 O      4   2   1     1.409907700024   113.60309751   179.93642708
 O      2   1   3     1.402343684611   112.74765827   116.48355898
 H      1   2   3     1.090653320341   110.50362731   303.82822040
 H      1   2   3     1.097985723088   109.72162849   183.04095261
 H     11   8   6     0.966890628024   106.44248442   313.24319802
 H     12   6   4     0.967176075891   107.09698041   317.46547902
 H     13   4   2     0.963709463337   109.17973678   333.58455928
 H     14   2   1     0.964871134694   109.23630449    62.21793901

---------------------------
INTERNAL COORDINATES (A.U.)
---------------------------
 C      0   0   0     0.000000000000     0.00000000     0.00000000
 C      1   0   0     2.907306838849     0.00000000     0.00000000
 H      2   1   0     2.074518111101   109.05896908     0.00000000
 C      2   1   3     2.898134842946   108.18276447   241.44883758
 H      4   2   1     2.077774672472   109.59859385   298.13219537
 C      4   2   1     2.907450709348   108.93401362    56.22736297
 H      6   4   2     2.081371827905   109.49371451    63.47017221
 C      6   4   2     2.916968689339   108.95078692   304.20298898
 H      8   6   4     2.080858884948   109.58971290   172.32187511
 O      8   6   4     2.626974016885   111.20028160    56.58694327
 O      8   6   4     2.645224279858   109.56144412   293.77007468
 O      6   4   2     2.657356048247   110.63800606   185.70255445
 O      4   2   1     2.664339427152   113.60309751   179.93642708
 O      2   1   3     2.650045509548   112.74765827   116.48355898
 H      1   2   3     2.061036082495   110.50362731   303.82822040
 H      1   2   3     2.074892315591   109.72162849   183.04095261
 H     11   8   6     1.827158488421   106.44248442   313.24319802
 H     12   6   4     1.827697906715   107.09698041   317.46547902
 H     13   4   2     1.821146958376   109.17973678   333.58455928
 H     14   2   1     1.823342199098   109.23630449    62.21793901

---------------------
BASIS SET INFORMATION
---------------------
There are 3 groups of distinct atoms

 Group   1 Type C   : 11s6p1d contracted to 5s3p1d pattern {62111/411/1}
 Group   2 Type H   : 4s1p contracted to 2s1p pattern {31/1}
 Group   3 Type O   : 11s6p2d contracted to 5s3p2d pattern {62111/411/11}

Atom   0C    basis set group =>   1
Atom   1C    basis set group =>   1
Atom   2H    basis set group =>   2
Atom   3C    basis set group =>   1
Atom   4H    basis set group =>   2
Atom   5C    basis set group =>   1
Atom   6H    basis set group =>   2
Atom   7C    basis set group =>   1
Atom   8H    basis set group =>   2
Atom   9O    basis set group =>   3
Atom  10O    basis set group =>   3
Atom  11O    basis set group =>   3
Atom  12O    basis set group =>   3
Atom  13O    basis set group =>   3
Atom  14H    basis set group =>   2
Atom  15H    basis set group =>   2
Atom  16H    basis set group =>   2
Atom  17H    basis set group =>   2
Atom  18H    basis set group =>   2
Atom  19H    basis set group =>   2
---------------------------------
AUXILIARY/J BASIS SET INFORMATION
---------------------------------
There are 3 groups of distinct atoms

 Group   1 Type C   : 12s5p4d2f1g contracted to 6s4p3d1f1g pattern {711111/2111/211/2/1}
 Group   2 Type H   : 5s2p1d contracted to 3s1p1d pattern {311/2/1}
 Group   3 Type O   : 12s5p4d2f1g contracted to 6s4p3d1f1g pattern {711111/2111/211/2/1}

Atom   0C    basis set group =>   1
Atom   1C    basis set group =>   1
Atom   2H    basis set group =>   2
Atom   3C    basis set group =>   1
Atom   4H    basis set group =>   2
Atom   5C    basis set group =>   1
Atom   6H    basis set group =>   2
Atom   7C    basis set group =>   1
Atom   8H    basis set group =>   2
Atom   9O    basis set group =>   3
Atom  10O    basis set group =>   3
Atom  11O    basis set group =>   3
Atom  12O    basis set group =>   3
Atom  13O    basis set group =>   3
Atom  14H    basis set group =>   2
Atom  15H    basis set group =>   2
Atom  16H    basis set group =>   2
Atom  17H    basis set group =>   2
Atom  18H    basis set group =>   2
Atom  19H    basis set group =>   2

Checking for AutoStart:
The File: sp.gbw exists
Trying to determine its content:
     ... Fine, the file contains calculation information
     ... Fine, the calculation information was read
     ... Fine, the file contains a basis set
     ... Fine, the basis set was read
     ... Fine, the file contains a geometry
     ... Fine, the geometry was read
     ... Fine, the file contains a set of orbitals
     ... Fine, the orbitals can be read
     => possible old guess file was deleted
     => GBW file was renamed to GES file
     => GES file is set as startup file
     => Guess is set to MORead
     ... now leaving AutoStart

------------------------------------------------------------------------------
                             ORCA STARTUP CALCULATIONS
                           -- RI-GTO INTEGRALS CHOSEN --
------------------------------------------------------------------------------
------------------------------------------------------------------------------
                   ___                                                        
                  /   \      - P O W E R E D   B Y -                         
                 /     \                                                     
                 |  |  |   _    _      __       _____    __    __             
                 |  |  |  | |  | |    /  \     |  _  \  |  |  /  |          
                  \  \/   | |  | |   /    \    | | | |  |  | /  /          
                 / \  \   | |__| |  /  /\  \   | |_| |  |  |/  /          
                |  |  |   |  __  | /  /__\  \  |    /   |      \           
                |  |  |   | |  | | |   __   |  |    \   |  |\   \          
                \     /   | |  | | |  |  |  |  | |\  \  |  | \   \       
                 \___/    |_|  |_| |__|  |__|  |_| \__\ |__|  \__/        
                                                                              
                      - O R C A' S   B I G   F R I E N D -                    
                                      &                                       
                       - I N T E G R A L  F E E D E R -                       
                                                                              
 v1 FN, 2020, v2 2021, v3 2022-2024                                           
------------------------------------------------------------------------------


----------------------
SHARK INTEGRAL PACKAGE
----------------------

Number of atoms                             ...     20
Number of basis functions                   ...    265
Number of shells                            ...    125
Maximum angular momentum                    ...      2
Integral batch strategy                     ... SHARK/LIBINT Hybrid
RI-J (if used) integral strategy            ... SPLIT-RIJ (Revised 2003 algorithm where possible)
Printlevel                                  ...      1
Contraction scheme used                     ... SEGMENTED contraction
Prescreening option                         ... SCHWARTZ
   Thresh                                   ... 1.000e-10
   Tcut                                     ... 1.000e-11
   Tpresel                                  ... 1.000e-11 
Coulomb Range Separation                    ... NOT USED
Exchange Range Separation                   ... NOT USED
Multipole approximations                    ... NOT USED
Finite Nucleus Model                        ... NOT USED
CABS basis                                  ... NOT available
Auxiliary Coulomb fitting basis             ... AVAILABLE
   # of basis functions in Aux-J            ...    600
   # of shells in Aux-J                     ...    200
   Maximum angular momentum in Aux-J        ...      4
Auxiliary J/K fitting basis                 ... NOT available
Auxiliary Correlation fitting basis         ... NOT available
Auxiliary 'external' fitting basis          ... NOT available

Checking pre-screening integrals            ... done (  0.0 sec) Dimension = 125
Check shell pair data                       ... done (  0.0 sec)
Shell pair information
Shell pair cut-off parameter TPreSel        ...   1.0e-11
Total number of shell pairs                 ...      7875
Shell pairs after pre-screening             ...      7085
Total number of primitive shell pairs       ...     27980
Primitive shell pairs kept                  ...     17725
          la=0 lb=0:   2147 shell pairs
          la=1 lb=0:   2526 shell pairs
          la=1 lb=1:    767 shell pairs
          la=2 lb=0:    964 shell pairs
          la=2 lb=1:    565 shell pairs
          la=2 lb=2:    116 shell pairs

Calculating one electron integrals          ... done (  0.0 sec)
Calculating RI/J V-Matrix + Cholesky decomp.... done (  0.0 sec)
Calculating Nuclear repulsion               ... done (  0.0 sec) ENN=    625.546977238678 Eh

Diagonalization of the overlap matrix:
Smallest eigenvalue                        ... 4.782e-05
Time for diagonalization                   ...    0.007 sec
Threshold for overlap eigenvalues          ... 1.000e-07
Number of eigenvalues below threshold      ... 0
Time for construction of square roots      ...    0.002 sec
Total time needed                          ...    0.010 sec

-------------------
DFT GRID GENERATION
-------------------

General Integration Accuracy     IntAcc      ... 4.388
Radial Grid Type                 RadialGrid  ... OptM3 with GC (2021)
Angular Grid (max. ang.)         AngularGrid ... 4 (Lebedev-302)
Angular grid pruning method      GridPruning ... 4 (adaptive)
Weight generation scheme         WeightScheme... mBecke (2022)
Basis function cutoff            BFCut       ... 1.0000e-10
Integration weight cutoff        WCut        ... 1.0000e-14
Partially contracted basis set               ... off
Rotationally invariant grid construction     ... off
Angular grids for H and He will be reduced by one unit
Diffuse basis detected: some atoms will have their outermost
                        angular grid increased by 1.

Total number of grid points                  ...    93458
Total number of batches                      ...     1470
Average number of points per batch           ...       63
Average number of grid points per atom       ...     4673
Initializing property integral containers    ... done (  0.0 sec)

SHARK setup successfully completed in   1.0 seconds

Maximum memory used throughout the entire STARTUP-calculation: 45.9 MB
-------------------------------------------------------------------------------
                                 ORCA GUESS
                   Start orbitals & Density for SCF / CASSCF
-------------------------------------------------------------------------------

------------
SCF SETTINGS
------------
Hamiltonian:
 Density Functional     Method          .... DFT(GTOs)
  Functional kind                       .... Exchange
  Functional name                       .... Re-regularized SCAN exchange by Furness et al
  Functional family                     .... MGGA
  Functional refs                              
    [ 0] J. W. Furness, A. D. Kaplan, J. Ning, J. P. Perdew, and J. Sun.,  J. Phys. Chem. Lett. 11, 8208-8215 (2020), doi: 10.1021/acs.jpclett.0c02405
    [ 1] J. W. Furness, A. D. Kaplan, J. Ning, J. P. Perdew, and J. Sun.,  J. Phys. Chem. Lett. 11, 9248-9248 (2020), doi: 10.1021/acs.jpclett.0c03077
  Functional external parameters        .... 6
    Parameter  0 _c1        =  6.670000e-01 : c1 parameter        
    Parameter  1 _c2        =  8.000000e-01 : c2 parameter        
    Parameter  2 _d         =  1.240000e+00 : d parameter         
    Parameter  3 _k1        =  6.500000e-02 : k1 parameter        
    Parameter  4 _eta       =  1.000000e-03 : eta parameter       
    Parameter  5 _dp2       =  3.610000e-01 : dp2 parameter       
  Functional kind                       .... Correlation
  Functional name                       .... Re-regularized SCAN correlation by Furness et al
  Functional family                     .... MGGA
  Functional refs                              
    [ 0] J. W. Furness, A. D. Kaplan, J. Ning, J. P. Perdew, and J. Sun.,  J. Phys. Chem. Lett. 11, 8208-8215 (2020), doi: 10.1021/acs.jpclett.0c02405
    [ 1] J. W. Furness, A. D. Kaplan, J. Ning, J. P. Perdew, and J. Sun.,  J. Phys. Chem. Lett. 11, 9248-9248 (2020), doi: 10.1021/acs.jpclett.0c03077
  Functional external parameters        .... 1
    Parameter  0 _eta       =  1.000000e-03 : Regularization parameter
 Gradients option       PostSCFGGA      .... off
 RI-approximation to the Coulomb term is turned on
   Number of AuxJ basis functions       .... 600


General Settings:
 Integral files         IntName         .... sp
 Hartree-Fock type      HFTyp           .... RHF
 Total Charge           Charge          ....    0
 Multiplicity           Mult            ....    1
 Number of Electrons    NEL             ....   80
 Basis Dimension        Dim             ....  265
 Nuclear Repulsion      ENuc            ....    625.5469772387 Eh

Convergence Acceleration:
 AO-DIIS                CNVDIIS         .... on
   Start iteration      DIISMaxIt       ....    12
   Startup error        DIISStart       ....  0.200000
   # of expansion vecs  DIISMaxEq       ....     5
   Bias factor          DIISBfac        ....   1.050
   Max. coefficient     DIISMaxC        ....  10.000
 MO-DIIS                CNVKDIIS        .... off
 Trust-Rad. Augm. Hess. CNVTRAH         .... auto
   Auto Start mean grad. ratio tolernc. ....  1.125000
   Auto Start start iteration           ....     1
   Auto Start num. interpolation iter.  ....    10
   Max. Number of Micro iterations      ....    24
   Max. Number of Macro iterations      .... Maxiter - #DIIS iter
   Number of Davidson start vectors     ....     2
   Converg. threshold    (grad. norm)   ....   3.330e-04
   Grad. Scal. Fac. for Micro threshold ....   0.100
   Minimum threshold for Micro iter.    ....   1.000e-02
   NR start threshold (gradient norm)   ....   1.000e-04
   Initial trust radius                 ....   0.400
   Minimum AH scaling param. (alpha)    ....   1.000
   Maximum AH scaling param. (alpha)    .... 1000.000
   Quad. conv. algorithm                .... NR
   White noise on init. David. guess    .... on
   Maximum white noise                  ....   0.010
   Pseudo random numbers                .... off
   Inactive MOs                         .... canonical
   Orbital update algorithm             .... Taylor
   Preconditioner                       .... Diag
   Full preconditioner red. dimension   ....   250
   COSX micro iterations for RIJONX calc.... off
 SOSCF                  CNVSOSCF        .... on
   Start iteration      SOSCFMaxIt      ....   150
   Startup grad/error   SOSCFStart      ....  0.003300
   Hessian update       SOSCFHessUp     .... L-BFGS
 Level Shifting         CNVShift        .... on
   Level shift para.    LevelShift      ....    0.2500
   Turn off err/grad.   ShiftErr        ....    0.0010
 Zerner damping         CNVZerner       .... off
 Static damping         CNVDamp         .... on
   Fraction old density DampFac         ....    0.7000
   Max. Damping (<1)    DampMax         ....    0.9800
   Min. Damping (>=0)   DampMin         ....    0.0000
   Turn off err/grad.   DampErr         ....    0.1000

SCF Procedure:
 Maximum # iterations   MaxIter         ....   125
 SCF integral mode      SCFMode         .... Direct
   Integral package                     .... SHARK and LIBINT hybrid scheme
 Reset frequency        DirectResetFreq ....    20
 Integral Threshold     Thresh          ....  1.000e-10 Eh
 Primitive CutOff       TCut            ....  1.000e-11 Eh

Convergence Tolerance:
 Convergence Check Mode ConvCheckMode   .... Total+1el-Energy
 Convergence forced     ConvForced      .... 0
 Energy Change          TolE            ....  1.000e-06 Eh
 1-El. energy change                    ....  1.000e-03 Eh
 Orbital Gradient       TolG            ....  3.330e-04
 Orbital Rotation angle TolX            ....  3.330e-04
 DIIS Error             TolErr          ....  1.000e-06

---------------------
INITIAL GUESS: MOREAD
---------------------
Guess MOs are being read from file: sp.ges
Input Geometry matches current geometry (good)
Atom 0: N(Shells)= 9 and 6 - projection required
Input basis set needs projection
NBasis(read)= 160
NBasis(calc)= 265
Basis set overlap was calculated
Using GuessMode=FMatrix for the initial guess
C*T matrix was formed
Effective Fockian was calculated
Effective Fockian was diagonalized
Initial density was built
                      ------------------
                      INITIAL GUESS DONE (   0.0 sec)
                      ------------------
             **** ENERGY FILE WAS UPDATED (sp.en.tmp) ****
Finished Guess after   0.1 sec
Maximum memory used throughout the entire GUESS-calculation: 21.6 MB

-------------------------------------------------------------------------------------------
                                      ORCA LEAN-SCF
                              memory conserving SCF solver
-------------------------------------------------------------------------------------------

----------------------------------------D-I-I-S--------------------------------------------
Iteration    Energy (Eh)           Delta-E    RMSDP     MaxDP     DIISErr   Damp  Time(sec)
-------------------------------------------------------------------------------------------
               ***  Starting incremental Fock matrix formation  ***
    1    -572.2391792930665133     0.00e+00  6.91e-03  3.80e-01  6.27e-01  0.700   3.0
    2    -572.3374160614322363    -9.82e-02  5.19e-03  2.54e-01  4.41e-01  0.700   2.8
    3    -572.4069993712554378    -6.96e-02  3.71e-03  1.71e-01  3.09e-01  0.700   2.4
    4    -572.4558717006506185    -4.89e-02  2.62e-03  1.18e-01  2.16e-01  0.700   3.2
                               ***Turning on AO-DIIS***
    5    -572.4901644284583426    -3.43e-02  1.86e-03  8.12e-02  1.51e-01  0.700   2.8
    6    -572.5142118431321023    -2.40e-02  1.31e-03  5.60e-02  1.06e-01  0.700   2.4
    7    -572.5310751340583693    -1.69e-02  9.20e-04  3.88e-02  7.42e-02  0.700   2.4
    8    -572.5428943864093299    -1.18e-02  2.15e-03  8.99e-02  5.19e-02  0.000   2.3
                              *** Initializing SOSCF ***
---------------------------------------S-O-S-C-F--------------------------------------
Iteration    Energy (Eh)           Delta-E    RMSDP     MaxDP     MaxGrad    Time(sec)
--------------------------------------------------------------------------------------
    9    -572.5705201857632574    -2.76e-02  1.02e-05  2.92e-04  1.42e-04     2.3
               *** Restarting incremental Fock matrix formation ***
   10    -572.5705202695470462    -8.38e-08  9.28e-06  6.97e-04  2.20e-05     2.8
                  *** Gradient check signals convergence ***

               *****************************************************
               *                     SUCCESS                       *
               *           SCF CONVERGED AFTER  10 CYCLES          *
               *****************************************************

             **** ENERGY FILE WAS UPDATED (sp.en.tmp) ****

----------------
TOTAL SCF ENERGY
----------------

Total Energy       :       -572.57052026954705 Eh          -15580.43595 eV

Components:
Nuclear Repulsion  :        625.54697723867832 Eh           17021.99863 eV
Electronic Energy  :      -1198.11749750822537 Eh          -32602.43458 eV
One Electron Energy:      -2025.92414823536069 Eh          -55128.19874 eV
Two Electron Energy:        827.80665072713521 Eh           22525.76415 eV

Virial components:
Potential Energy   :      -1142.95229677598627 Eh          -31101.31316 eV
Kinetic Energy     :        570.38177650643922 Eh           15520.87720 eV
Virial Ratio       :          2.00383733115829

DFT components:
N(Alpha)           :       39.999941681623 electrons
N(Beta)            :       39.999941681623 electrons
N(Total)           :       79.999883363247 electrons
E(X)               :      -71.072633810103 Eh       
E(C)               :       -2.661556932108 Eh       
E(XC)              :      -73.734190742212 Eh       

---------------
SCF CONVERGENCE
---------------

  Last Energy change         ...    8.3784e-08  Tolerance :   1.0000e-06
  Last MAX-Density change    ...    6.9665e-04  Tolerance :   1.0000e-05
  Last RMS-Density change    ...    9.2801e-06  Tolerance :   1.0000e-06
  Last DIIS Error            ...    1.4226e-04  Tolerance :   1.0000e-06
  Last Orbital Gradient      ...    2.2032e-05  Tolerance :   3.3300e-04
  Last Orbital Rotation      ...    2.9791e-05  Tolerance :   3.3300e-04


----------------
ORBITAL ENERGIES
----------------

  NO   OCC          E(Eh)            E(eV) 
   0   2.0000     -18.974641      -516.3262 
   1   2.0000     -18.970045      -516.2012 
   2   2.0000     -18.970015      -516.2003 
   3   2.0000     -18.969377      -516.1830 
   4   2.0000     -18.958933      -515.8988 
   5   2.0000     -10.138322      -275.8778 
   6   2.0000     -10.101154      -274.8664 
   7   2.0000     -10.096331      -274.7351 
   8   2.0000     -10.093492      -274.6579 
   9   2.0000     -10.088347      -274.5179 
  10   2.0000      -1.052824       -28.6488 
  11   2.0000      -1.022232       -27.8163 
  12   2.0000      -1.011692       -27.5295 
  13   2.0000      -0.995021       -27.0759 
  14   2.0000      -0.979211       -26.6457 
  15   2.0000      -0.754061       -20.5190 
  16   2.0000      -0.726376       -19.7657 
  17   2.0000      -0.625417       -17.0185 
  18   2.0000      -0.622589       -16.9415 
  19   2.0000      -0.570408       -15.5216 
  20   2.0000      -0.523221       -14.2376 
  21   2.0000      -0.504745       -13.7348 
  22   2.0000      -0.499838       -13.6013 
  23   2.0000      -0.471265       -12.8238 
  24   2.0000      -0.466362       -12.6904 
  25   2.0000      -0.446723       -12.1560 
  26   2.0000      -0.433626       -11.7996 
  27   2.0000      -0.412585       -11.2270 
  28   2.0000      -0.388011       -10.5583 
  29   2.0000      -0.379525       -10.3274 
  30   2.0000      -0.350722        -9.5436 
  31   2.0000      -0.345922        -9.4130 
  32   2.0000      -0.332750        -9.0546 
  33   2.0000      -0.316424        -8.6103 
  34   2.0000      -0.307359        -8.3637 
  35   2.0000      -0.284694        -7.7469 
  36   2.0000      -0.274372        -7.4660 
  37   2.0000      -0.256536        -6.9807 
  38   2.0000      -0.238359        -6.4861 
  39   2.0000      -0.232233        -6.3194 
  40   0.0000       0.026557         0.7226 
  41   0.0000       0.051056         1.3893 
  42   0.0000       0.065278         1.7763 
  43   0.0000       0.071578         1.9477 
  44   0.0000       0.089712         2.4412 
  45   0.0000       0.116896         3.1809 
  46   0.0000       0.122460         3.3323 
  47   0.0000       0.124819         3.3965 
  48   0.0000       0.135709         3.6928 
  49   0.0000       0.145562         3.9609 
  50   0.0000       0.148426         4.0389 
*Only the first 10 virtual orbitals were printed.

                    ********************************
                    * MULLIKEN POPULATION ANALYSIS *
                    ********************************

-----------------------
MULLIKEN ATOMIC CHARGES
-----------------------
   0 C :   -0.230424
   1 C :   -0.152126
   2 H :    0.166153
   3 C :   -0.045919
   4 H :    0.175310
   5 C :    0.024743
   6 H :    0.164299
   7 C :    0.033340
   8 H :    0.141406
   9 O :   -0.202754
  10 O :   -0.415709
  11 O :   -0.459413
  12 O :   -0.407462
  13 O :   -0.374811
  14 H :    0.158078
  15 H :    0.168040
  16 H :    0.322909
  17 H :    0.319433
  18 H :    0.311144
  19 H :    0.303763
Sum of atomic charges:    0.0000000

--------------------------------
MULLIKEN REDUCED ORBITAL CHARGES
--------------------------------
  0 C s       :     3.304688  s :     3.304688
      pz      :     1.021904  p :     2.869746
      px      :     0.807098
      py      :     1.040744
      dz2     :     0.014395  d :     0.055991
      dxz     :     0.011825
      dyz     :     0.004515
      dx2y2   :     0.010871
      dxy     :     0.014385

  1 C s       :     3.264250  s :     3.264250
      pz      :     1.048993  p :     2.819650
      px      :     0.782598
      py      :     0.988059
      dz2     :     0.015190  d :     0.068225
      dxz     :     0.012530
      dyz     :     0.005916
      dx2y2   :     0.013216
      dxy     :     0.021374

  2 H s       :     0.816974  s :     0.816974
      pz      :     0.011071  p :     0.016873
      px      :     0.002480
      py      :     0.003322

  3 C s       :     3.184423  s :     3.184423
      pz      :     1.085921  p :     2.795048
      px      :     0.934571
      py      :     0.774556
      dz2     :     0.013681  d :     0.066448
      dxz     :     0.009305
      dyz     :     0.009578
      dx2y2   :     0.016452
      dxy     :     0.017433

  4 H s       :     0.807606  s :     0.807606
      pz      :     0.011192  p :     0.017084
      px      :     0.003506
      py      :     0.002386

  5 C s       :     3.151651  s :     3.151651
      pz      :     1.034312  p :     2.757589
      px      :     0.869887
      py      :     0.853390
      dz2     :     0.015715  d :     0.066017
      dxz     :     0.011654
      dyz     :     0.009072
      dx2y2   :     0.013685
      dxy     :     0.015891

  6 H s       :     0.818848  s :     0.818848
      pz      :     0.011199  p :     0.016853
      px      :     0.003038
      py      :     0.002616

  7 C s       :     3.208788  s :     3.208788
      pz      :     0.821039  p :     2.663126
      px      :     0.980578
      py      :     0.861510
      dz2     :     0.023754  d :     0.094746
      dxz     :     0.023255
      dyz     :     0.015768
      dx2y2   :     0.015593
      dxy     :     0.016376

  8 H s       :     0.842119  s :     0.842119
      pz      :     0.005390  p :     0.016475
      px      :     0.008592
      py      :     0.002493

  9 O s       :     3.735612  s :     3.735612
      pz      :     1.687951  p :     4.441837
      px      :     1.217211
      py      :     1.536674
      dz2     :     0.004512  d :     0.025306
      dxz     :     0.003816
      dyz     :     0.006196
      dx2y2   :     0.003916
      dxy     :     0.006865

 10 O s       :     3.749795  s :     3.749795
      pz      :     1.328161  p :     4.650836
      px      :     1.767890
      py      :     1.554786
      dz2     :     0.004281  d :     0.015077
      dxz     :    -0.001568
      dyz     :     0.002346
      dx2y2   :     0.004797
      dxy     :     0.005222

 11 O s       :     3.767897  s :     3.767897
      pz      :     1.827005  p :     4.674279
      px      :     1.578579
      py      :     1.268695
      dz2     :     0.005185  d :     0.017238
      dxz     :     0.002978
      dyz     :     0.000688
      dx2y2   :     0.003477
      dxy     :     0.004910

 12 O s       :     3.746280  s :     3.746280
      pz      :     1.607370  p :     4.646778
      px      :     1.577826
      py      :     1.461582
      dz2     :     0.006669  d :     0.014405
      dxz     :     0.001634
      dyz     :    -0.000202
      dx2y2   :     0.003288
      dxy     :     0.003016

 13 O s       :     3.744241  s :     3.744241
      pz      :     1.284315  p :     4.620447
      px      :     1.438973
      py      :     1.897159
      dz2     :     0.000470  d :     0.010123
      dxz     :     0.002887
      dyz     :     0.001713
      dx2y2   :     0.003335
      dxy     :     0.001718

 14 H s       :     0.824509  s :     0.824509
      pz      :     0.004008  p :     0.017412
      px      :     0.004561
      py      :     0.008843

 15 H s       :     0.814704  s :     0.814704
      pz      :     0.011158  p :     0.017256
      px      :     0.002691
      py      :     0.003407

 16 H s       :     0.633375  s :     0.633375
      pz      :     0.009005  p :     0.043716
      px      :     0.014201
      py      :     0.020510

 17 H s       :     0.637130  s :     0.637130
      pz      :     0.012117  p :     0.043437
      px      :     0.013311
      py      :     0.018009

 18 H s       :     0.645200  s :     0.645200
      pz      :     0.018260  p :     0.043656
      px      :     0.016804
      py      :     0.008591

 19 H s       :     0.652830  s :     0.652830
      pz      :     0.021964  p :     0.043407
      px      :     0.008547
      py      :     0.012896


------------------------
MULLIKEN OVERLAP CHARGES
------------------------
B(  0-C ,  1-C ) :  -0.1265 B(  0-C ,  3-C ) :  -0.4982 B(  0-C ,  5-C ) :   0.4835 
B(  0-C ,  7-C ) :  -0.7581 B(  0-C ,  9-O ) :   0.4358 B(  0-C , 10-O ) :   0.0583 
B(  0-C , 13-O ) :  -0.1006 B(  0-C , 14-H ) :   0.6980 B(  0-C , 15-H ) :   0.9155 
B(  1-C ,  2-H ) :   0.8340 B(  1-C ,  3-C ) :   0.4056 B(  1-C ,  5-C ) :  -0.5414 
B(  1-C ,  7-C ) :   0.2910 B(  1-C ,  9-O ) :  -0.2060 B(  1-C , 12-O ) :  -0.1054 
B(  1-C , 13-O ) :   0.3934 B(  1-C , 15-H ) :  -0.1313 B(  1-C , 19-H ) :  -0.1382 
B(  2-H ,  3-C ) :  -0.1029 B(  2-H , 13-O ) :  -0.1006 B(  3-C ,  4-H ) :   0.8500 
B(  3-C ,  5-C ) :  -0.1639 B(  3-C ,  6-H ) :  -0.1164 B(  3-C ,  7-C ) :   0.1439 
B(  3-C , 10-O ) :   0.0591 B(  3-C , 12-O ) :   0.5551 B(  3-C , 13-O ) :  -0.1384 
B(  3-C , 18-H ) :  -0.1551 B(  4-H ,  5-C ) :  -0.1256 B(  4-H , 12-O ) :  -0.1129 
B(  5-C ,  6-H ) :   0.8536 B(  5-C ,  7-C ) :  -0.4319 B(  5-C ,  8-H ) :  -0.0798 
B(  5-C ,  9-O ) :  -0.1005 B(  5-C , 10-O ) :  -0.2082 B(  5-C , 11-O ) :   0.1848 
B(  5-C , 12-O ) :  -0.2557 B(  5-C , 17-H ) :  -0.1506 B(  6-H ,  7-C ) :  -0.0594 
B(  6-H , 11-O ) :  -0.0932 B(  7-C ,  8-H ) :   0.8297 B(  7-C ,  9-O ) :   0.5638 
B(  7-C , 10-O ) :   0.3681 B(  7-C , 16-H ) :  -0.0983 B(  8-H ,  9-O ) :  -0.1124 
B(  8-H , 10-O ) :  -0.1089 B(  9-O , 10-O ) :  -0.1738 B(  9-O , 14-H ) :  -0.0754 
B(  9-O , 15-H ) :  -0.0914 B( 10-O , 16-H ) :   0.6062 B( 11-O , 17-H ) :   0.6113 
B( 12-O , 18-H ) :   0.6211 B( 13-O , 19-H ) :   0.5988 


                     *******************************
                     * LOEWDIN POPULATION ANALYSIS *
                     *******************************

----------------------
LOEWDIN ATOMIC CHARGES
----------------------
   0 C :    0.047639
   1 C :    0.088554
   2 H :    0.191456
   3 C :    0.089677
   4 H :    0.197000
   5 C :    0.107850
   6 H :    0.181252
   7 C :    0.295890
   8 H :    0.196815
   9 O :   -0.655528
  10 O :   -0.521827
  11 O :   -0.577103
  12 O :   -0.569217
  13 O :   -0.564220
  14 H :    0.191140
  15 H :    0.182303
  16 H :    0.287208
  17 H :    0.284235
  18 H :    0.274864
  19 H :    0.272010

-------------------------------
LOEWDIN REDUCED ORBITAL CHARGES
-------------------------------
  0 C s       :     2.859909  s :     2.859909
      pz      :     1.043211  p :     2.965934
      px      :     0.881515
      py      :     1.041208
      dz2     :     0.034556  d :     0.126518
      dxz     :     0.026688
      dyz     :     0.008177
      dx2y2   :     0.023582
      dxy     :     0.033515

  1 C s       :     2.832004  s :     2.832004
      pz      :     1.023006  p :     2.932064
      px      :     0.895232
      py      :     1.013827
      dz2     :     0.035421  d :     0.147377
      dxz     :     0.026173
      dyz     :     0.009908
      dx2y2   :     0.028316
      dxy     :     0.047560

  2 H s       :     0.769229  s :     0.769229
      pz      :     0.025199  p :     0.039314
      px      :     0.006297
      py      :     0.007818

  3 C s       :     2.832495  s :     2.832495
      pz      :     1.064623  p :     2.933584
      px      :     0.967078
      py      :     0.901883
      dz2     :     0.031705  d :     0.144244
      dxz     :     0.019733
      dyz     :     0.018884
      dx2y2   :     0.036478
      dxy     :     0.037444

  4 H s       :     0.762703  s :     0.762703
      pz      :     0.027005  p :     0.040297
      px      :     0.007719
      py      :     0.005573

  5 C s       :     2.835414  s :     2.835414
      pz      :     1.037876  p :     2.914202
      px      :     0.963806
      py      :     0.912520
      dz2     :     0.035461  d :     0.142534
      dxz     :     0.025126
      dyz     :     0.017278
      dx2y2   :     0.029153
      dxy     :     0.035516

  6 H s       :     0.777802  s :     0.777802
      pz      :     0.026650  p :     0.040946
      px      :     0.007417
      py      :     0.006878

  7 C s       :     2.763067  s :     2.763067
      pz      :     0.874368  p :     2.734903
      px      :     0.959078
      py      :     0.901458
      dz2     :     0.053988  d :     0.206140
      dxz     :     0.051671
      dyz     :     0.030482
      dx2y2   :     0.032717
      dxy     :     0.037283

  8 H s       :     0.765965  s :     0.765965
      pz      :     0.012569  p :     0.037220
      px      :     0.018855
      py      :     0.005797

  9 O s       :     3.478440  s :     3.478440
      pz      :     1.695997  p :     4.694661
      px      :     1.396908
      py      :     1.601757
      dz2     :     0.089867  d :     0.482427
      dxz     :     0.094950
      dyz     :     0.046752
      dx2y2   :     0.119266
      dxy     :     0.131593

 10 O s       :     3.497613  s :     3.497613
      pz      :     1.448340  p :     4.752696
      px      :     1.743948
      py      :     1.560409
      dz2     :     0.082552  d :     0.271517
      dxz     :     0.068738
      dyz     :     0.060138
      dx2y2   :     0.025380
      dxy     :     0.034709

 11 O s       :     3.499953  s :     3.499953
      pz      :     1.818858  p :     4.788714
      px      :     1.612084
      py      :     1.357772
      dz2     :     0.046671  d :     0.288436
      dxz     :     0.036981
      dyz     :     0.048451
      dx2y2   :     0.074662
      dxy     :     0.081671

 12 O s       :     3.504068  s :     3.504068
      pz      :     1.645163  p :     4.785186
      px      :     1.588731
      py      :     1.551292
      dz2     :     0.038323  d :     0.279963
      dxz     :     0.042430
      dyz     :     0.053735
      dx2y2   :     0.074320
      dxy     :     0.071155

 13 O s       :     3.506156  s :     3.506156
      pz      :     1.390762  p :     4.776303
      px      :     1.536791
      py      :     1.848750
      dz2     :     0.088239  d :     0.281762
      dxz     :     0.061957
      dyz     :     0.014435
      dx2y2   :     0.054921
      dxy     :     0.062211

 14 H s       :     0.768992  s :     0.768992
      pz      :     0.009830  p :     0.039868
      px      :     0.009214
      py      :     0.020824

 15 H s       :     0.775912  s :     0.775912
      pz      :     0.026893  p :     0.041785
      px      :     0.006852
      py      :     0.008041

 16 H s       :     0.587847  s :     0.587847
      pz      :     0.023599  p :     0.124946
      px      :     0.038844
      py      :     0.062502

 17 H s       :     0.592539  s :     0.592539
      pz      :     0.031299  p :     0.123226
      px      :     0.039496
      py      :     0.052431

 18 H s       :     0.601642  s :     0.601642
      pz      :     0.053407  p :     0.123493
      px      :     0.046975
      py      :     0.023111

 19 H s       :     0.604772  s :     0.604772
      pz      :     0.066469  p :     0.123217
      px      :     0.023431
      py      :     0.033317


---------------------------------
LOEWDIN BOND ORDERS (THRESH 0.050000)
---------------------------------
B(  0-C ,  1-C ) :   0.9140 B(  0-C ,  3-C ) :   0.0691 B(  0-C ,  7-C ) :   0.0722 
B(  0-C ,  9-O ) :   1.3732 B(  0-C , 13-O ) :   0.1639 B(  0-C , 14-H ) :   0.8185 
B(  0-C , 15-H ) :   0.8094 B(  1-C ,  2-H ) :   0.7778 B(  1-C ,  3-C ) :   0.9009 
B(  1-C ,  5-C ) :   0.0732 B(  1-C ,  9-O ) :   0.1510 B(  1-C , 12-O ) :   0.1420 
B(  1-C , 13-O ) :   1.4406 B(  2-H , 13-O ) :   0.0947 B(  3-C ,  4-H ) :   0.7692 
B(  3-C ,  5-C ) :   0.8844 B(  3-C ,  7-C ) :   0.0581 B(  3-C , 11-O ) :   0.1531 
B(  3-C , 12-O ) :   1.4136 B(  3-C , 13-O ) :   0.1548 B(  4-H , 12-O ) :   0.0926 
B(  5-C ,  6-H ) :   0.7818 B(  5-C ,  7-C ) :   0.8312 B(  5-C ,  9-O ) :   0.1457 
B(  5-C , 10-O ) :   0.1447 B(  5-C , 11-O ) :   1.3986 B(  5-C , 12-O ) :   0.1627 
B(  6-H , 11-O ) :   0.0964 B(  7-C ,  8-H ) :   0.7362 B(  7-C ,  9-O ) :   1.3433 
B(  7-C , 10-O ) :   1.3181 B(  7-C , 11-O ) :   0.1467 B(  7-C , 16-H ) :   0.0510 
B(  8-H ,  9-O ) :   0.0910 B(  8-H , 10-O ) :   0.0936 B(  9-O , 10-O ) :   0.2941 
B(  9-O , 14-H ) :   0.0966 B(  9-O , 15-H ) :   0.0965 B( 10-O , 11-O ) :   0.0937 
B( 10-O , 16-H ) :   0.9280 B( 11-O , 12-O ) :   0.0638 B( 11-O , 17-H ) :   0.9419 
B( 12-O , 13-O ) :   0.0523 B( 12-O , 18-H ) :   0.9589 B( 13-O , 19-H ) :   0.9634 


------------------------------------------
LOEWDIN REDUCED ORBITAL POPULATIONS PER MO
-------------------------------------------
THRESHOLD FOR PRINTING IS 0.1%%
                      0         1         2         3         4         5   
                 -18.97464 -18.97004 -18.97001 -18.96938 -18.95893 -10.13832
                   2.00000   2.00000   2.00000   2.00000   2.00000   2.00000
                  --------  --------  --------  --------  --------  --------
 7 C  s               0.0       0.0       0.0       0.0       0.0      99.0
 9 O  s              99.9       0.0       0.0       0.0       0.0       0.0
 9 O  dxy             0.0       0.0       0.0       0.0       0.0       0.2
10 O  s               0.0       0.0       0.0       0.0      99.9       0.0
10 O  pz              0.0       0.0       0.0       0.0       0.0       0.1
10 O  dz2             0.0       0.0       0.0       0.0       0.0       0.2
11 O  s               0.0       0.0       0.0      99.9       0.0       0.0
12 O  s               0.0      99.6       0.4       0.0       0.0       0.0
13 O  s               0.0       0.4      99.6       0.0       0.0       0.0

                      6         7         8         9        10        11   
                 -10.10115 -10.09633 -10.09349 -10.08835  -1.05282  -1.02223
                   2.00000   2.00000   2.00000   2.00000   2.00000   2.00000
                  --------  --------  --------  --------  --------  --------
 0 C  s               0.0       0.0       0.0      99.4       4.6       0.1
 0 C  pz              0.0       0.0       0.0       0.0       0.7       0.1
 0 C  px              0.0       0.0       0.0       0.0       3.4       1.4
 0 C  py              0.1       0.0       0.0       0.0       0.3       0.3
 0 C  dxz             0.0       0.0       0.0       0.0       0.2       0.0
 0 C  dx2y2           0.0       0.0       0.0       0.0       0.2       0.0
 1 C  s              99.3       0.0       0.0       0.0       1.3       4.0
 1 C  pz              0.0       0.0       0.0       0.0       0.1       0.9
 1 C  px              0.0       0.0       0.0       0.0       0.4       1.5
 1 C  py              0.0       0.1       0.0       0.1       0.1       1.1
 1 C  dxz             0.0       0.0       0.0       0.0       0.0       0.1
 2 H  s               0.0       0.0       0.0       0.0       0.1       0.3
 3 C  s               0.0      99.3       0.1       0.0       1.3       6.9
 3 C  pz              0.0       0.0       0.0       0.0       0.1       0.3
 3 C  px              0.0       0.0       0.1       0.0       0.2       1.2
 3 C  py              0.0       0.0       0.0       0.0       0.2       2.3
 3 C  dz2             0.0       0.0       0.0       0.0       0.0       0.1
 3 C  dxy             0.0       0.0       0.0       0.0       0.0       0.1
 4 H  s               0.0       0.0       0.0       0.0       0.1       0.4
 5 C  s               0.0       0.1      99.3       0.0       3.3       2.0
 5 C  pz              0.0       0.0       0.0       0.0       0.5       0.4
 5 C  px              0.0       0.1       0.0       0.0       0.3       0.3
 5 C  py              0.0       0.0       0.0       0.0       0.7       2.0
 6 H  s               0.0       0.0       0.0       0.0       0.2       0.1
 7 C  s               0.0       0.0       0.0       0.0      13.2       0.7
 7 C  pz              0.0       0.0       0.0       0.0       0.9       0.1
 7 C  px              0.0       0.0       0.0       0.0       1.2       0.1
 7 C  py              0.0       0.0       0.1       0.0       1.4       1.3
 7 C  dxz             0.0       0.0       0.0       0.0       0.2       0.0
 7 C  dxy             0.0       0.0       0.0       0.0       0.2       0.1
 8 H  s               0.0       0.0       0.0       0.0       0.8       0.0
 9 O  s               0.0       0.0       0.0       0.0      30.2       4.1
 9 O  pz              0.0       0.0       0.0       0.0       1.0       0.1
 9 O  py              0.0       0.0       0.0       0.0       1.3       0.1
 9 O  dxz             0.0       0.0       0.0       0.2       0.0       0.0
 9 O  dyz             0.0       0.0       0.0       0.0       0.2       0.0
 9 O  dx2y2           0.0       0.0       0.0       0.1       0.0       0.0
 9 O  dxy             0.0       0.0       0.0       0.0       0.3       0.1
10 O  s               0.0       0.0       0.0       0.0      16.0       1.5
10 O  pz              0.0       0.0       0.0       0.0       1.6       0.1
10 O  py              0.0       0.0       0.0       0.0       0.2       0.0
10 O  dz2             0.0       0.0       0.0       0.0       0.4       0.1
10 O  dxz             0.0       0.0       0.0       0.0       0.4       0.0
11 O  s               0.0       0.0       0.0       0.0       3.8       8.1
11 O  px              0.0       0.0       0.0       0.0       0.2       0.5
11 O  py              0.0       0.0       0.1       0.0       0.2       0.0
11 O  dxy             0.0       0.0       0.2       0.0       0.0       0.0
12 O  s               0.0       0.0       0.0       0.0       1.2      26.7
12 O  pz              0.0       0.0       0.0       0.0       0.0       0.2
12 O  py              0.0       0.1       0.0       0.0       0.1       1.3
12 O  dz2             0.0       0.1       0.0       0.0       0.0       0.1
12 O  dxy             0.0       0.1       0.0       0.0       0.0       0.1
13 O  s               0.0       0.0       0.0       0.0       1.0      16.0
13 O  px              0.1       0.0       0.0       0.0       0.1       0.9
13 O  dxz             0.1       0.0       0.0       0.0       0.0       0.1
13 O  dx2y2           0.1       0.0       0.0       0.0       0.0       0.1
14 H  s               0.0       0.0       0.0       0.0       0.3       0.0
15 H  s               0.0       0.0       0.0       0.0       0.3       0.0
16 H  s               0.0       0.0       0.0       0.0       2.6       0.2
16 H  px              0.0       0.0       0.0       0.0       0.1       0.0
16 H  py              0.0       0.0       0.0       0.0       0.4       0.0
17 H  s               0.0       0.0       0.0       0.0       0.6       1.6
17 H  py              0.0       0.0       0.0       0.0       0.1       0.2
18 H  s               0.0       0.0       0.0       0.0       0.2       4.5
18 H  pz              0.0       0.0       0.0       0.0       0.0       0.5
18 H  px              0.0       0.0       0.0       0.0       0.0       0.5
19 H  s               0.0       0.0       0.0       0.0       0.2       2.7
19 H  pz              0.0       0.0       0.0       0.0       0.0       0.6

                     12        13        14        15        16        17   
                  -1.01169  -0.99502  -0.97921  -0.75406  -0.72638  -0.62542
                   2.00000   2.00000   2.00000   2.00000   2.00000   2.00000
                  --------  --------  --------  --------  --------  --------
 0 C  s               1.4       0.1       2.2       4.1      14.1       4.4
 0 C  pz              0.1       0.1       0.7       0.0       0.1       0.1
 0 C  px              0.2       0.7       1.4       1.5       0.3       2.4
 0 C  py              0.2       0.1       0.0       2.3       0.2       0.0
 0 C  dxz             0.0       0.0       0.1       0.0       0.0       0.1
 0 C  dx2y2           0.0       0.0       0.1       0.1       0.0       0.0
 1 C  s               4.4       1.0       0.0      12.3       2.7       0.9
 1 C  pz              1.0       0.4       0.0       0.0       0.0       0.9
 1 C  px              2.9       2.8       0.4       5.2       0.4       0.2
 1 C  py              0.2       0.4       0.3       0.2       2.9       5.4
 1 C  dxz             0.2       0.1       0.0       0.1       0.0       0.0
 1 C  dx2y2           0.2       0.1       0.0       0.0       0.0       0.0
 1 C  dxy             0.0       0.0       0.0       0.0       0.1       0.1
 2 H  s               0.3       0.1       0.0       2.2       0.6       0.6
 2 H  pz              0.0       0.0       0.0       0.2       0.0       0.0
 3 C  s               0.0       2.3       0.0      13.5       0.9      10.8
 3 C  pz              0.0       0.1       0.0       0.4       0.1       2.3
 3 C  px              1.9       1.3       0.1       0.6       2.1       0.0
 3 C  py              1.2       4.2       0.1       5.1       0.1       0.3
 3 C  dx2y2           0.0       0.1       0.0       0.0       0.1       0.0
 3 C  dxy             0.0       0.3       0.0       0.1       0.0       0.0
 4 H  s               0.0       0.1       0.0       2.3       0.1       4.7
 4 H  pz              0.0       0.0       0.0       0.2       0.0       0.4
 5 C  s               3.8       1.0       0.4       6.5       8.6       1.8
 5 C  pz              0.6       0.1       0.1       0.2       0.1       1.8
 5 C  px              1.6       2.3       0.1       3.3       0.0       5.7
 5 C  py              3.0       1.0       0.7       0.9       2.6       1.6
 5 C  dxz             0.0       0.0       0.0       0.1       0.0       0.1
 5 C  dxy             0.2       0.1       0.1       0.0       0.1       0.0
 6 H  s               0.2       0.1       0.0       1.1       1.7       0.9
 6 H  pz              0.0       0.0       0.0       0.1       0.2       0.1
 7 C  s               0.1       0.0       0.6       0.1       9.7       3.8
 7 C  pz              0.3       0.2       8.7       0.0       2.7       0.5
 7 C  px              0.3       0.2       3.5       0.8       0.4       0.4
 7 C  py              1.8       0.8       0.9       3.2       0.8       3.1
 7 C  dz2             0.0       0.0       0.9       0.0       0.1       0.0
 7 C  dxy             0.1       0.0       0.2       0.2       0.0       0.1
 8 H  s               0.0       0.0       0.1       0.0       2.4       1.6
 8 H  px              0.0       0.0       0.0       0.0       0.2       0.1
 9 O  s               3.4       2.3      15.7       3.2       0.0       2.7
 9 O  pz              0.1       0.0       0.2       0.1       0.5       0.1
 9 O  px              0.1       0.0       0.6       1.4      11.2       0.2
 9 O  py              0.0       0.0       0.2       0.1       3.9       0.5
 9 O  dz2             0.0       0.0       0.1       0.2       0.1       0.3
 9 O  dxz             0.0       0.0       0.4       0.3       0.7       0.1
 9 O  dyz             0.0       0.0       0.1       0.0       0.0       0.0
 9 O  dx2y2           0.0       0.0       0.0       0.0       1.4       0.1
 9 O  dxy             0.0       0.0       0.1       0.2       0.4       0.3
10 O  s               1.0       0.6      40.4       0.1       2.6       0.8
10 O  pz              0.0       0.0       0.5       0.0       2.6       2.1
10 O  px              0.0       0.0       0.1       0.0       0.4       0.1
10 O  py              0.1       0.1       1.1       0.1       0.2       0.0
10 O  dz2             0.0       0.0       0.0       0.0       0.9       0.3
10 O  dxz             0.0       0.0       0.1       0.0       0.1       0.0
10 O  dyz             0.1       0.0       0.0       0.1       0.1       0.3
10 O  dxy             0.0       0.0       0.0       0.1       0.1       0.0
11 O  s              27.3      14.4       5.9       1.8       2.0       0.0
11 O  pz              0.1       0.0       0.0       0.1       0.4       0.8
11 O  px              1.1       0.5       0.2       0.3       0.3       0.2
11 O  py              0.0       0.0       0.0       1.4       3.2       3.8
11 O  dz2             0.1       0.0       0.0       0.1       0.1       0.0
11 O  dxz             0.0       0.0       0.0       0.0       0.1       0.1
11 O  dyz             0.0       0.0       0.1       0.0       0.2       0.2
11 O  dx2y2           0.0       0.1       0.1       0.0       0.1       0.5
11 O  dxy             0.0       0.0       0.0       0.6       0.6       0.0
12 O  s               0.4      30.7       0.8       3.4       0.2       1.5
12 O  pz              0.0       0.3       0.0       0.4       0.0       4.1
12 O  px              0.0       0.0       0.0       1.3       0.3       6.5
12 O  py              0.0       0.8       0.0       2.1       0.1       4.9
12 O  dz2             0.0       0.0       0.0       0.3       0.0       0.3
12 O  dyz             0.0       0.0       0.0       0.0       0.0       0.2
12 O  dx2y2           0.1       0.0       0.0       0.5       0.0       0.3
12 O  dxy             0.1       0.0       0.0       0.6       0.2       0.5
13 O  s              26.2      15.7       0.3       3.4       0.9       0.1
13 O  pz              0.1       0.1       0.0       1.7       0.6       1.3
13 O  px              1.1       0.5       0.0       1.9       0.6       0.3
13 O  py              0.0       0.0       0.0       0.0       0.1       0.3
13 O  dz2             0.0       0.0       0.0       0.2       0.1       0.0
13 O  dxz             0.0       0.0       0.0       0.4       0.1       0.1
13 O  dx2y2           0.1       0.0       0.0       0.6       0.1       0.0
13 O  dxy             0.0       0.0       0.0       0.0       0.1       0.4
14 H  s               0.1       0.0       0.2       0.6       3.3       1.7
14 H  py              0.0       0.0       0.0       0.0       0.2       0.1
15 H  s               0.1       0.0       0.1       0.7       2.4       1.2
15 H  pz              0.0       0.0       0.0       0.1       0.2       0.1
16 H  s               0.3       0.2       7.2       0.0       1.0       0.3
16 H  pz              0.0       0.0       0.1       0.0       0.0       0.0
16 H  px              0.0       0.0       0.3       0.0       0.0       0.0
16 H  py              0.0       0.0       1.2       0.0       0.2       0.1
17 H  s               4.6       2.3       1.1       0.6       1.1       1.0
17 H  px              0.3       0.1       0.1       0.1       0.1       0.0
17 H  py              0.8       0.4       0.2       0.1       0.1       0.0
18 H  s               0.0       5.4       0.1       1.2       0.1       3.9
18 H  pz              0.0       0.6       0.0       0.2       0.0       0.3
18 H  px              0.0       0.6       0.0       0.1       0.0       0.2
19 H  s               4.5       2.8       0.0       1.3       0.4       0.4
19 H  pz              1.0       0.6       0.0       0.3       0.1       0.0

                     18        19        20        21        22        23   
                  -0.62259  -0.57041  -0.52322  -0.50474  -0.49984  -0.47127
                   2.00000   2.00000   2.00000   2.00000   2.00000   2.00000
                  --------  --------  --------  --------  --------  --------
 0 C  s               4.0       4.0       0.3       0.0       1.0       0.0
 0 C  pz              0.1       5.9       0.3       0.0       0.1       8.2
 0 C  px              1.1       1.2       0.4       0.1       5.8       0.9
 0 C  py              3.1       0.0       4.1       1.2       0.1       1.2
 0 C  dxz             0.0       0.1       0.0       0.0       0.1       0.0
 1 C  s               9.7       0.5       0.0       0.2       0.0       0.2
 1 C  pz              1.5       4.6       0.1       3.4       0.1       4.5
 1 C  px              0.7       1.9       8.0       2.5       0.7       2.6
 1 C  py              1.3       1.6       0.7       0.3       2.9       4.2
 1 C  dx2y2           0.0       0.1       0.0       0.1       0.1       0.2
 2 H  s               4.4       2.0       0.1       0.7       0.0       1.9
 2 H  pz              0.4       0.1       0.0       0.0       0.0       0.0
 3 C  s               0.0       0.5       0.1       0.2       0.0       0.4
 3 C  pz              0.1       4.4       2.8       6.3       1.0       2.4
 3 C  px              4.9       0.0       0.4       2.8       0.1       4.2
 3 C  py              1.7       0.1       9.2       3.0       1.6       0.1
 4 H  s               0.1       1.4       0.4       2.1       0.4       0.5
 5 C  s               5.9       2.5       0.0       1.4       0.3       0.4
 5 C  pz              0.0       1.9       0.2       2.2       6.8       0.8
 5 C  px              0.1       0.1       3.9       7.6       2.2       0.2
 5 C  py              0.1       0.6       1.2       1.5       0.3       0.1
 5 C  dxy             0.0       0.0       0.0       0.0       0.2       0.0
 6 H  s               1.6       2.3       0.2       3.0       2.7       0.0
 6 H  pz              0.1       0.2       0.0       0.2       0.1       0.0
 7 C  s               1.4       4.5       0.3       0.1       0.6       0.6
 7 C  pz              0.2       1.0       0.4       5.3      11.4       0.8
 7 C  px              0.5       0.9       4.2       0.4       1.2       9.8
 7 C  py              4.5       0.7       0.1       1.6       0.3       1.1
 7 C  dz2             0.0       0.1       0.0       0.2       0.0       0.1
 7 C  dyz             0.0       0.0       0.0       0.2       0.0       0.1
 8 H  s               0.8       1.7       1.6       1.1       3.7       3.0
 8 H  pz              0.0       0.1       0.0       0.0       0.0       0.1
 8 H  px              0.1       0.1       0.0       0.1       0.2       0.0
 9 O  s               0.0       3.8       0.4       0.3       0.1       0.1
 9 O  pz              0.3       2.8       0.3       2.2       4.4       0.5
 9 O  px              8.7       1.5       0.1       0.0       2.7       6.3
 9 O  py              2.2       0.9       2.7       0.3       1.1       5.4
 9 O  dz2             0.0       0.0       0.0       0.2       0.6       0.4
 9 O  dxz             0.4       0.1       0.0       0.3       0.3       0.3
 9 O  dyz             0.0       0.2       0.1       0.0       0.5       0.0
 9 O  dx2y2           0.0       0.3       0.4       0.0       0.2       0.3
 9 O  dxy             0.0       0.5       0.8       0.0       0.2       0.2
10 O  s               0.0       0.8       0.2       0.8       0.2       0.2
10 O  pz              1.0      10.7       0.5       4.2       5.2       8.4
10 O  px              0.0       3.0       0.5       3.6       6.3       0.5
10 O  py              0.8       3.6       0.1       9.0       1.4       0.3
10 O  dz2             0.3       0.5       0.1       0.1       0.2       0.3
10 O  dxz             0.0       0.0       0.1       0.0       0.1       0.4
10 O  dyz             0.1       0.0       0.0       0.0       0.2       0.2
10 O  dx2y2           0.0       0.1       0.1       0.1       0.0       0.0
10 O  dxy             0.0       0.0       0.0       0.0       0.1       0.0
11 O  s               1.4       0.2       0.0       1.3       0.3       0.3
11 O  pz              0.5       0.8       0.3       0.4       0.0       0.0
11 O  px              0.6       0.1       0.0       5.2       0.2       1.5
11 O  py              5.9       2.8       7.3       5.4      12.2       0.3
11 O  dxz             0.1       0.3       0.0       0.1       0.1       0.0
11 O  dyz             0.0       0.0       0.0       0.1       0.1       0.0
11 O  dx2y2           0.0       0.0       0.0       0.4       0.0       0.1
11 O  dxy             0.6       0.2       0.0       0.1       0.3       0.1
12 O  s               0.1       0.1       0.1       0.0       0.1       0.7
12 O  pz              0.1       1.7       9.4       0.4       0.6       0.1
12 O  px              0.6       0.6       8.5       3.3       3.8       0.0
12 O  py              0.1       0.1       2.6       0.0       0.1       4.3
12 O  dxz             0.0       0.0       0.0       0.2       0.1       0.0
12 O  dyz             0.0       0.2       0.1       0.3       0.0       0.1
12 O  dx2y2           0.2       0.0       0.0       0.3       0.1       0.3
12 O  dxy             0.2       0.0       0.0       0.1       0.0       0.0
13 O  s               1.1       0.2       0.1       0.8       0.0       0.0
13 O  pz              9.8       4.4      11.5       4.0       2.1       7.2
13 O  px              4.2       0.1       1.4       0.5       0.3       3.4
13 O  py              0.2       0.3       0.0       0.1       1.2       1.2
13 O  dz2             0.1       0.1       0.1       0.1       0.0       0.3
13 O  dxz             0.7       0.3       0.1       0.1       0.0       0.2
13 O  dx2y2           0.4       0.0       0.0       0.1       0.0       0.0
13 O  dxy             0.1       0.1       0.0       0.1       0.3       0.3
14 H  s               1.8       1.1       1.7       0.2       1.7       0.5
15 H  s               1.4       4.4       0.0       0.0       0.2       2.4
15 H  pz              0.1       0.2       0.0       0.0       0.0       0.1
16 H  s               0.4       4.3       0.0       4.1       2.7       0.7
16 H  py              0.0       0.4       0.0       0.1       0.3       0.0
17 H  s               1.6       0.8       1.8       1.6       3.0       0.0
17 H  px              0.2       0.1       0.1       0.0       0.1       0.0
18 H  s               0.1       0.4       4.7       0.2       0.9       0.0
18 H  pz              0.0       0.0       0.1       0.1       0.0       0.0
19 H  s               3.5       0.9       3.1       0.7       0.6       2.2
19 H  pz              0.3       0.0       0.1       0.0       0.0       0.1

                     24        25        26        27        28        29   
                  -0.46636  -0.44672  -0.43363  -0.41259  -0.38801  -0.37953
                   2.00000   2.00000   2.00000   2.00000   2.00000   2.00000
                  --------  --------  --------  --------  --------  --------
 0 C  s               0.1       0.1       0.2       0.6       0.3       0.1
 0 C  pz              7.1       2.4       1.2       6.8       2.0       2.8
 0 C  px              0.1       2.7       4.5       0.0       4.5       5.5
 0 C  py              0.3       8.8       2.8       3.3       8.0       2.2
 0 C  dxz             0.0       0.0       0.0       0.2       0.1       0.0
 0 C  dxy             0.0       0.0       0.0       0.1       0.2       0.0
 1 C  s               0.1       1.3       0.1       0.4       0.6       0.3
 1 C  pz              3.1       4.7       0.4       6.4       2.5       6.8
 1 C  px              0.4       3.4       0.1       0.3       0.2       0.7
 1 C  py              2.5       6.5       0.4       2.2       0.2       0.2
 1 C  dxz             0.0       0.0       0.0       0.0       0.0       0.3
 1 C  dx2y2           0.1       0.1       0.0       0.0       0.1       0.1
 2 H  s               0.5       3.1       0.2       2.1       1.0       4.1
 3 C  s               0.1       0.7       1.0       0.2       0.3       0.3
 3 C  pz              0.9       0.2       0.1       7.7       7.2       5.0
 3 C  px              4.3       0.0       8.3       0.1       0.4       1.0
 3 C  py              0.6       1.8       1.3       1.1       0.4       0.6
 3 C  dz2             0.0       0.1       0.1       0.0       0.2       0.2
 3 C  dx2y2           0.0       0.2       0.3       0.0       0.0       0.0
 3 C  dxy             0.1       0.0       0.1       0.1       0.1       0.0
 4 H  s               0.2       0.8       1.6       2.8       5.1       3.7
 5 C  s               0.2       0.4       0.0       0.3       0.1       0.1
 5 C  pz              6.9       0.6      10.4       4.5       2.6       0.4
 5 C  px              0.3       1.0       2.7       0.1       0.6       0.1
 5 C  py              9.0       2.9       3.1       0.6       1.4       0.8
 5 C  dz2             0.0       0.0       0.0       0.1       0.0       0.0
 5 C  dxy             0.3       0.2       0.0       0.0       0.0       0.0
 6 H  s               3.1       0.7       2.8       3.1       1.5       0.2
 6 H  pz              0.1       0.0       0.1       0.1       0.0       0.0
 7 C  s               0.9       0.5       0.1       0.1       0.1       0.2
 7 C  pz              0.1       0.7       0.0       0.5       0.0       1.5
 7 C  px              1.8       1.1       3.6       1.9       5.9       4.0
 7 C  py              7.0       2.2       2.9       0.1       0.0       0.4
 7 C  dz2             0.0       0.0       0.0       0.1       0.0       0.0
 7 C  dxz             0.0       0.0       0.0       0.0       0.0       0.1
 7 C  dyz             0.0       0.0       0.1       0.1       0.0       0.0
 7 C  dxy             0.1       0.1       0.0       0.0       0.0       0.0
 8 H  s               0.1       1.5       1.0       0.2       2.4       3.7
 9 O  s               0.2       0.0       1.1       0.4       0.0       0.5
 9 O  pz              0.5       0.2       4.1       2.4       2.2       3.9
 9 O  px              6.2       0.7       5.0       3.8       1.7       0.4
 9 O  py              1.8       4.4       4.7       1.3       0.3       0.0
 9 O  dz2             0.4       0.0       0.2       0.1       0.0       0.1
 9 O  dxz             0.1       0.3       0.1       0.4       0.3       0.2
 9 O  dyz             0.1       0.2       0.0       0.0       0.0       0.1
 9 O  dx2y2           0.3       0.2       0.7       0.0       0.1       0.2
 9 O  dxy             0.0       1.0       0.1       0.1       0.3       0.1
10 O  s               1.1       0.3       0.0       0.4       1.9       0.0
[...]
 5 C  px              0.0       0.0       0.2       0.0       0.0       0.0
 5 C  py              0.1       0.0       0.3       0.0       0.0       0.0
 5 C  dxy             0.0       0.1       0.4       0.0       0.0       0.0
 7 C  s               0.0       0.0       0.2       1.4       2.4       0.2
 7 C  pz              0.0       0.1       1.3       0.0       0.0       0.0
 7 C  px              0.0       0.0       0.5       0.0       0.0       0.0
 7 C  dz2             0.0       0.1       1.5       0.0       0.0       0.0
 7 C  dyz             0.0       0.0       0.2       0.0       0.0       0.0
 7 C  dxy             0.0       0.0       0.1       0.0       0.0       0.0
 9 O  s               0.0       0.1       0.4       0.0       0.0       0.0
 9 O  px              0.0       0.0       0.4       0.0       0.0       0.0
 9 O  py              0.0       0.1       0.5       0.0       0.0       0.0
 9 O  dz2             0.0       0.0       0.2       0.0       0.0       0.0
 9 O  dxy             0.0       0.1       0.4       0.0       0.0       0.0
10 O  s               0.0       0.3       4.5       0.0       0.0       0.0
10 O  pz              0.1       0.3       3.7       0.0       0.0       0.0
10 O  px              0.0       0.2       3.0       0.0       0.0       0.0
10 O  py              0.1       0.6       7.6       0.0       0.0       0.0
10 O  dz2             0.1       0.8       9.5       0.0       0.0       0.0
10 O  dyz             0.0       0.2       2.7       0.0       0.0       0.0
10 O  dx2y2           0.1       0.4       5.8       0.0       0.0       0.0
10 O  dxy             0.1       0.7       9.3       0.0       0.0       0.0
11 O  s               0.0       1.8       1.9       0.0       0.0       0.0
11 O  pz              0.0       0.1       0.2       0.0       0.0       0.0
11 O  px              0.0       0.8       0.7       0.0       0.0       0.0
11 O  py              0.2       2.4       5.3       0.0       0.0       0.0
11 O  dz2             0.0       1.3       1.4       0.0       0.0       0.0
11 O  dxz             0.0       0.1       0.5       0.0       0.0       0.0
11 O  dx2y2           0.0       0.3       0.4       0.0       0.0       0.0
11 O  dxy             0.3       4.2       8.0       0.0       0.0       0.0
12 O  s               0.0       6.8       0.0       0.0       0.0       0.0
12 O  pz              0.2       7.3       0.0       0.0       0.0       0.0
12 O  px              0.2       7.8       0.0       0.0       0.0       0.0
12 O  py              0.0       0.3       0.0       0.0       0.0       0.0
12 O  dz2             0.1       4.8       0.0       0.0       0.0       0.0
12 O  dxz             0.3      16.9       0.0       0.0       0.0       0.0
12 O  dyz             0.0       0.9       0.0       0.0       0.0       0.0
12 O  dx2y2           0.1       5.1       0.0       0.0       0.0       0.0
12 O  dxy             0.1       1.7       0.0       0.0       0.0       0.0
13 O  s               6.5       0.0       0.0       0.0       0.1       0.0
13 O  pz             18.6       0.1       0.0       0.0       0.0       0.0
13 O  px              0.5       0.0       0.0       0.0       0.0       0.0
13 O  dz2            31.7       0.1       0.0       0.0       0.0       0.0
13 O  dxz             5.4       0.0       0.0       0.0       0.0       0.0
13 O  dyz             0.3       0.0       0.0       0.0       0.0       0.0
13 O  dx2y2           0.7       0.0       0.0       0.0       0.0       0.0
16 H  s               0.1       0.7       9.0       0.0       0.0       0.0
16 H  pz              0.0       0.1       0.5       0.0       0.0       0.0
16 H  px              0.0       0.2       2.1       0.0       0.0       0.0
16 H  py              0.1       0.7       8.1       0.0       0.0       0.0
17 H  s               0.1       2.2       3.7       0.0       0.0       0.0
17 H  px              0.0       0.9       1.3       0.0       0.0       0.0
17 H  py              0.1       1.8       2.8       0.0       0.0       0.0
18 H  s               0.2      10.6       0.0       0.0       0.0       0.0
18 H  pz              0.1       6.7       0.0       0.0       0.0       0.0
18 H  px              0.1       5.4       0.0       0.0       0.0       0.0
18 H  py              0.0       0.1       0.0       0.0       0.0       0.0
19 H  s              13.0       0.0       0.0       0.0       0.0       0.0
19 H  pz             15.0       0.1       0.0       0.0       0.0       0.0
19 H  px              0.2       0.0       0.0       0.0       0.0       0.0

                    258       259       260       261       262       263   
                  22.26641  22.32243  43.65553  43.74494  43.78100  43.84536
                   0.00000   0.00000   0.00000   0.00000   0.00000   0.00000
                  --------  --------  --------  --------  --------  --------
 0 C  s               7.1       0.2       0.0       0.0       0.0       0.0
 1 C  s               4.2       5.7       0.0       0.0       0.0       0.0
 3 C  s              15.1       0.1       0.0       0.0       0.0       0.1
 5 C  s              61.0      10.2       0.0       0.0       0.0       0.1
 7 C  s              12.0      83.5       0.0       0.0       0.0       0.0
 9 O  s               0.0       0.1       1.7       9.8      15.3      26.2
10 O  s               0.0       0.0       9.4      16.7      21.3       5.5
11 O  s               0.0       0.0      20.7      21.7       0.0      51.8
12 O  s               0.0       0.0      49.9       1.2      35.3      13.4
13 O  s               0.0       0.0      18.1      50.6      27.9       2.8

                    264   
                  43.87384
                   0.00000
                  --------
 7 C  s               0.1
 9 O  s              46.8
10 O  s              46.9
11 O  s               5.6
13 O  s               0.4


                      *****************************
                      * MAYER POPULATION ANALYSIS *
                      *****************************

  NA   - Mulliken gross atomic population
  ZA   - Total nuclear charge
  QA   - Mulliken gross atomic charge
  VA   - Mayer's total valence
  BVA  - Mayer's bonded valence
  FA   - Mayer's free valence

  ATOM       NA         ZA         QA         VA         BVA        FA
  0 C      6.2304     6.0000    -0.2304     3.7031     3.7031     0.0000
  1 C      6.1521     6.0000    -0.1521     3.8222     3.8222     0.0000
  2 H      0.8338     1.0000     0.1662     0.9536     0.9536     0.0000
  3 C      6.0459     6.0000    -0.0459     3.7492     3.7492     0.0000
  4 H      0.8247     1.0000     0.1753     0.9542     0.9542     0.0000
  5 C      5.9753     6.0000     0.0247     3.5234     3.5234     0.0000
  6 H      0.8357     1.0000     0.1643     0.9541     0.9541     0.0000
  7 C      5.9667     6.0000     0.0333     3.8020     3.8020     0.0000
  8 H      0.8586     1.0000     0.1414     0.9499     0.9499     0.0000
  9 O      8.2028     8.0000    -0.2028     1.8507     1.8507     0.0000
 10 O      8.4157     8.0000    -0.4157     1.8058     1.8058    -0.0000
 11 O      8.4594     8.0000    -0.4594     1.8235     1.8235     0.0000
 12 O      8.4075     8.0000    -0.4075     1.8594     1.8594    -0.0000
 13 O      8.3748     8.0000    -0.3748     1.8381     1.8381     0.0000
 14 H      0.8419     1.0000     0.1581     0.9517     0.9517    -0.0000
 15 H      0.8320     1.0000     0.1680     0.9542     0.9542     0.0000
 16 H      0.6771     1.0000     0.3229     0.9134     0.9134     0.0000
 17 H      0.6806     1.0000     0.3194     0.9105     0.9105     0.0000
 18 H      0.6889     1.0000     0.3111     0.9048     0.9048     0.0000
 19 H      0.6962     1.0000     0.3038     0.9045     0.9045     0.0000

  Mayer bond orders larger than 0.100000
B(  0-C ,  1-C ) :   0.9206 B(  0-C ,  9-O ) :   0.9130 B(  0-C , 14-H ) :   0.9433 
B(  0-C , 15-H ) :   0.9773 B(  1-C ,  2-H ) :   0.9527 B(  1-C ,  3-C ) :   0.9615 
B(  1-C , 13-O ) :   0.9876 B(  3-C ,  4-H ) :   0.9608 B(  3-C ,  5-C ) :   0.8952 
B(  3-C , 12-O ) :   1.0161 B(  5-C ,  6-H ) :   0.9600 B(  5-C ,  7-C ) :   0.8879 
B(  5-C , 11-O ) :   0.8834 B(  7-C ,  8-H ) :   0.9502 B(  7-C ,  9-O ) :   1.0361 
B(  7-C , 10-O ) :   0.9734 B( 10-O , 16-H ) :   0.8583 B( 11-O , 17-H ) :   0.8697 
B( 12-O , 18-H ) :   0.8887 B( 13-O , 19-H ) :   0.8872 

-------
TIMINGS
-------

Total SCF time: 0 days 0 hours 0 min 26 sec 

Total time                  ....      26.659 sec
Sum of individual times     ....      26.625 sec  ( 99.9%)

SCF preparation             ....       0.057 sec  (  0.2%)
Fock matrix formation       ....      26.212 sec  ( 98.3%)
  Startup                   ....       0.006 sec  (  0.0% of F)
  Split-RI-J                ....       7.400 sec  ( 28.2% of F)
  XC integration            ....      18.761 sec  ( 71.6% of F)
    XC Preparation          ....       0.000 sec  (  0.0% of XC)
    Basis function eval.    ....       2.907 sec  ( 15.5% of XC)
    Density eval.           ....       7.096 sec  ( 37.8% of XC)
    XC-Functional eval.     ....       1.498 sec  (  8.0% of XC)
    XC-Potential eval.      ....       6.973 sec  ( 37.2% of XC)
Diagonalization             ....       0.000 sec  (  0.0%)
Density matrix formation    ....       0.024 sec  (  0.1%)
Total Energy calculation    ....       0.002 sec  (  0.0%)
Population analysis         ....       0.130 sec  (  0.5%)
Orbital Transformation      ....       0.027 sec  (  0.1%)
Orbital Orthonormalization  ....       0.000 sec  (  0.0%)
DIIS solution               ....       0.154 sec  (  0.6%)
  MO trafo                  ....       0.000 sec  (  0.0 % of DIIS)
  Orb grad                  ....       0.000 sec  (  0.0 % of DIIS)
  Energy W gradient         ....       0.000 sec  (  0.0 % of DIIS)
  DIIS error                ....       0.026 sec  ( 17.1 % of DIIS)
  DIIS work                 ....       0.109 sec  ( 70.7 % of DIIS)
  Form Q                    ....       0.000 sec  (  0.0 % of DIIS)
  Form QpQm                 ....       0.000 sec  (  0.0 % of DIIS)
  Exp/Cayley                ....       0.000 sec  (  0.0 % of DIIS)
  Orb update                ....       0.000 sec  (  0.0 % of DIIS)
  Wake-sleep                ....       0.001 sec  (  0.7 % of DIIS)
SOSCF solution              ....       0.019 sec  (  0.1%)
  MO trafo                  ....       0.015 sec  ( 80.4 % of SOSCF)
  Orb grad                  ....       0.000 sec  (  0.3 % of SOSCF)
  Rot update                ....       0.000 sec  (  0.1 % of SOSCF)
  Step                      ....       0.004 sec  ( 18.9 % of SOSCF)
Finished LeanSCF after  26.7 sec

Maximum memory used throughout the entire LEANSCF-calculation: 31.4 MB


-------------------------------------------------------------------------------
                          DFT DISPERSION CORRECTION                            
                                                                               
                                DFTD4 V3.4.0                                   
-------------------------------------------------------------------------------
The R2SCAN3C composite method is recognized
Using three-body term ABC
Active option DFTDOPT                   ...         5   

-------------------------   ----------------
Dispersion correction           -0.006342477
-------------------------   ----------------

------------------   -----------------
gCP correction             0.016590106
------------------   -----------------

-------------------------   --------------------
FINAL SINGLE POINT ENERGY      -572.560272641148
-------------------------   --------------------


------------------------------------------------------------------------------
                              ORCA PROPERTY CALCULATIONS
------------------------------------------------------------------------------

GBWName                                 ... sp.gbw
Number of atoms                         ...     20
Number of basis functions               ...    265
Max core memory                         ...   1024 MB

Electric properties:
Dipole moment                           ... YES
Quadrupole moment                       ...  NO
Static polarizability (Dipole/Dipole)   ...  NO
Static polarizability (Dipole/Quad.)    ...  NO
Static polarizability (Quad./Quad.)     ...  NO
Static polarizability (Velocity)        ...  NO

Atomic electric properties:
Dipole moment                           ...  NO
Quadrupole moment                       ...  NO
Static polarizability                   ...  NO

Choice of electric origin               ... Center of mass
Position of electric origin             ...     0.000003     0.000004    -0.000003

General magnetic properties:
Magnetizability                         ...  NO

EPR properties:
g-Tensor (aka g-matrix)                 ...  NO
Zero-Field splitting spin-orbit         ...  NO
Zero-field splitting spin-spin          ...  NO
Hyperfine couplings                     ...  NO (   0 nuclei)
Quadrupole couplings                    ...  NO (   0 nuclei)
Contact density                         ...  NO (   0 nuclei)

NMR properties:
Chemical shifts                         ...  NO (   0 nuclei)
Spin-rotation constants                 ...  NO (   0 nuclei)
Spin-spin couplings                     ...  NO (   0 nuclei,    0 pairs)

Choice of magnetic origin               ... GIAO
Position of magnetic origin             ...     0.000000     0.000000     0.000000

Properties with geometric perturbations:
SCF Hessian                             ...  NO
IR spectrum                             ...  NO
VCD spectrum                            ...  NO
X-ray spectroscopy properties:
SCF XES/XAS/RIXS spectra                ...  NO


-------------
DIPOLE MOMENT
-------------

Method             : SCF
Type of density    : Electron Density
Multiplicity       :   1
Irrep              :   0
Energy             :  -572.5705202695470462 Eh
Relativity type    : 
Basis              : AO
                                X                 Y                 Z
Electronic contribution:     -1.034421019      -0.222786649      -0.056394850
Nuclear contribution   :      1.388526631      -0.188695780       0.026388635
                        -----------------------------------------
Total Dipole Moment    :      0.354105612      -0.411482429      -0.030006216
                        -----------------------------------------
Magnitude (a.u.)       :      0.543699317
Magnitude (Debye)      :      1.381973835



--------------------
Rotational spectrum 
--------------------
 
Rotational constants in cm-1:             0.057313             0.044820             0.029108 
Rotational constants in MHz :          1718.205490          1343.679539           872.627010 

Dipole components along the rotational axes: 
x,y,z [a.u.] :     0.343441     0.420365    -0.030826 
x,y,z [Debye]:     0.872958     1.068483    -0.078354 

 

Dipole moment calculation done in   0.0 sec 

Maximum memory used throughout the entire PROP-calculation: 19.8 MB

--------------------------------
SUGGESTED CITATIONS FOR THIS RUN
--------------------------------

Below you find a list of papers that are relevant to this ORCA run
We neither can nor want to force you to cite these papers, but we appreciate if you do
You receive ORCA, which is the product of decades of hard work by many enthusiastic individuals, for free
The only thing we kindly ask in return is that you cite our papers,
We deeply appreciate it, if you show your appreciation for ORCA by not just citing the generic ORCA reference.

Please note that relegating all ORCA citations to the supporting information does *not* help us.
SI sections are not indexed - citations you put there will not count into any citation statistics
But we need these citations in order to attract the funding resources that allow us to do what we are doing

Therefore, if you are a happy ORCA user, please consider citing a few of the papers listed below in the main body of your paper

In addition to the list printed below, the program has created the file sp.bibtex that contains the list in bibtex format
You can import this file easily into all common literature databanks and citation aid programs


List of essential papers. We consider these as the minimum necessary citations

  1. Neese,F.
     Software update: the ORCA program system, version 5.0
     WIRES Comput. Molec. Sci., 2022 12(1)e1606
     doi.org/10.1002/wcms.1606
  2. Grimme,S.; Hansen,A.; Ehlert,S.; Mewes,J.
     r2SCAN-3c: A 'Swiss army knife' composite electronic-structure method
     J. Chem. Phys., 2021 154 064103
     doi.org/10.1063/5.0040021

List of papers to cite with high priority. The work reported in these papers was absolutely
necessary for this run to complete.
Our perspective: the developers of density functionals and basis sets usually get cited in chemistry papers
Good! But without the algorithms to do something with them, the functionals or basis sets would not do anything.
Hence, in our opinion, the algorithm design and method developments papers are equally worthy of getting cited

  1. Neese,F.
     An improvement of the resolution of the identity approximation for the formation of the Coulomb matrix
     J. Comp. Chem., 2003 24(14)1740-1747
     doi.org/10.1002/jcc.10318
  2. Neese,F.
     The SHARK Integral Generation and Digestion System
     J. Comp. Chem., 2022  1-16
     doi.org/10.1002/jcc.26942
  3. Lehtola,S.; Steigemann,C.; Oliveira,M.; Marques,M.
     Recent developments in Libxc - A comprehensive library of functionals for density functional theory
     Software X, 2018 7 
     doi.org/10.1016/j.softx.2017.11.002
  4. Caldeweyher,E.; Bannwarth,C.; Grimme,S.
     Extension of the D3 dispersion coefficient model
     J. Chem. Phys., 2017 147 034112
     doi.org/10.1063/1.4993215
  5. Caldeweyher,E.; Ehlert,S.; Hansen,A.; Neugebauer,H.; Spicher,S.; Bannwarth,C.; Grimme,S.
     A generally applicable atomic-charge dependent London dispersion correction
     J. Chem. Phys., 2019 150 154122
     doi.org/10.1063/1.5090222
  6. Caldeweyher,E.; Mewes,J.; Ehlert,S.; Grimme,S.
     Extension and evaluation of the D4 London-dispersion model for periodic systems
     Phys. Chem. Chem. Phys., 2020 22(16)8499-8512
     doi.org/10.1039/D0CP00502A
  7. Wittmann,L.; Gordiy,I.; Friede,M.; Helmich-Paris,B.; Grimme,S.; Hansen,A.; Bursch,M.
     Extension of the D3 and D4 London Dispersion Corrections to the full Actinides Series
     Phys. Chem. Chem. Phys., 2024 26(32)21379-21394
     doi.org/https://doi.org/10.1039/D4CP01514B 

List of suggested additional citations. These are papers that are important in the 'surrounding' of 
of this run, or papers that preceded the highly important papers. If you like your results we are grateful for a citation.

  1. Neese,F.
     The ORCA program system
     WIRES Comput. Molec. Sci., 2012 2(1)73-78
     doi.org/10.1002/wcms.81
  2. Neese,F.
     Software update: the ORCA program system, version 4.0
     WIRES Comput. Molec. Sci., 2018 8(1)1-6
     doi.org/10.1002/wcms.1327
  3. Neese,F.; Wennmohs,F.; Becker,U.; Riplinger,C.
     The ORCA quantum chemistry program package
     J. Chem. Phys., 2020 152 Art. No. L224108
     doi.org/10.1063/5.0004608

List of optional additional citations

  1. Neese,F.
     Approximate second-order SCF convergence for spin unrestricted wavefunctions
     Chem. Phys. Lett., 2000 325(1-3)93-98
     doi.org/10.1016/s0009-2614(00)00662-x

Timings for individual modules:

Sum of individual times          ...       27.903 sec (=   0.465 min)
Startup calculation              ...        1.065 sec (=   0.018 min)   3.8 %
SCF iterations                   ...       26.794 sec (=   0.447 min)  96.0 %
Property calculations            ...        0.045 sec (=   0.001 min)   0.2 %
                             ****ORCA TERMINATED NORMALLY****
TOTAL RUN TIME: 0 days 0 hours 0 minutes 27 seconds 994 msec
