 Entering Gaussian System
 *********************************************
 Gaussian 98:
 frequency output generated by the xtb code
 *********************************************
                         Standard orientation:
 --------------------------------------------------------------------
  Center     Atomic     Atomic              Coordinates (Angstroms)
  Number     Number      Type              X           Y           Z
 --------------------------------------------------------------------
    1          6             0       -2.491960   -0.051921   -0.100188
    2          6             0       -1.223709    0.767735    0.089465
    3          6             0        0.018821   -0.083854   -0.039407
    4          8             0        0.039316   -1.273571   -0.202598
    5          8             0        1.116437    0.682002    0.057230
    6          6             0        2.383681    0.042989   -0.034814
    7          1             0       -2.506434   -0.500423   -1.089954
    8          1             0       -2.533700   -0.853682    0.632128
    9          1             0       -3.370142    0.577945    0.014513
   10          1             0       -1.204906    1.232054    1.077916
   11          1             0       -1.159291    1.570334   -0.647688
   12          1             0        2.945108    0.516318   -0.840074
   13          1             0        2.248355   -1.020205   -0.241787
   14          1             0        2.908994    0.176135    0.911372
 --------------------------------------------------------------------
     1 basis functions        1 primitive gaussians
     1 alpha electrons        1 beta electrons

 Harmonic frequencies (cm**-1), IR intensities (km*mol⁻¹),
 Raman scattering activities (A**4/amu), Raman depolarization ratios,
 reduced masses (AMU), force constants (mDyne/A) and normal coordinates:
                      1                      2                      3
                        a                      a                      a 
 Frequencies --   -25.6504                 8.8686               148.2120
 Red. masses --     1.0612                 2.2450                 1.6041
 Frc consts  --     0.0000                 0.0000                 0.0000
 IR Inten    --     0.3387                 0.0727                 3.3895
 Raman Activ --     0.0000                 0.0000                 0.0000
 Depolar     --     0.0000                 0.0000                 0.0000
 Atom AN      X      Y      Z        X      Y      Z        X      Y      Z
   1   6    -0.00   0.01  -0.01     0.01   0.08  -0.44     0.02   0.00  -0.15
   2   6     0.00  -0.01   0.04    -0.01  -0.06   0.34    -0.01   0.01  -0.01
   3   6    -0.00  -0.00  -0.03    -0.00  -0.03   0.17    -0.00  -0.02   0.20
   4   8    -0.01   0.02  -0.18     0.01  -0.06   0.39    -0.01   0.01   0.04
   5   8    -0.00  -0.02   0.13    -0.01   0.02  -0.17     0.00  -0.06   0.44
   6   6     0.01   0.01   0.04    -0.01   0.04  -0.24    -0.01   0.04  -0.37
   7   1    -0.00   0.02  -0.01     0.04   0.24  -0.22     0.22  -0.29   0.09
   8   1    -0.00  -0.01  -0.02    -0.02  -0.13  -0.30    -0.21   0.22   0.18
   9   1     0.00   0.00   0.01     0.00   0.00  -0.02     0.01   0.07  -0.44
  10   1     0.00  -0.02   0.02    -0.07  -0.20   0.19    -0.05   0.05  -0.03
  11   1    -0.00   0.01   0.03     0.06   0.12   0.25     0.04  -0.04  -0.04
  12   1    -0.20  -0.38  -0.35    -0.03  -0.00  -0.10    -0.12   0.08  -0.16
  13   1    -0.01  -0.10   0.55    -0.00   0.01  -0.04    -0.01   0.02  -0.17
  14   1     0.21   0.49  -0.18     0.03   0.04  -0.09     0.13  -0.05  -0.17
                      4                      5                      6
                        a                      a                      a 
 Frequencies --   193.9816               199.3424               329.8313
 Red. masses --     2.1743                 2.1136                 4.1089
 Frc consts  --     0.0000                 0.0000                 0.0000
 IR Inten    --     3.0058                 4.2345                21.0205
 Raman Activ --     0.0000                 0.0000                 0.0000
 Depolar     --     0.0000                 0.0000                 0.0000
 Atom AN      X      Y      Z        X      Y      Z        X      Y      Z
   1   6    -0.21   0.32   0.05    -0.19   0.27   0.03     0.32  -0.08  -0.01
   2   6     0.07  -0.16   0.18     0.07  -0.06  -0.28     0.12   0.17   0.03
   3   6     0.01  -0.23  -0.08     0.01  -0.21   0.03    -0.08  -0.10  -0.01
   4   8     0.16  -0.26  -0.11     0.13  -0.24   0.07    -0.64  -0.13  -0.02
   5   8    -0.11  -0.04  -0.30    -0.09  -0.13   0.35    -0.04  -0.24  -0.05
   6   6     0.07   0.25   0.19     0.07   0.26  -0.15     0.22   0.33   0.05
   7   1     0.02  -0.08   0.09    -0.29   0.27  -0.07     0.15  -0.03  -0.00
   8   1    -0.30   0.23   0.15     0.05  -0.06  -0.13     0.16  -0.03  -0.01
   9   1     0.02   0.25  -0.23     0.00   0.10   0.31     0.03  -0.10  -0.02
  10   1     0.07  -0.12   0.09     0.05   0.08  -0.13     0.04   0.05   0.01
  11   1     0.07   0.01   0.12     0.07  -0.09  -0.16     0.04   0.04   0.00
  12   1     0.06   0.08   0.09    -0.09   0.17  -0.06     0.02   0.18   0.03
  13   1     0.12   0.06   0.08     0.09   0.08  -0.09     0.22   0.08   0.00
  14   1    -0.07   0.15   0.10     0.09   0.07  -0.08     0.02   0.17   0.03
                      7                      8                      9
                        a                      a                      a 
 Frequencies --   438.3044               559.4994               648.6507
 Red. masses --     4.1391                 2.6278                 4.1773
 Frc consts  --     0.0000                 0.0000                 0.0000
 IR Inten    --     0.7338                10.6950                 2.7632
 Raman Activ --     0.0000                 0.0000                 0.0000
 Depolar     --     0.0000                 0.0000                 0.0000
 Atom AN      X      Y      Z        X      Y      Z        X      Y      Z
   1   6     0.44   0.10   0.02    -0.02   0.00  -0.05     0.02  -0.05  -0.01
   2   6     0.28   0.12   0.02    -0.03  -0.00   0.13     0.30  -0.46  -0.07
   3   6    -0.06  -0.16  -0.00    -0.01  -0.09   0.69     0.25   0.00   0.05
   4   8     0.19  -0.18  -0.04     0.03   0.04  -0.30    -0.47   0.00  -0.01
   5   8    -0.40   0.11   0.01     0.01   0.02  -0.27     0.12   0.43   0.04
   6   6    -0.50   0.01   0.00     0.02  -0.01   0.01    -0.13   0.06   0.01
   7   1     0.17   0.03   0.01     0.03   0.08  -0.05    -0.13   0.01  -0.01
   8   1     0.17   0.02   0.00    -0.03  -0.06  -0.08    -0.14  -0.01  -0.00
   9   1     0.08  -0.03  -0.00    -0.01  -0.01  -0.00     0.14   0.18   0.04
  10   1     0.13   0.05  -0.00    -0.15   0.35  -0.13     0.07  -0.10  -0.03
  11   1     0.14   0.01  -0.01     0.12  -0.26  -0.24     0.08  -0.13  -0.03
  12   1    -0.12  -0.04  -0.01     0.04  -0.03   0.01     0.03  -0.08  -0.01
  13   1    -0.20   0.01   0.01     0.02  -0.01   0.02    -0.19   0.03   0.01
  14   1    -0.13  -0.03  -0.00    -0.04   0.03   0.02     0.01  -0.07  -0.01
                     10                     11                     12
                        a                      a                      a 
 Frequencies --   813.8391               877.7370              1004.1082
 Red. masses --     1.3678                 2.9467                 4.9020
 Frc consts  --     0.0000                 0.0000                 0.0000
 IR Inten    --    33.3608                28.0170                19.7567
 Raman Activ --     0.0000                 0.0000                 0.0000
 Depolar     --     0.0000                 0.0000                 0.0000
 Atom AN      X      Y      Z        X      Y      Z        X      Y      Z
   1   6     0.00   0.02  -0.09     0.18  -0.06  -0.00    -0.32  -0.07  -0.01
   2   6     0.01   0.06  -0.32     0.17  -0.29  -0.05     0.14   0.17   0.03
   3   6     0.00  -0.05   0.39    -0.09   0.28   0.05     0.44   0.03   0.01
   4   8     0.00   0.02  -0.11     0.08   0.45   0.06    -0.05   0.01   0.00
   5   8    -0.00   0.00  -0.08    -0.16  -0.44  -0.06     0.35  -0.29  -0.04
   6   6    -0.01   0.00   0.00    -0.15  -0.05  -0.01    -0.52   0.17   0.03
   7   1    -0.29  -0.25   0.10    -0.12   0.02  -0.01     0.03  -0.04   0.00
   8   1     0.28   0.19   0.20    -0.14   0.00   0.00     0.01  -0.04  -0.02
   9   1     0.00  -0.02   0.15     0.24   0.24   0.05    -0.20  -0.17  -0.04
  10   1    -0.22  -0.37   0.11    -0.00  -0.07  -0.02     0.06   0.04   0.01
  11   1     0.20   0.29   0.25    -0.02  -0.08  -0.02     0.03   0.05   0.01
  12   1    -0.00  -0.00  -0.00    -0.13   0.16   0.03    -0.14   0.10   0.02
  13   1     0.00  -0.00  -0.00     0.22  -0.04  -0.01     0.02   0.02   0.00
  14   1    -0.00   0.01   0.00    -0.10   0.15   0.01    -0.13   0.09   0.00
                     13                     14                     15
                        a                      a                      a 
 Frequencies --  1047.2821              1060.1886              1113.3637
 Red. masses --     1.5516                 1.4625                 2.8931
 Frc consts  --     0.0000                 0.0000                 0.0000
 IR Inten    --     3.7132                 4.8186                 2.2544
 Raman Activ --     0.0000                 0.0000                 0.0000
 Depolar     --     0.0000                 0.0000                 0.0000
 Atom AN      X      Y      Z        X      Y      Z        X      Y      Z
   1   6     0.30  -0.09  -0.01    -0.01   0.03  -0.22    -0.23  -0.44  -0.08
   2   6    -0.26   0.22   0.04     0.01  -0.07   0.38     0.39   0.44   0.08
   3   6     0.17  -0.08  -0.02    -0.00   0.05  -0.36    -0.00  -0.02   0.00
   4   8     0.01  -0.22  -0.03    -0.00   0.00   0.07     0.02  -0.02  -0.00
   5   8     0.18  -0.06  -0.01     0.02  -0.02   0.07    -0.25   0.03   0.03
   6   6    -0.16   0.12   0.01    -0.02   0.01  -0.04     0.16  -0.04  -0.05
   7   1    -0.19   0.04  -0.02    -0.25  -0.20   0.05    -0.28  -0.06  -0.04
   8   1    -0.19   0.03   0.03     0.23   0.16   0.13    -0.30  -0.09  -0.01
   9   1     0.32   0.31   0.07    -0.00  -0.02   0.13     0.11   0.13   0.02
  10   1    -0.39   0.07   0.01    -0.40   0.24  -0.03     0.14   0.11   0.02
  11   1    -0.40   0.07  -0.00     0.41  -0.21  -0.09     0.12   0.13   0.03
  12   1     0.01  -0.03  -0.00     0.05  -0.02   0.02     0.09  -0.05   0.00
  13   1    -0.10   0.03   0.01     0.00  -0.00   0.02    -0.04  -0.01   0.02
  14   1    -0.01  -0.03  -0.00    -0.06   0.02   0.02    -0.03  -0.01   0.02
                     16                     17                     18
                        a                      a                      a 
 Frequencies --  1118.3188              1122.3924              1172.7989
 Red. masses --     1.4203                 2.1724                 2.4945
 Frc consts  --     0.0000                 0.0000                 0.0000
 IR Inten    --    52.7450               182.3791               146.1505
 Raman Activ --     0.0000                 0.0000                 0.0000
 Depolar     --     0.0000                 0.0000                 0.0000
 Atom AN      X      Y      Z        X      Y      Z        X      Y      Z
   1   6     0.01   0.07   0.03    -0.02   0.04  -0.01     0.04  -0.10  -0.01
   2   6    -0.06  -0.02  -0.05    -0.03   0.05   0.04    -0.01   0.07  -0.00
   3   6     0.25   0.01   0.04     0.47   0.02  -0.03    -0.44  -0.10  -0.01
   4   8    -0.04  -0.03  -0.00    -0.07  -0.08  -0.01     0.02  -0.14  -0.02
   5   8    -0.16   0.08   0.20    -0.34   0.24  -0.06     0.44   0.34   0.05
   6   6     0.03  -0.12  -0.39     0.09  -0.38   0.14    -0.23  -0.20  -0.04
   7   1     0.06   0.02   0.00    -0.00  -0.01   0.01    -0.06   0.01  -0.02
   8   1     0.03   0.00  -0.01     0.03   0.02   0.01    -0.08  -0.01   0.00
   9   1    -0.03  -0.03  -0.02    -0.03  -0.02   0.01     0.08   0.07   0.01
  10   1    -0.05  -0.03   0.00    -0.14   0.04   0.00     0.11   0.01   0.00
  11   1    -0.11   0.02   0.01    -0.11  -0.00  -0.01     0.12   0.02   0.01
  12   1     0.40  -0.09   0.15    -0.37   0.29  -0.01    -0.12   0.19   0.08
  13   1     0.20  -0.10   0.17     0.32  -0.09  -0.11     0.43  -0.10  -0.02
  14   1    -0.54   0.27   0.17     0.15   0.10  -0.08    -0.10   0.21  -0.01
                     19                     20                     21
                        a                      a                      a 
 Frequencies --  1217.5925              1316.3250              1379.9173
 Red. masses --     1.2306                 1.7437                 1.1451
 Frc consts  --     0.0000                 0.0000                 0.0000
 IR Inten    --     0.8722                40.8651                15.4135
 Raman Activ --     0.0000                 0.0000                 0.0000
 Depolar     --     0.0000                 0.0000                 0.0000
 Atom AN      X      Y      Z        X      Y      Z        X      Y      Z
   1   6    -0.01  -0.06   0.36    -0.12   0.12   0.02     0.01  -0.01  -0.00
   2   6     0.01   0.04  -0.22     0.59  -0.08  -0.00    -0.04   0.02   0.00
   3   6     0.02   0.02  -0.10    -0.26  -0.02  -0.00     0.09  -0.02  -0.00
   4   8    -0.00   0.00   0.01     0.03  -0.01  -0.00    -0.00   0.05   0.01
   5   8    -0.01  -0.01   0.01     0.03   0.05   0.01    -0.14   0.02   0.00
   6   6     0.01  -0.00   0.01    -0.02   0.00   0.00    -0.27   0.16   0.03
   7   1     0.26   0.23  -0.03     0.02  -0.07   0.04    -0.00   0.01  -0.00
   8   1    -0.24  -0.20  -0.13     0.03  -0.04  -0.06    -0.00   0.00   0.00
   9   1    -0.01   0.02  -0.15    -0.17  -0.16  -0.03     0.01   0.01   0.00
  10   1    -0.53  -0.10   0.00    -0.46   0.06  -0.03     0.03  -0.02   0.01
  11   1     0.49   0.09   0.06    -0.49   0.05   0.02     0.03  -0.01  -0.01
  12   1    -0.01   0.00  -0.00     0.03  -0.03   0.01     0.33  -0.39   0.01
  13   1    -0.01   0.00  -0.00     0.07  -0.01  -0.00     0.61  -0.05  -0.02
  14   1     0.01  -0.00  -0.00     0.04  -0.02  -0.02     0.33  -0.33  -0.15
                     22                     23                     24
                        a                      a                      a 
 Frequencies --  1410.4204              1442.4704              1448.3574
 Red. masses --     1.2100                 1.1059                 1.0597
 Frc consts  --     0.0000                 0.0000                 0.0000
 IR Inten    --     5.2699                11.1638                 8.5938
 Raman Activ --     0.0000                 0.0000                 0.0000
 Depolar     --     0.0000                 0.0000                 0.0000
 Atom AN      X      Y      Z        X      Y      Z        X      Y      Z
   1   6    -0.36  -0.20  -0.04     0.11   0.05   0.01     0.00   0.00  -0.00
   2   6     0.05  -0.07  -0.01    -0.08  -0.27  -0.05    -0.00   0.00   0.00
   3   6    -0.02   0.02   0.00     0.03   0.01   0.00     0.00   0.00   0.00
   4   8     0.01  -0.03  -0.00    -0.00  -0.02  -0.00    -0.00  -0.00  -0.01
   5   8    -0.00   0.00   0.00    -0.01  -0.01  -0.00    -0.01   0.00  -0.03
   6   6    -0.00   0.00   0.00     0.00   0.01   0.00    -0.02   0.03  -0.23
   7   1     0.45   0.15  -0.09    -0.12  -0.06   0.03     0.00  -0.00   0.00
   8   1     0.46   0.10   0.15    -0.12  -0.04  -0.05    -0.00   0.00   0.00
   9   1     0.29   0.42   0.08    -0.06  -0.09  -0.02    -0.00  -0.00   0.01
  10   1    -0.04   0.16  -0.08     0.07   0.58  -0.29    -0.00   0.00   0.00
  11   1    -0.05   0.12   0.13     0.06   0.43   0.49     0.00  -0.00   0.00
  12   1     0.00  -0.01  -0.00    -0.01  -0.02  -0.01    -0.03   0.42   0.21
  13   1     0.01  -0.00   0.00     0.02  -0.00   0.00    -0.02  -0.14   0.72
  14   1     0.00  -0.01  -0.00    -0.01  -0.02   0.01     0.13  -0.42  -0.03
                     25                     26                     27
                        a                      a                      a 
 Frequencies --  1461.1202              1486.3324              1497.7571
 Red. masses --     1.0574                 1.0517                 1.0574
 Frc consts  --     0.0000                 0.0000                 0.0000
 IR Inten    --     8.7579                 3.2877                 4.3687
 Raman Activ --     0.0000                 0.0000                 0.0000
 Depolar     --     0.0000                 0.0000                 0.0000
 Atom AN      X      Y      Z        X      Y      Z        X      Y      Z
   1   6    -0.00  -0.00  -0.00    -0.00   0.03  -0.21     0.09  -0.19  -0.03
   2   6     0.01   0.01   0.00     0.00   0.01  -0.04     0.05  -0.04  -0.01
   3   6    -0.01  -0.01  -0.00     0.00  -0.00  -0.00    -0.01  -0.02  -0.00
   4   8    -0.00  -0.01  -0.00     0.00   0.00   0.00    -0.00   0.02   0.00
   5   8     0.04   0.04   0.01    -0.00  -0.00   0.00    -0.00  -0.00  -0.00
   6   6     0.15   0.16   0.01     0.00  -0.00   0.00     0.00   0.00  -0.00
   7   1     0.00  -0.00   0.00     0.44  -0.14   0.04    -0.11   0.59  -0.27
   8   1     0.00  -0.00  -0.00    -0.44   0.14   0.11    -0.10   0.43   0.48
   9   1     0.00   0.00   0.00    -0.01  -0.14   0.70    -0.17  -0.25  -0.07
  10   1    -0.00  -0.02   0.01    -0.03  -0.02  -0.00    -0.03   0.01  -0.01
  11   1    -0.00  -0.01  -0.01     0.03   0.01   0.00    -0.03   0.01   0.01
  12   1    -0.44  -0.20  -0.43     0.00  -0.00  -0.00    -0.00   0.00  -0.00
  13   1     0.24  -0.03   0.07     0.00   0.00  -0.01    -0.00  -0.00   0.00
  14   1    -0.44  -0.42   0.31    -0.00   0.00  -0.00    -0.00  -0.00   0.00
                     28                     29                     30
                        a                      a                      a 
 Frequencies --  1786.3691              2970.9269              2987.1088
 Red. masses --    12.1052                 1.0934                 1.0535
 Frc consts  --     0.0000                 0.0000                 0.0000
 IR Inten    --   429.6945                12.3580                11.5698
 Raman Activ --     0.0000                 0.0000                 0.0000
 Depolar     --     0.0000                 0.0000                 0.0000
 Atom AN      X      Y      Z        X      Y      Z        X      Y      Z
   1   6     0.00   0.00   0.00    -0.00  -0.00   0.02     0.01  -0.01   0.00
   2   6     0.04  -0.05  -0.01     0.00   0.01  -0.29     0.01   0.18  -0.02
   3   6    -0.06   0.79   0.11     0.00  -0.00  -0.01    -0.00   0.01   0.00
   4   8     0.02  -0.59  -0.08    -0.00   0.00   0.00    -0.00  -0.00  -0.00
   5   8    -0.03  -0.05  -0.01     0.00   0.00   0.00     0.00  -0.01  -0.00
   6   6    -0.00   0.02   0.00    -0.00   0.00   0.01     0.00  -0.12  -0.02
   7   1    -0.01   0.01  -0.00    -0.00  -0.03  -0.06     0.00   0.01   0.02
   8   1    -0.01   0.01   0.01     0.00   0.04  -0.03     0.00   0.04  -0.03
   9   1    -0.02  -0.02  -0.00     0.01  -0.01   0.00    -0.03   0.02   0.00
  10   1     0.03  -0.03   0.01     0.01   0.35   0.73    -0.00  -0.16  -0.40
  11   1     0.04  -0.02  -0.02    -0.03  -0.39   0.32    -0.04  -0.48   0.48
  12   1     0.02  -0.02  -0.00     0.01   0.01  -0.01    -0.04  -0.05   0.06
  13   1     0.02   0.00  -0.00    -0.00  -0.01  -0.00     0.07   0.52   0.10
  14   1     0.02  -0.02  -0.01    -0.01  -0.00  -0.01    -0.05  -0.03  -0.08
                     31                     32                     33
                        a                      a                      a 
 Frequencies --  2988.3970              2994.1979              3003.8670
 Red. masses --     1.0578                 1.0874                 1.0661
 Frc consts  --     0.0000                 0.0000                 0.0000
 IR Inten    --    14.2097                19.2095                15.2066
 Raman Activ --     0.0000                 0.0000                 0.0000
 Depolar     --     0.0000                 0.0000                 0.0000
 Atom AN      X      Y      Z        X      Y      Z        X      Y      Z
   1   6     0.01  -0.01   0.00    -0.00   0.00  -0.00    -0.00   0.00  -0.00
   2   6     0.01   0.12  -0.01    -0.00  -0.01   0.01     0.00   0.00   0.00
   3   6    -0.00   0.01   0.00    -0.00  -0.00   0.00     0.00   0.00   0.00
   4   8     0.00  -0.00  -0.00    -0.00   0.00  -0.00     0.00   0.00  -0.00
   5   8    -0.01   0.01   0.00     0.01  -0.00   0.00    -0.01   0.00   0.00
   6   6     0.01   0.18   0.05     0.07   0.01   0.27    -0.16  -0.16   0.10
   7   1     0.00   0.01   0.02    -0.00   0.00   0.00    -0.00   0.00   0.00
   8   1     0.00   0.03  -0.03    -0.00  -0.00   0.00     0.00  -0.00   0.00
   9   1    -0.02   0.01   0.00     0.00  -0.00  -0.00     0.00  -0.00  -0.00
  10   1    -0.00  -0.11  -0.28     0.00   0.00   0.01     0.00  -0.01  -0.01
  11   1    -0.02  -0.32   0.32     0.00   0.03  -0.03    -0.00  -0.01   0.01
  12   1     0.06   0.07  -0.07     0.18   0.15  -0.21     0.45   0.39  -0.68
  13   1    -0.10  -0.77  -0.15     0.00  -0.04   0.03     0.00   0.13   0.05
  14   1     0.03   0.03   0.05    -0.44  -0.12  -0.78     0.13   0.01   0.29
                     34                     35                     36
                        a                      a                      a 
 Frequencies --  3045.7836              3051.1669              3057.0501
 Red. masses --     1.0744                 1.0935                 1.0483
 Frc consts  --     0.0000                 0.0000                 0.0000
 IR Inten    --    32.8637                24.9266                16.2815
 Raman Activ --     0.0000                 0.0000                 0.0000
 Depolar     --     0.0000                 0.0000                 0.0000
 Atom AN      X      Y      Z        X      Y      Z        X      Y      Z
   1   6    -0.20   0.16   0.04     0.00  -0.04   0.29     0.01   0.20   0.01
   2   6    -0.00   0.01   0.00    -0.00  -0.01   0.03     0.00   0.02  -0.00
   3   6     0.00   0.00   0.00    -0.00   0.00   0.00     0.00   0.00   0.00
   4   8     0.00  -0.00  -0.00    -0.00  -0.00  -0.00    -0.00  -0.00  -0.00
   5   8    -0.00  -0.00  -0.00     0.00   0.00  -0.00    -0.00  -0.00  -0.00
   6   6     0.00   0.00   0.00    -0.00  -0.00   0.00    -0.00   0.00   0.00
   7   1    -0.03   0.00  -0.05     0.00  -0.32  -0.67    -0.00  -0.23  -0.57
   8   1    -0.03   0.02   0.01     0.02   0.45  -0.39    -0.02  -0.54   0.53
   9   1     0.77  -0.57  -0.10    -0.03   0.02   0.05    -0.03   0.05   0.01
  10   1     0.00  -0.01  -0.03     0.00  -0.02  -0.05     0.00  -0.01  -0.03
  11   1    -0.00  -0.02   0.02     0.00   0.04  -0.04    -0.00  -0.04   0.04
  12   1    -0.00  -0.00   0.00     0.00   0.00  -0.00     0.00   0.00  -0.00
  13   1     0.00  -0.00  -0.00    -0.00  -0.00   0.00    -0.00  -0.00  -0.00
  14   1    -0.00  -0.00  -0.00    -0.00  -0.00  -0.00     0.00   0.00   0.00
