14
 energy: -20.782471718557 gnorm: 0.026591367451 xtb: 6.7.1 (41059b4)
C           -2.50660043433366       -0.05160204640156       -0.09754994405419
C           -1.22925775876030        0.75559859258902        0.08297249770592
C            0.01602467630311       -0.08862277628386       -0.04932747821914
O            0.03671355794910       -1.28450482773143       -0.21609234405621
O            1.12177594971325        0.69443185952928        0.05030626742698
C            2.40493413529485        0.03999835746550       -0.03119747435838
H           -2.54788448301435       -0.49892602268250       -1.09363031882474
H           -2.55817521752435       -0.86550097872714        0.62920144411912
H           -3.38303968574474        0.58884561416569        0.03251748313164
H           -1.19353145705268        1.23573039869770        1.06858080423349
H           -1.15881567721715        1.57340232531195       -0.64343352283229
H            2.96829953460520        0.51696810796461       -0.83625214442781
H            2.27923511655587       -1.02545996521055       -0.23011310906652
H            2.92088560943728        0.19148270301337        0.92012426945521
14
 energy: -20.783178338911 gnorm: 0.009931608360 xtb: 6.7.1 (41059b4)
C           -2.49743008298115       -0.05069225361556       -0.09768016473516
C           -1.22446546856830        0.75881569137714        0.08398439514433
C            0.01879233671782       -0.08816133104505       -0.04835564817425
O            0.04453468164355       -1.27716282027249       -0.21377105228803
O            1.11812801470681        0.68690121016066        0.05124265278994
C            2.39299516664860        0.04208330889530       -0.03126699959142
H           -2.52959362193813       -0.49363847567688       -1.09118673215302
H           -2.54084568914820       -0.85859773590912        0.62987168141286
H           -3.37150805001180        0.58527211347799        0.03075534255728
H           -1.19784806399910        1.22857609395334        1.07211065172635
H           -1.16103443495930        1.56720789209934       -0.64990922345054
H            2.95464597036977        0.51456222322076       -0.83714596452542
H            2.25527436241245       -1.02056498228225       -0.23106342166538
H            2.90891874531841        0.18724040731690        0.91852091318553
14
 energy: -20.783276036575 gnorm: 0.003328204318 xtb: 6.7.1 (41059b4)
C           -2.49309044751427       -0.05123894986874       -0.09838296612093
C           -1.22267608743728        0.76446173866643        0.08563796084389
C            0.01876894074837       -0.08662019495281       -0.04568700812816
O            0.04374727356253       -1.27478647882077       -0.21141436571506
O            1.11559968597043        0.68241658870361        0.05316514509555
C            2.38540566773997        0.04331251256640       -0.03181742800180
H           -2.51878485763472       -0.49360735296913       -1.09049309849013
H           -2.53194714884357       -0.85691382290269        0.62953840371287
H           -3.36813651172464        0.58054431899348        0.02778102615124
H           -1.19932156373647        1.22919342241151        1.07426623790099
H           -1.15990311911346        1.56752557840154       -0.65167034465924
H            2.94756310225533        0.51348135220541       -0.83761547974428
H            2.24830459683318       -1.01980965817888       -0.23299579579004
H            2.90503433510605        0.18388228744471        0.91579414317816
14
 energy: -20.783284941447 gnorm: 0.001129019459 xtb: 6.7.1 (41059b4)
C           -2.49292041333374       -0.05136129238492       -0.09869145201440
C           -1.22297349598032        0.76634809266457        0.08643186780018
C            0.01865687809728       -0.08548999402154       -0.04451386915612
O            0.04161725815401       -1.27444613839599       -0.20982974298725
O            1.11566969084998        0.68154024383254        0.05449714848656
C            2.38411739748762        0.04340573704887       -0.03217966691252
H           -2.51535302147422       -0.49436411535286       -1.09062158210725
H           -2.53012719715818       -0.85676864833331        0.62964746822506
H           -3.36947549412086        0.57871148825788        0.02590536378614
H           -1.20067363969234        1.23078252490313        1.07475118811161
H           -1.15993254953552        1.56834653859841       -0.65140704499096
H            2.94660960468171        0.51356730679667       -0.83811633192155
H            2.24920911800036       -1.02042491709640       -0.23450660931247
H            2.90613973023565        0.18199451518302        0.91473969322605
14
 energy: -20.783286775794 gnorm: 0.000746856620 xtb: 6.7.1 (41059b4)
C           -2.49262004483348       -0.05182001546398       -0.09932224198524
C           -1.22359688421454        0.76786865207662        0.08742574971054
C            0.01872647443512       -0.08410894349784       -0.04195383766085
O            0.03909058764061       -1.27370002605988       -0.20744633643045
O            1.11634472847725        0.68141753543096        0.05666229804133
C            2.38360722788244        0.04313188835886       -0.03295198099836
H           -2.51202498536551       -0.49602171266132       -1.09099410603315
H           -2.52968366547115       -0.85679553114129        0.62977475896238
H           -3.37058191904715        0.57703227904967        0.02288492047747
H           -1.20296900405866        1.23292950996534        1.07537592080679
H           -1.16008299767051        1.56960911422739       -0.65057791017898
H            2.94589184998105        0.51393753900196       -0.83928569877744
H            2.25002544264784       -1.02113466230763       -0.23672246250244
H            2.90843705580814        0.17949571472123        0.91323735680147
14
 energy: -20.783287263356 gnorm: 0.000179484948 xtb: 6.7.1 (41059b4)
C           -2.49238332449272       -0.05189135187207       -0.09933745602877
C           -1.22358710437014        0.76760609242102        0.08754592497435
C            0.01885844655719       -0.08399647335466       -0.04218798872902
O            0.03944726041046       -1.27348559737130       -0.20698832100414
O            1.11643831603029        0.68175736318788        0.05674229140136
C            2.38376648066791        0.04299325892022       -0.03301817021509
H           -2.51172504114344       -0.49636334353227       -1.09085069949451
H           -2.53012291759771       -0.85663301257690        0.62993670946064
H           -3.37022618588007        0.57718140682951        0.02233044976645
H           -1.20315937779744        1.23286871170862        1.07553924178725
H           -1.16024585577176        1.56955938680730       -0.65040081736074
H            2.94580788065651        0.51405286327586       -0.83927388300366
H            2.24921131210662       -1.02091267049351       -0.23709655109263
H            2.90848397683573        0.17910470775037        0.91316569977159
14
 energy: -20.783287408405 gnorm: 0.000202979809 xtb: 6.7.1 (41059b4)
C           -2.49212009952491       -0.05193311174329       -0.09959702794852
C           -1.22360723256142        0.76760061960184        0.08789495618574
C            0.01890840484907       -0.08394304930381       -0.04109698354696
O            0.03956518958559       -1.27330532010924       -0.20614525593906
O            1.11645261420122        0.68193065138078        0.05725870924884
C            2.38376993824335        0.04291549851661       -0.03342160395723
H           -2.51061565166609       -0.49707976344748       -1.09079543224023
H           -2.53063621312758       -0.85616208456033        0.63016246945636
H           -3.37005507526044        0.57720894246189        0.02084427715448
H           -1.20372592670384        1.23281035817687        1.07595656759746
H           -1.16003793204628        1.56969586639541       -0.64996067291416
H            2.94540112780544        0.51432721082051       -0.83966922528380
H            2.24848645909008       -1.02071055611569       -0.23790155297594
H            2.90877826332726        0.17848607962600        0.91257720539608
14
 energy: -20.783287541043 gnorm: 0.000131028426 xtb: 6.7.1 (41059b4)
C           -2.49197972867918       -0.05198322296631       -0.09973073658828
C           -1.22365986049421        0.76775959361328        0.08826627341234
C            0.01888489032473       -0.08375512893744       -0.04078520694277
O            0.03942372577659       -1.27322225167487       -0.20531473025189
O            1.11645992648554        0.68199910760423        0.05747780709538
C            2.38371136819853        0.04286399287140       -0.03369712033275
H           -2.50946483912136       -0.49785943781239       -1.09062218285427
H           -2.53107487934770       -0.85570046810301        0.63056657543401
H           -3.37010079202652        0.57714257047408        0.01942118026625
H           -1.20407605853110        1.23285532157816        1.07637325305967
H           -1.15993873321558        1.56989946609425       -0.64950794798108
H            2.94518773611213        0.51468988168476       -0.83979212371774
H            2.24823145810649       -1.02062117024298       -0.23879295366085
H            2.90895965262308        0.17777308751691        0.91224434329506
14
 energy: -20.783287682464 gnorm: 0.000102686238 xtb: 6.7.1 (41059b4)
C           -2.49193901617569       -0.05197882845315       -0.09998115429591
C           -1.22371961121700        0.76782801504213        0.08891120963246
C            0.01884694721034       -0.08369807651332       -0.04004736829270
O            0.03930440249247       -1.27331024413614       -0.20391238308810
O            1.11647116649970        0.68202716614523        0.05755618071506
C            2.38370448746343        0.04287897964599       -0.03426002825344
H           -2.50773515358744       -0.49922798661091       -1.09029585958303
H           -2.53230544177338       -0.85469939475638        0.63136341428343
H           -3.37020052258172        0.57740072843484        0.01681556951094
H           -1.20459494600817        1.23258623513079        1.07716089299422
H           -1.15964052726257        1.57016250021152       -0.64858041367710
H            2.94503284148722        0.51549935924712       -0.84000506057432
H            2.24821594951120       -1.02044823607744       -0.24035671768992
H            2.90912329015308        0.17682112438981        0.91173814855147
14
 energy: -20.783287776666 gnorm: 0.000098550342 xtb: 6.7.1 (41059b4)
C           -2.49195877097029       -0.05193425413994       -0.10019686661689
C           -1.22371317066066        0.76772798869685        0.08946172844054
C            0.01882128051286       -0.08385336436996       -0.03940686745949
O            0.03932342752021       -1.27357024520696       -0.20260006962338
O            1.11643297878407        0.68200795114476        0.05723461460770
C            2.38368104400059        0.04300120609278       -0.03480525752859
H           -2.50642704194629       -0.50043462245726       -1.08996331553765
H           -2.53369727533959       -0.85369663413740        0.63211797929210
H           -3.37014450506252        0.57792739261517        0.01450206356398
H           -1.20491594250690        1.23204576826645        1.07791391904144
H           -1.15929714704572        1.57032917995666       -0.64768964602671
H            2.94510837076288        0.51633504762314       -0.84006275753761
H            2.24836080081185       -1.02019297306575       -0.24178129668150
H            2.90898981735095        0.17614890068152        0.91138220229914
