      -----------------------------------------------------------      
     |                   =====================                   |     
     |                           x T B                           |     
     |                   =====================                   |     
     |                         S. Grimme                         |     
     |          Mulliken Center for Theoretical Chemistry        |     
     |                    University of Bonn                     |     
      -----------------------------------------------------------      

   * xtb version 6.7.1 (41059b4) compiled by 'michael@archlinux' on 2025-03-24

   xtb is free software: you can redistribute it and/or modify it under
   the terms of the GNU Lesser General Public License as published by
   the Free Software Foundation, either version 3 of the License, or
   (at your option) any later version.
   
   xtb is distributed in the hope that it will be useful,
   but WITHOUT ANY WARRANTY; without even the implied warranty of
   MERCHANTABILITY or FITNESS FOR A PARTICULAR PURPOSE.  See the
   GNU Lesser General Public License for more details.
   
   Cite this work as:
   * C. Bannwarth, E. Caldeweyher, S. Ehlert, A. Hansen, P. Pracht,
     J. Seibert, S. Spicher, S. Grimme, WIREs Comput. Mol. Sci., 2020, 11,
     e01493. DOI: 10.1002/wcms.1493
   
   for GFN2-xTB:
   * C. Bannwarth, S. Ehlert and S. Grimme., J. Chem. Theory Comput., 2019,
     15, 1652-1671. DOI: 10.1021/acs.jctc.8b01176
   for GFN1-xTB:
   * S. Grimme, C. Bannwarth, P. Shushkov, J. Chem. Theory Comput., 2017,
     13, 1989-2009. DOI: 10.1021/acs.jctc.7b00118
   for GFN0-xTB:
   * P. Pracht, E. Caldeweyher, S. Ehlert, S. Grimme, ChemRxiv, 2019, preprint.
     DOI: 10.26434/chemrxiv.8326202.v1
   for GFN-FF:
   * S. Spicher and S. Grimme, Angew. Chem. Int. Ed., 2020, 59, 15665-15673.
     DOI: 10.1002/anie.202004239
   
   for ALPB and GBSA implicit solvation:
   * S. Ehlert, M. Stahn, S. Spicher, S. Grimme, J. Chem. Theory Comput.,
     2021, 17, 4250-4261. DOI: 10.1021/acs.jctc.1c00471
   
   for ddCOSMO and CPCM-X implicit solvation:
   * M. Stahn, S. Ehlert, S. Grimme, J. Phys. Chem. A,
     2023, XX, XXXX-XXXX. DOI: 10.1021/acs.jpca.3c04382
   
   for DFT-D4:
   * E. Caldeweyher, C. Bannwarth and S. Grimme, J. Chem. Phys., 2017,
     147, 034112. DOI: 10.1063/1.4993215
   * E. Caldeweyher, S. Ehlert, A. Hansen, H. Neugebauer, S. Spicher,
     C. Bannwarth and S. Grimme, J. Chem. Phys., 2019, 150, 154122.
     DOI: 10.1063/1.5090222
   * E. Caldeweyher, J.-M. Mewes, S. Ehlert and S. Grimme, Phys. Chem. Chem. Phys.
     2020, 22, 8499-8512. DOI: 10.1039/D0CP00502A
   
   for sTDA-xTB:
   * S. Grimme and C. Bannwarth, J. Chem. Phys., 2016, 145, 054103.
     DOI: 10.1063/1.4959605
   
   in the mass-spec context:
   * V. Asgeirsson, C. Bauer and S. Grimme, Chem. Sci., 2017, 8, 4879.
     DOI: 10.1039/c7sc00601b
   * J. Koopman and S. Grimme, ACS Omega 2019, 4, 12, 15120-15133.
     DOI: 10.1021/acsomega.9b02011
   
   for metadynamics refer to:
   * S. Grimme, J. Chem. Theory Comput., 2019, 155, 2847-2862
     DOI: 10.1021/acs.jctc.9b00143
   
   for SPH calculations refer to:
   * S. Spicher and S. Grimme, J. Chem. Theory Comput., 2021, 17, 1701-1714
     DOI: 10.1021/acs.jctc.0c01306
   
   for ONIOM refer to:
   * C. Plett, A. Katbashev, S. Ehlert, S. Grimme, M. Bursch,
     Phys. Chem. Chem. Phys., 2023, 25, 17860-17868. DOI: 10.1039/D3CP02178E
   
   for DIPRO refer to:
   * J. Kohn, N. Gildemeister, S. Grimme, D. Fazzi, A. Hansen,
     J. Chem. Phys., 2023, just accepted.
   
   for PTB refer to:
   * S. Grimme, M. Mueller, A. Hansen, J. Chem. Phys., 2023, 158, 124111.
     DOI: 10.1063/5.0137838
   
   with help from (in alphabetical order)
   P. Atkinson, C. Bannwarth, F. Bohle, G. Brandenburg, E. Caldeweyher
   M. Checinski, S. Dohm, S. Ehlert, S. Ehrlich, I. Gerasimov, C. Hölzer
   A. Katbashev, J. Kohn, J. Koopman, C. Lavigne, S. Lehtola, F. März, M. Müller,
   F. Musil, H. Neugebauer, J. Pisarek, C. Plett, P. Pracht, F. Pultar,
   J. Seibert, P. Shushkov, S. Spicher, M. Stahn, M. Steiner, T. Strunk,
   J. Stückrath, T. Rose, and J. Unsleber
   
 * started run on 2025/04/09 at 04:19:59.795     
   ID    Z sym.   atoms
    1    6 C      1, 2
    2   17 Cl     3-7
    3    1 H      8

           -------------------------------------------------
          |                Calculation Setup                |
           -------------------------------------------------

          program call               : /usr/bin/xtb xtb_rrho.coord --gfn2 --ohess vtight --chrg 0 --enso --norestart -I rrho-xcontrol-inp --parallel 1
          coordinate file            : xtb_rrho.coord
          omp threads                :                     1


           -------------------------------------------------
          |                 G F N 2 - x T B                 |
           -------------------------------------------------

        Reference                      10.1021/acs.jctc.8b01176
      * Hamiltonian:
        H0-scaling (s, p, d)           1.850000    2.230000    2.230000
        zeta-weighting                 0.500000
      * Dispersion:
        s8                             2.700000
        a1                             0.520000
        a2                             5.000000
        s9                             5.000000
      * Repulsion:
        kExp                           1.500000    1.000000
        rExp                           1.000000
      * Coulomb:
        alpha                          2.000000
        third order                    shell-resolved
        anisotropic                    true
        a3                             3.000000
        a5                             4.000000
        cn-shift                       1.200000
        cn-exp                         4.000000
        max-rad                        5.000000


          ...................................................
          :                      SETUP                      :
          :.................................................:
          :  # basis functions                  59          :
          :  # atomic orbitals                  54          :
          :  # shells                           20          :
          :  # electrons                        44          :
          :  max. iterations                   250          :
          :  Hamiltonian                  GFN2-xTB          :
          :  restarted?                      false          :
          :  GBSA solvation                  false          :
          :  PC potential                    false          :
          :  electronic temp.          300.0000000     K    :
          :  accuracy                    1.0000000          :
          :  -> integral cutoff          0.2500000E+02      :
          :  -> integral neglect         0.1000000E-07      :
          :  -> SCF convergence          0.1000000E-05 Eh   :
          :  -> wf. convergence          0.1000000E-03 e    :
          :  Broyden damping             0.4000000          :
          :  net charge                          0          :
          :  unpaired electrons                  0          :
          ...................................................

 iter      E             dE          RMSdq      gap      omega  full diag
   1    -27.4771831 -0.274772E+02  0.564E+00    5.57       0.0  T
   2    -27.5383714 -0.611883E-01  0.469E+00    4.86       1.0  T
   3    -27.5712792 -0.329078E-01  0.238E+00    5.16       1.0  T
   4    -27.5714394 -0.160177E-03  0.341E-01    5.04       1.0  T
   5    -27.5720746 -0.635140E-03  0.117E-01    5.07       1.0  T
   6    -27.5720749 -0.371069E-06  0.831E-02    5.07       1.0  T
   7    -27.5721007 -0.257560E-04  0.256E-02    5.07       1.4  T
   8    -27.5721026 -0.191473E-05  0.131E-02    5.07       2.7  T
   9    -27.5721033 -0.671730E-06  0.853E-03    5.07       4.1  T
  10    -27.5721035 -0.193256E-06  0.426E-03    5.07       8.3  T
  11    -27.5721035 -0.701331E-07  0.178E-03    5.07      19.9  T
  12    -27.5721035 -0.986321E-08  0.106E-03    5.07      33.5  T
  13    -27.5721035 -0.242882E-08  0.652E-04    5.07      54.2  T
  14    -27.5721035 -0.235779E-08  0.224E-04    5.07     157.7  T

   *** convergence criteria satisfied after 14 iterations ***

         #    Occupation            Energy/Eh            Energy/eV
      -------------------------------------------------------------
         1        2.0000           -1.1019914             -29.9867
       ...           ...                  ...                  ...
        16        2.0000           -0.4670113             -12.7080
        17        2.0000           -0.4639800             -12.6255
        18        2.0000           -0.4628536             -12.5949
        19        2.0000           -0.4622422             -12.5783
        20        2.0000           -0.4603970             -12.5280
        21        2.0000           -0.4535673             -12.3422
        22        2.0000           -0.4515677             -12.2878 (HOMO)
        23                         -0.2653529              -7.2206 (LUMO)
        24                         -0.2382889              -6.4842
        25                         -0.2310676              -6.2877
        26                         -0.1955783              -5.3220
        27                         -0.1709930              -4.6530
       ...                                ...                  ...
        54                          0.1491642               4.0590
      -------------------------------------------------------------
                  HL-Gap            0.1862148 Eh            5.0672 eV
             Fermi-level           -0.3584603 Eh           -9.7542 eV

 SCC (total)                   0 d,  0 h,  0 min,  0.010 sec
 SCC setup                      ...        0 min,  0.000 sec (  0.689%)
 Dispersion                     ...        0 min,  0.000 sec (  0.230%)
 classical contributions        ...        0 min,  0.000 sec (  0.094%)
 integral evaluation            ...        0 min,  0.002 sec ( 16.188%)
 iterations                     ...        0 min,  0.005 sec ( 55.205%)
 molecular gradient             ...        0 min,  0.003 sec ( 26.983%)
 printout                       ...        0 min,  0.000 sec (  0.541%)

         :::::::::::::::::::::::::::::::::::::::::::::::::::::
         ::                     SUMMARY                     ::
         :::::::::::::::::::::::::::::::::::::::::::::::::::::
         :: total energy             -27.526541865113 Eh    ::
         :: gradient norm              0.023803841259 Eh/a0 ::
         :: HOMO-LUMO gap              5.067162076620 eV    ::
         ::.................................................::
         :: SCC energy               -27.572094875936 Eh    ::
         :: -> isotropic ES            0.018134772797 Eh    ::
         :: -> anisotropic ES          0.002267518383 Eh    ::
         :: -> anisotropic XC          0.004226479855 Eh    ::
         :: -> dispersion             -0.011289568304 Eh    ::
         :: repulsion energy           0.045553010822 Eh    ::
         :: add. restraining           0.000000000000 Eh    ::
         :: total charge              -0.000000000000 e     ::
         :::::::::::::::::::::::::::::::::::::::::::::::::::::

      ----------------------------------------------------------- 
     |                   =====================                   |
     |                        A N C O P T                        |
     |                   =====================                   |
     |               Approximate Normal Coordinate               |
     |                Rational Function Optimizer                |
      ----------------------------------------------------------- 

          ...................................................
          :                      SETUP                      :
          :.................................................:
          :   optimization level         verytight          :
          :   max. optcycles                   200          :
          :   ANC micro-cycles                  20          :
          :   degrees of freedom                18          :
          :.................................................:
          :   RF solver                   davidson          :
          :   write xtbopt.log                true          :
          :   linear?                        false          :
          :   energy convergence         0.1000000E-06 Eh   :
          :   grad. convergence          0.2000000E-03 Eh/α :
          :   maximum RF displ.          1.0000000          :
          :   Hlow (freq-cutoff)         0.1000000E-01      :
          :   Hmax (freq-cutoff)         5.0000000          :
          :   S6 in model hess.         20.0000000          :
          ...................................................

generating ANC from exact Hessian ...
Using Lindh-Hessian (1995)
 Shifting diagonal of input Hessian by    4.7967398149320935E-003
 Lowest  eigenvalues of input Hessian
    0.000000    0.000000    0.000000    0.000000    0.000000    0.000000
    0.010000    0.016977    0.021037    0.028136    0.040373    0.043587
    0.052075    0.066926    0.079847    0.102701    0.112054    0.328536
 Highest eigenvalues
    0.592872    0.987205    0.998351    1.061036    1.087936    1.088993


........................................................................
.............................. CYCLE    1 ..............................
........................................................................

 iter      E             dE          RMSdq      gap      omega  full diag
   1    -27.5721035 -0.275721E+02  0.849E-05    5.07       0.0  T
   2    -27.5721035 -0.544276E-11  0.657E-05    5.07     537.9  T
   3    -27.5721035 -0.546763E-11  0.422E-05    5.07     838.5  T
     SCC iter.                  ...        0 min,  0.001 sec
     gradient                   ...        0 min,  0.003 sec
 * total energy  :   -27.5265419 Eh     change       -0.2459757E-09 Eh
   gradient norm :     0.0238035 Eh/α   predicted     0.0000000E+00 (-100.00%)
   displ. norm   :     0.2054514 α      lambda       -0.2664431E-02
   maximum displ.:     0.1697112 α      in ANC's #3, #12, #9, ...

........................................................................
.............................. CYCLE    2 ..............................
........................................................................

 iter      E             dE          RMSdq      gap      omega  full diag
   1    -27.5768654 -0.275769E+02  0.273E-01    5.28       0.0  T
   2    -27.5769571 -0.916394E-04  0.213E-01    5.25       1.0  T
   3    -27.5770136 -0.564977E-04  0.118E-01    5.27       1.0  T
   4    -27.5770241 -0.105379E-04  0.335E-02    5.26       1.1  T
   5    -27.5770248 -0.723643E-06  0.233E-02    5.26       1.5  T
   6    -27.5770257 -0.869915E-06  0.585E-03    5.26       6.0  T
   7    -27.5770257 -0.483873E-07  0.253E-03    5.26      14.0  T
   8    -27.5770257 -0.114930E-07  0.184E-03    5.26      19.2  T
   9    -27.5770258 -0.127619E-07  0.799E-04    5.26      44.2  T
  10    -27.5770258 -0.224293E-08  0.349E-04    5.26     101.4  T
     SCC iter.                  ...        0 min,  0.003 sec
     gradient                   ...        0 min,  0.003 sec
 * total energy  :   -27.5280740 Eh     change       -0.1532113E-02 Eh
   gradient norm :     0.0100892 Eh/α   predicted    -0.1388448E-02 (  -9.38%)
   displ. norm   :     0.0568524 α      lambda       -0.4048100E-03
   maximum displ.:     0.0368498 α      in ANC's #12, #4, #3, ...

........................................................................
.............................. CYCLE    3 ..............................
........................................................................

 iter      E             dE          RMSdq      gap      omega  full diag
   1    -27.5791162 -0.275791E+02  0.101E-01    5.35       0.0  T
   2    -27.5791342 -0.180279E-04  0.878E-02    5.33       1.0  T
   3    -27.5791458 -0.115912E-04  0.525E-02    5.34       1.0  T
   4    -27.5791472 -0.131342E-05  0.153E-02    5.33       2.3  T
   5    -27.5791473 -0.164348E-06  0.107E-02    5.34       3.3  T
   6    -27.5791475 -0.222970E-06  0.377E-03    5.33       9.4  T
   7    -27.5791476 -0.277727E-07  0.184E-03    5.33      19.2  T
   8    -27.5791476 -0.890408E-08  0.107E-03    5.33      32.9  T
   9    -27.5791476 -0.467200E-08  0.444E-04    5.33      79.6  T
  10    -27.5791476 -0.616684E-09  0.206E-04    5.33     171.6  T
     SCC iter.                  ...        0 min,  0.003 sec
     gradient                   ...        0 min,  0.003 sec
 * total energy  :   -27.5282577 Eh     change       -0.1837674E-03 Eh
   gradient norm :     0.0025560 Eh/α   predicted    -0.2030605E-03 (  10.50%)
   displ. norm   :     0.0200414 α      lambda       -0.2083113E-04
   maximum displ.:     0.0187755 α      in ANC's #4, #10, #7, ...

........................................................................
.............................. CYCLE    4 ..............................
........................................................................

 iter      E             dE          RMSdq      gap      omega  full diag
   1    -27.5790350 -0.275790E+02  0.239E-02    5.33       0.0  T
   2    -27.5790351 -0.622891E-07  0.145E-02    5.33       2.4  T
   3    -27.5790351 -0.752373E-07  0.410E-03    5.33       8.6  T
   4    -27.5790352 -0.220610E-07  0.338E-03    5.33      10.5  T
   5    -27.5790352 -0.418814E-07  0.163E-03    5.33      21.7  T
   6    -27.5790352 -0.872031E-08  0.109E-03    5.33      32.3  T
   7    -27.5790352 -0.460819E-08  0.649E-04    5.33      54.4  T
   8    -27.5790352 -0.168796E-08  0.157E-04    5.33     225.2  T
     SCC iter.                  ...        0 min,  0.003 sec
     gradient                   ...        0 min,  0.003 sec
 * total energy  :   -27.5282671 Eh     change       -0.9333004E-05 Eh
   gradient norm :     0.0015928 Eh/α   predicted    -0.1041845E-04 (  11.63%)
   displ. norm   :     0.0085519 α      lambda       -0.4405774E-05
   maximum displ.:     0.0061384 α      in ANC's #4, #3, #6, ...

........................................................................
.............................. CYCLE    5 ..............................
........................................................................

 iter      E             dE          RMSdq      gap      omega  full diag
   1    -27.5788437 -0.275788E+02  0.804E-03    5.33       0.0  T
   2    -27.5788437 -0.283625E-07  0.537E-03    5.33       6.6  T
   3    -27.5788437 -0.425601E-08  0.251E-03    5.33      14.1  T
   4    -27.5788437 -0.170614E-07  0.169E-03    5.33      20.9  T
   5    -27.5788438 -0.631658E-08  0.119E-03    5.33      29.7  T
   6    -27.5788438 -0.551697E-08  0.605E-04    5.33      58.4  T
   7    -27.5788438 -0.188123E-08  0.337E-04    5.33     104.8  T
     SCC iter.                  ...        0 min,  0.002 sec
     gradient                   ...        0 min,  0.003 sec
 * total energy  :   -27.5282705 Eh     change       -0.3400439E-05 Eh
   gradient norm :     0.0007637 Eh/α   predicted    -0.2201661E-05 ( -35.25%)
   displ. norm   :     0.0060390 α      lambda       -0.1666497E-05
   maximum displ.:     0.0048825 α      in ANC's #3, #9, #17, ...

........................................................................
.............................. CYCLE    6 ..............................
........................................................................

 iter      E             dE          RMSdq      gap      omega  full diag
   1    -27.5788779 -0.275789E+02  0.939E-03    5.34       0.0  T
   2    -27.5788779 -0.562687E-07  0.593E-03    5.34       6.0  T
   3    -27.5788779  0.160188E-08  0.295E-03    5.34      12.0  T
   4    -27.5788779 -0.199659E-07  0.144E-03    5.34      24.6  T
   5    -27.5788779 -0.332921E-08  0.803E-04    5.34      44.0  T
   6    -27.5788779 -0.934783E-09  0.624E-04    5.34      56.7  T
     SCC iter.                  ...        0 min,  0.002 sec
     gradient                   ...        0 min,  0.003 sec
 * total energy  :   -27.5282714 Eh     change       -0.9566524E-06 Eh
   gradient norm :     0.0003703 Eh/α   predicted    -0.8330653E-06 ( -12.92%)
   displ. norm   :     0.0026712 α      lambda       -0.3480723E-06
   maximum displ.:     0.0014503 α      in ANC's #3, #7, #9, ...

........................................................................
.............................. CYCLE    7 ..............................
........................................................................

 iter      E             dE          RMSdq      gap      omega  full diag
   1    -27.5789139 -0.275789E+02  0.476E-03    5.34       0.0  T
   2    -27.5789139 -0.755627E-08  0.309E-03    5.34      11.4  T
   3    -27.5789139  0.472149E-09  0.162E-03    5.34      21.8  T
   4    -27.5789140 -0.101338E-07  0.104E-03    5.34      33.9  T
   5    -27.5789140 -0.355945E-08  0.673E-04    5.34      52.5  T
   6    -27.5789140 -0.252795E-08  0.266E-04    5.34     132.8  T
     SCC iter.                  ...        0 min,  0.002 sec
     gradient                   ...        0 min,  0.003 sec
 * total energy  :   -27.5282717 Eh     change       -0.2281184E-06 Eh
   gradient norm :     0.0001960 Eh/α   predicted    -0.1733319E-06 ( -24.02%)
   displ. norm   :     0.0009395 α      lambda       -0.8277598E-07
   maximum displ.:     0.0004752 α      in ANC's #6, #12, #7, ...

........................................................................
.............................. CYCLE    8 ..............................
........................................................................

 iter      E             dE          RMSdq      gap      omega  full diag
   1    -27.5788986 -0.275789E+02  0.195E-03    5.34       0.0  T
   2    -27.5788986 -0.752532E-08  0.153E-03    5.34      23.1  T
   3    -27.5788986 -0.470430E-08  0.932E-04    5.34      37.9  T
   4    -27.5788986 -0.652570E-09  0.335E-04    5.34     105.6  T
     SCC iter.                  ...        0 min,  0.001 sec
     gradient                   ...        0 min,  0.003 sec
 * total energy  :   -27.5282717 Eh     change       -0.6357088E-07 Eh
   gradient norm :     0.0000730 Eh/α   predicted    -0.4173126E-07 ( -34.35%)
   displ. norm   :     0.0005775 α      lambda       -0.1557746E-07
   maximum displ.:     0.0004474 α      in ANC's #3, #6, #4, ...

   *** GEOMETRY OPTIMIZATION CONVERGED AFTER 8 ITERATIONS ***

------------------------------------------------------------------------
 total energy gain   :        -0.0017299 Eh       -1.0855 kcal/mol
 total RMSD          :         0.0804785 a0        0.0426 Å
 total power (kW/mol):        -0.5677191 (step)  -84.9676 (real)
------------------------------------------------------------------------

 ANCopt (total)                0 d,  0 h,  0 min,  0.053 sec
 optimizer setup                ...        0 min,  0.000 sec (  0.079%)
 model hessian                  ...        0 min,  0.000 sec (  0.375%)
 ANC generation                 ...        0 min,  0.000 sec (  0.091%)
 coordinate transformation      ...        0 min,  0.000 sec (  0.033%)
 single point calculation       ...        0 min,  0.052 sec ( 98.116%)
 optimization log               ...        0 min,  0.000 sec (  0.430%)
 hessian update                 ...        0 min,  0.000 sec (  0.040%)
 rational function              ...        0 min,  0.000 sec (  0.369%)

================
 final structure:
================
$coord
       -1.48118324761464        0.00010253063711        1.26246338876875      C
        1.12240264153625       -0.00014170328373        0.03568049914924      C
        2.80445339173164       -2.72679823664042        1.03560407834916      Cl
        2.80534866063001        2.72566406012694        1.03642107427324      Cl
        0.87730000500488        0.00039820685977       -3.29449032748035      Cl
       -3.16382996666934        2.74279995436362        0.34484771214318      Cl
       -3.16473069845583       -2.74176808685728        0.34402708462161      Cl
       -1.31260470214922       -0.00023341004025        3.32154375273416      H
$end

 Bond Distances (Angstroems)
 ---------------------------
C1-C2=1.5230         C1-Cl6=1.7706        C1-Cl7=1.7706        C1-H8=1.0933         C2-C1=1.5230         C2-Cl3=1.7760        
C2-Cl4=1.7760        C2-Cl5=1.7670        Cl3-C2=1.7760        Cl4-C2=1.7760        Cl5-C2=1.7670        Cl6-C1=1.7706        
Cl7-C1=1.7706        H8-C1=1.0933         
 C  H  Rav=1.0933 sigma=0.0000  Rmin=1.0933  Rmax=1.0933     1
 C  C  Rav=1.5230 sigma=0.0000  Rmin=1.5230  Rmax=1.5230     1
 Cl C  Rav=1.7721 sigma=0.0035  Rmin=1.7670  Rmax=1.7760     5

 selected bond angles (degree)
 --------------------
Cl6-C1-C2=109.76               Cl7-C1-C2=109.76               Cl7-C1-Cl6=110.08              H8-C1-C2=110.55                
H8-C1-Cl6=108.33               H8-C1-Cl7=108.33               Cl3-C2-C1=109.05               Cl4-C2-C1=109.05               
Cl4-C2-Cl3=108.64              Cl5-C2-C1=111.02               Cl5-C2-Cl3=109.51              Cl5-C2-Cl4=109.51              

 selected dihedral angles (degree)
 ---------------------------------
Cl3-C2-C1-Cl6=178.69          Cl3-C2-C1-Cl7=299.81          Cl3-C2-C1-H8= 59.25           Cl4-C2-C1-Cl6= 60.19          
Cl4-C2-C1-Cl7=181.31          Cl4-C2-C1-H8=300.75           Cl5-C2-C1-Cl6=299.44          Cl5-C2-C1-Cl7= 60.56          
Cl5-C2-C1-H8=180.00           
           -------------------------------------------------
          |                Final Singlepoint                |
           -------------------------------------------------

          ...................................................
          :                      SETUP                      :
          :.................................................:
          :  # basis functions                  59          :
          :  # atomic orbitals                  54          :
          :  # shells                           20          :
          :  # electrons                        44          :
          :  max. iterations                   250          :
          :  Hamiltonian                  GFN2-xTB          :
          :  restarted?                      false          :
          :  GBSA solvation                  false          :
          :  PC potential                    false          :
          :  electronic temp.          300.0000000     K    :
          :  accuracy                    1.0000000          :
          :  -> integral cutoff          0.2500000E+02      :
          :  -> integral neglect         0.1000000E-07      :
          :  -> SCF convergence          0.1000000E-05 Eh   :
          :  -> wf. convergence          0.1000000E-03 e    :
          :  Broyden damping             0.4000000          :
          :  net charge                          0          :
          :  unpaired electrons                  0          :
          ...................................................

 iter      E             dE          RMSdq      gap      omega  full diag
   1    -27.5788986 -0.275789E+02  0.204E-04    5.34       0.0  T
   2    -27.5788986 -0.489386E-10  0.147E-04    5.34     241.3  T
   3    -27.5788986 -0.173905E-10  0.110E-04    5.34     321.9  T

   *** convergence criteria satisfied after 3 iterations ***

         #    Occupation            Energy/Eh            Energy/eV
      -------------------------------------------------------------
         1        2.0000           -1.1044728             -30.0542
       ...           ...                  ...                  ...
        16        2.0000           -0.4693032             -12.7704
        17        2.0000           -0.4647178             -12.6456
        18        2.0000           -0.4642562             -12.6331
        19        2.0000           -0.4630385             -12.5999
        20        2.0000           -0.4599149             -12.5149
        21        2.0000           -0.4544867             -12.3672
        22        2.0000           -0.4536661             -12.3449 (HOMO)
        23                         -0.2575791              -7.0091 (LUMO)
        24                         -0.2342125              -6.3732
        25                         -0.2254788              -6.1356
        26                         -0.1919891              -5.2243
        27                         -0.1663980              -4.5279
       ...                                ...                  ...
        54                          0.1564997               4.2586
      -------------------------------------------------------------
                  HL-Gap            0.1960871 Eh            5.3358 eV
             Fermi-level           -0.3556226 Eh           -9.6770 eV

 SCC (total)                   0 d,  0 h,  0 min,  0.005 sec
 SCC setup                      ...        0 min,  0.000 sec (  0.596%)
 Dispersion                     ...        0 min,  0.000 sec (  0.168%)
 classical contributions        ...        0 min,  0.000 sec (  0.075%)
 integral evaluation            ...        0 min,  0.001 sec ( 26.495%)
 iterations                     ...        0 min,  0.001 sec ( 22.570%)
 molecular gradient             ...        0 min,  0.003 sec ( 49.125%)
 printout                       ...        0 min,  0.000 sec (  0.843%)

         :::::::::::::::::::::::::::::::::::::::::::::::::::::
         ::                     SUMMARY                     ::
         :::::::::::::::::::::::::::::::::::::::::::::::::::::
         :: total energy             -27.528271727639 Eh    ::
         :: gradient norm              0.000073510391 Eh/a0 ::
         :: HOMO-LUMO gap              5.335800476250 eV    ::
         ::.................................................::
         :: SCC energy               -27.578890803622 Eh    ::
         :: -> isotropic ES            0.019263933610 Eh    ::
         :: -> anisotropic ES          0.002413754409 Eh    ::
         :: -> anisotropic XC          0.003737234981 Eh    ::
         :: -> dispersion             -0.011392600103 Eh    ::
         :: repulsion energy           0.050619075984 Eh    ::
         :: add. restraining           0.000000000000 Eh    ::
         :: total charge               0.000000000000 e     ::
         :::::::::::::::::::::::::::::::::::::::::::::::::::::

           ------------------------------------------------- 
          |                Numerical Hessian                |
           ------------------------------------------------- 
step length          :   0.00500
SCC accuracy         :   0.30000
Hessian scale factor :   1.00000
frozen atoms in %    :   0.00000    0
RMS gradient         :   0.00007
estimated CPU  time      0.01 min
estimated wall time      0.01 min

writing file <hessian>, containing the non-mass-weighted Hessian matrix in atomic units (Eₕ/Bohr²).

 projected vibrational frequencies (cm⁻¹)
eigval :       -0.00    -0.00    -0.00    -0.00     0.00     0.00
eigval :       58.01   125.58   142.92   189.81   204.62   240.29
eigval :      289.69   289.72   375.76   539.04   663.94   665.11
eigval :      730.06   738.16  1003.47  1132.22  1169.38  2933.42
           -------------------------------------------------
          |                Property Printout                |
           -------------------------------------------------

    * Orbital Energies and Occupations

         #    Occupation            Energy/Eh            Energy/eV
      -------------------------------------------------------------
         1        2.0000           -1.1044721             -30.0542
       ...           ...                  ...                  ...
        10        2.0000           -0.5905400             -16.0694
        11        2.0000           -0.5542129             -15.0809
        12        2.0000           -0.5471294             -14.8881
        13        2.0000           -0.4800148             -13.0619
        14        2.0000           -0.4794419             -13.0463
        15        2.0000           -0.4747078             -12.9175
        16        2.0000           -0.4693024             -12.7704
        17        2.0000           -0.4647170             -12.6456
        18        2.0000           -0.4642554             -12.6330
        19        2.0000           -0.4630379             -12.5999
        20        2.0000           -0.4599143             -12.5149
        21        2.0000           -0.4544859             -12.3672
        22        2.0000           -0.4536653             -12.3449 (HOMO)
        23                         -0.2575778              -7.0090 (LUMO)
        24                         -0.2342117              -6.3732
        25                         -0.2254776              -6.1356
        26                         -0.1919881              -5.2243
        27                         -0.1663970              -4.5279
        28                         -0.0759009              -2.0654
        29                         -0.0365540              -0.9947
        30                         -0.0349164              -0.9501
        31                         -0.0333472              -0.9074
        32                         -0.0327501              -0.8912
        33                         -0.0322898              -0.8787
       ...                                ...                  ...
        54                          0.1565004               4.2586
      -------------------------------------------------------------
                  HL-Gap            0.1960875 Eh            5.3358 eV
             Fermi-level           -0.3556216 Eh           -9.6770 eV

     #   Z          covCN         q      C6AA      α(0)
     1   6          3.788     0.125    18.555     6.135
     2   6          3.715     0.218    17.298     5.942
     3  17          1.253    -0.090   101.974    15.449
     4  17          1.253    -0.090   101.974    15.449
     5  17          1.241    -0.075   101.527    15.416
     6  17          1.093    -0.099   102.269    15.472
     7  17          1.093    -0.099   102.269    15.472
     8   1          0.924     0.110     1.700     2.039

 Mol. C6AA /au·bohr⁶  :       3629.645849
 Mol. C8AA /au·bohr⁸  :     141476.870366
 Mol. α(0) /au        :         91.373736


Wiberg/Mayer (AO) data.
largest (>0.10) Wiberg bond orders for each atom

 ---------------------------------------------------------------------------
     #   Z sym  total        # sym  WBO       # sym  WBO       # sym  WBO
 ---------------------------------------------------------------------------
     1   6      3.944 --     2      0.990     6      0.976     7      0.976
                             8      0.958
     2   6      3.937 --     1      0.990     5      0.984     3      0.966
                             4      0.966
     3  17      1.095 --     2      0.966
     4  17      1.095 --     2      0.966
     5  17      1.108 --     2      0.984
     6  17      1.075 --     1      0.976
     7  17      1.075 --     1      0.976
     8   1      0.988 --     1      0.958
 ---------------------------------------------------------------------------

Topologies differ in total number of bonds
Writing topology from bond orders to xtbtopo.mol

molecular dipole:
                 x           y           z       tot (Debye)
 q only:       -0.025      -0.000       0.524
   full:        0.033      -0.000       0.376       0.958
molecular quadrupole (traceless):
                xx          xy          yy          xz          yz          zz
 q only:       -1.494       0.000      -1.655      -1.186      -0.000       3.149
  q+dip:       -1.193      -0.000      -3.006      -1.811      -0.001       4.199
   full:       -1.857       0.000      -1.645      -1.024      -0.001       3.502

           -------------------------------------------------
          |                Geometry Summary                 |
           -------------------------------------------------

      molecular mass/u    :      202.2941004
   center of mass at/Å    :       -0.0000301       0.0000256       0.0000582
  moments of inertia/u·Å² :        0.4367905E+03   0.5146649E+03   0.6716566E+03
rotational constants/cm⁻¹ :        0.3859432E-01   0.3275458E-01   0.2509859E-01

 * 7 selected distances

     #   Z          #   Z                                           value/Å
     1   6          2   6                                         1.5230431
     2   6          3  17                                         1.7760026
Molecule has the following symmetry elements: (sigma) 
It seems to be the Cs point group
     2   6          4  17                                         1.7760032 (max)
     2   6          5  17                                         1.7670174
     1   6          6  17                                         1.7706265
     1   6          7  17                                         1.7706268
     1   6          8   1                                         1.0932642 (min)

 * 3 distinct bonds (by element types)

   Z      Z             #   av. dist./Å        max./Å        min./Å
   1 H    6 C           1     1.0932642     1.0932642     1.0932642
   6 C    6 C           1     1.5230431     1.5230431     1.5230431
   6 C   17 Cl          5     1.7720553     1.7760032     1.7670174

           -------------------------------------------------
          |               Frequency Printout                |
           -------------------------------------------------
 projected vibrational frequencies (cm⁻¹)
eigval :       -0.00    -0.00    -0.00    -0.00     0.00     0.00
eigval :       58.01   125.58   142.92   189.81   204.62   240.29
eigval :      289.69   289.72   375.76   539.04   663.94   665.11
eigval :      730.06   738.16  1003.47  1132.22  1169.38  2933.42
 reduced masses (amu)
    1:     32.27    2:     25.19    3:     22.81    4:     32.60    5:     32.83    6:     22.05
    7:     27.62    8:     33.59    9:     29.27   10:     35.30   11:     29.36   12:     28.33
   13:     30.33   14:     19.05   15:     24.98   16:      9.07   17:     12.27   18:     12.91
   19:      9.08   20:      6.49   21:      8.25   22:      1.08   23:      1.18   24:      1.08
 IR intensities (km·mol⁻¹)
    1:      0.05    2:      0.02    3:      0.05    4:      0.00    5:      0.04    6:      0.04
    7:      0.10    8:      1.19    9:      1.16   10:      0.03   11:      2.60   12:      8.12
   13:      0.84   14:     11.97   15:      2.31   16:      3.43   17:     16.18   18:     16.94
   19:      7.85   20:     15.58   21:      0.13   22:     28.67   23:      0.10   24:      4.29
 Raman intensities (Ä⁴*amu⁻¹)
    1:      0.00    2:      0.00    3:      0.00    4:      0.00    5:      0.00    6:      0.00
    7:      0.00    8:      0.00    9:      0.00   10:      0.00   11:      0.00   12:      0.00
   13:      0.00   14:      0.00   15:      0.00   16:      0.00   17:      0.00   18:      0.00
   19:      0.00   20:      0.00   21:      0.00   22:      0.00   23:      0.00   24:      0.00
 output can be read by thermo (or use thermo option).
 writing <g98.out> molden fake output.
 recommended (thermochemical) frequency scaling factor: 1.0
           -------------------------------------------------
          |             Thermodynamic Functions             |
           -------------------------------------------------

cs  symmetry found (for desy threshold:  0.10E+00) used in thermo

          ...................................................
          :                      SETUP                      :
          :.................................................:
          :  # frequencies                          18      :
          :  # imaginary freq.                       0      :
          :  linear?                             false      :
          :  only rotor calc.                    false      :
          :  symmetry                               cs      :
          :  rotational number                       1      :
          :  scaling factor                  1.0000000      :
          :  rotor cutoff                    0.0000000 cm⁻¹ :
          :  imag. cutoff                 -100.0000000 cm⁻¹ :
          :.................................................:

    mode    ω/cm⁻¹     T·S(HO)/kcal·mol⁻¹    T·S(FR)/kcal·mol⁻¹   T·S(vib)
   ------------------------------------------------------------------------
       1     58.01    -1.34874 (100.00%)    -1.01236 (  0.00%)    -1.34874
       2    125.58    -0.89821 (100.00%)    -0.78366 (  0.00%)    -0.89821
       3    142.92    -0.82423 (100.00%)    -0.74536 (  0.00%)    -0.82423
       4    189.81    -0.66478 (100.00%)    -0.66132 (  0.00%)    -0.66478
       5    204.62    -0.62348 (100.00%)    -0.63906 (  0.00%)    -0.62348
       6    240.29    -0.53690 (100.00%)    -0.59147 (  0.00%)    -0.53690
       7    289.69    -0.44000 (100.00%)    -0.53608 (  0.00%)    -0.44000
       8    289.72    -0.43995 (100.00%)    -0.53606 (  0.00%)    -0.43995
   ------------------------------------------------------------------------

   temp. (K)  partition function   enthalpy   heat capacity  entropy
                                   cal/mol     cal/K/mol   cal/K/mol   J/K/mol
 298.15  VIB   186.                 3589.606     21.530     22.430
         ROT  0.939E+06              888.727      2.981     30.309
         INT  0.175E+09             4478.333     24.511     52.739
         TR   0.880E+26             1481.212      4.968     41.818
         TOT                        5959.5454    29.4791    94.5569   395.6263

       T/K    H(0)-H(T)+PV         H(T)/Eh          T*S/Eh         G(T)/Eh
   ------------------------------------------------------------------------
    298.15    0.949714E-02    0.356760E-01    0.449271E-01   -0.925107E-02
   ------------------------------------------------------------------------

         :::::::::::::::::::::::::::::::::::::::::::::::::::::
         ::                  THERMODYNAMIC                  ::
         :::::::::::::::::::::::::::::::::::::::::::::::::::::
         :: total free energy         -27.537522796298 Eh   ::
         ::.................................................::
         :: total energy              -27.528271727659 Eh   ::
         :: zero point energy           0.026178848842 Eh   ::
         :: G(RRHO) w/o ZPVE           -0.035429917482 Eh   ::
         :: G(RRHO) contrib.           -0.009251068639 Eh   ::
         :::::::::::::::::::::::::::::::::::::::::::::::::::::

optimized geometry written to: xtbopt.coord


           -------------------------------------------------
          | TOTAL ENERGY              -27.528271727659 Eh   |
          | TOTAL ENTHALPY            -27.492595738651 Eh   |
          | TOTAL FREE ENERGY         -27.537522796298 Eh   |
          | GRADIENT NORM               0.000073406476 Eh/α |
          | HOMO-LUMO GAP               5.335812601203 eV   |
           -------------------------------------------------

------------------------------------------------------------------------
 * finished run on 2025/04/09 at 04:20:00.217     
------------------------------------------------------------------------
 total:
 * wall-time:     0 d,  0 h,  0 min,  0.422 sec
 *  cpu-time:     0 d,  0 h,  0 min,  0.417 sec
 * ratio c/w:     0.990 speedup
 SCF:
 * wall-time:     0 d,  0 h,  0 min,  0.010 sec
 *  cpu-time:     0 d,  0 h,  0 min,  0.010 sec
 * ratio c/w:     0.989 speedup
 ANC optimizer:
 * wall-time:     0 d,  0 h,  0 min,  0.059 sec
 *  cpu-time:     0 d,  0 h,  0 min,  0.058 sec
 * ratio c/w:     0.987 speedup
 analytical hessian:
 * wall-time:     0 d,  0 h,  0 min,  0.348 sec
 *  cpu-time:     0 d,  0 h,  0 min,  0.345 sec
 * ratio c/w:     0.991 speedup

