12
 energy: -517.255196433162 gnorm: 0.000672076475 xtb: 6.7.1 (41059b4)
C           -1.92445614370173       -0.53899483743982       -0.08778624750657
C           -0.90217527189176        0.53310064538691       -0.44156922167697
S            0.64698038996004        0.45442409305098        0.54297287284078
C            1.41348844503922       -1.03284923690908       -0.19299728798288
H           -1.53643858500624       -1.54322678903727       -0.28014788152701
H           -2.20036962311124       -0.47894629966146        0.96823910040144
H           -2.83046044260944       -0.41238698876003       -0.69146894584691
H           -1.30764414241063        1.53139541707884       -0.24612084058080
H           -0.63532127985955        0.49551800246504       -1.50426389037660
H            2.38805942494565       -1.15834541348200        0.28372390148316
H            1.56317105487176       -0.89863730741564       -1.26850985888924
H            0.81884566603751       -1.93091622356482       -0.00867486558538
12
 energy: -517.255199968652 gnorm: 0.000674395932 xtb: 6.7.1 (41059b4)
C           -1.92292116100760       -0.53962889803585       -0.08916709571590
C           -0.90099729306378        0.53331960311636       -0.44108569176762
S            0.64930806842740        0.45734752887806        0.54218665407689
C            1.41119406384019       -1.03279010938737       -0.19270032199840
H           -1.53403937766296       -1.54311799379520       -0.28323575570329
H           -2.19811548563211       -0.48128567377210        0.96709183501117
H           -2.82946242053481       -0.41315593529793       -0.69225783481538
H           -1.30749811892355        1.53075254306859       -0.24348019687065
H           -0.63582929617213        0.49807941343965       -1.50424538843377
H            2.38729551134760       -1.15684651429135        0.28242565631979
H            1.55819616807904       -0.90227215278435       -1.26916681583358
H            0.81654861868274       -1.93026649014583       -0.00296802165489
12
 energy: -517.255199968652 gnorm: 0.000674395932 xtb: 6.7.1 (41059b4)
C           -1.92292116100760       -0.53962889803585       -0.08916709571590
C           -0.90099729306378        0.53331960311636       -0.44108569176762
S            0.64930806842740        0.45734752887806        0.54218665407689
C            1.41119406384019       -1.03279010938737       -0.19270032199840
H           -1.53403937766296       -1.54311799379520       -0.28323575570329
H           -2.19811548563211       -0.48128567377210        0.96709183501117
H           -2.82946242053481       -0.41315593529793       -0.69225783481538
H           -1.30749811892355        1.53075254306859       -0.24348019687065
H           -0.63582929617213        0.49807941343965       -1.50424538843377
H            2.38729551134760       -1.15684651429135        0.28242565631979
H            1.55819616807904       -0.90227215278435       -1.26916681583358
H            0.81654861868274       -1.93026649014583       -0.00296802165489
