19
 energy: -386.004628885551 gnorm: 0.019492216037 xtb: 6.7.1 (41059b4)
C           -2.58542490384567        0.59848219236520        0.00119984330053
C           -1.23370849534669       -0.05456024612418        0.00010995140005
C           -1.14837541280888       -1.44307375543946       -0.00036147380016
C            0.07528931853336       -2.08245754972279       -0.00063928750028
C            1.24046872514968       -1.33792484389287        0.00008269620004
C            1.16874479701790        0.04654016692062        0.00024879160011
C           -0.06611881542930        0.70462476211224       -0.00076325020034
C           -0.04765245432112        2.20387778217660       -0.00122905640054
O            2.29633399681757        0.81804620436250        0.00092583930041
H           -2.71968954120517        1.21009687083623       -0.89017893429446
H           -3.36864352379274       -0.15485737826862        0.01893249960839
H           -2.70579462849901        1.23791291784855        0.87452454308753
H           -2.05583730271100       -2.02902497989911       -0.00025009820011
H            0.12648791795605       -3.16101107700073       -0.00097351890043
H            2.20633143787768       -1.82675656220948        0.00053873820024
H            0.45754530220275        2.56362884583601        0.89441025639634
H            0.52467784983250        2.56101978823486       -0.85634086787947
H           -1.04452984656286        2.62747083186430       -0.03972527951760
H            3.07287955316167        0.24630878090915        0.00047492510021
19
 energy: -386.005384846022 gnorm: 0.006967914516 xtb: 6.7.1 (41059b4)
C           -2.58570658415008        0.60164165269442        0.00107480839796
C           -1.23281599327175       -0.05884659376122        0.00014289546948
C           -1.15046596976151       -1.45356133028790       -0.00010617210252
C            0.07837109823520       -2.09581456406772       -0.00059769856981
C            1.24838519768027       -1.35004180661332       -0.00017951976540
C            1.17182926883031        0.03848305558860       -0.00017982134689
C           -0.06036394693520        0.70525864890917       -0.00106442017773
C           -0.04453618593018        2.20856617512931       -0.00125254972750
O            2.29513517502246        0.82200334785764        0.00119182090568
H           -2.72914631345960        1.22030282484904       -0.88965312194923
H           -3.37512816503736       -0.15088208090398        0.01811047896663
H           -2.71576065177249        1.24683475536195        0.87459705976947
H           -2.06329743716930       -2.03903461508647        0.00030069413351
H            0.12932118301200       -3.17834359859021       -0.00074734068705
H            2.21808838032163       -1.84027701181706        0.00036155254829
H            0.45799980296411        2.58484511812021        0.89464998882168
H            0.52485374666834        2.58266070338306       -0.85664233929763
H           -1.04650923044060        2.63130055562591       -0.03967783567498
H            3.07273068720784        0.25324750753794        0.00065792515064
19
 energy: -386.005449714561 gnorm: 0.001881956745 xtb: 6.7.1 (41059b4)
C           -2.58619268699498        0.60202342181359        0.00106169181716
C           -1.23219348889633       -0.05908994008791        0.00006814702544
C           -1.15109628202496       -1.45584233405963        0.00007443301469
C            0.07934615281281       -2.09949313241312       -0.00052004409913
C            1.25197937147976       -1.35488779849942       -0.00033314783314
C            1.17359761003099        0.03491384733559       -0.00019747175606
C           -0.05684712487559        0.70613393878890       -0.00118538137697
C           -0.04356681999507        2.20985418448523       -0.00141168818477
O            2.29656859988754        0.82314613982022        0.00142987061043
H           -2.73207677830626        1.22396024729503       -0.88901254915703
H           -3.37876906590206       -0.14930467139218        0.01702232033208
H           -2.71942192322638        1.24868395454365        0.87511337939061
H           -2.06585027027986       -2.04054648377195        0.00077394070491
H            0.12943866925597       -3.18351980697543       -0.00053890958588
H            2.22215579110634       -1.84665476962574        0.00011682500119
H            0.45659972770063        2.59331576458614        0.89481889523170
H            0.52341327371716        2.59131223759905       -0.85719467234940
H           -1.04850644005453        2.62947904062954       -0.03980894705884
H            3.07440577621232        0.25485899632063        0.00070980369632
19
 energy: -386.005454632307 gnorm: 0.000536827835 xtb: 6.7.1 (41059b4)
C           -2.58568680468639        0.60229303662996        0.00108181888374
C           -1.23178457593847       -0.05858550966692        0.00009325705521
C           -1.15094852235239       -1.45506685423169        0.00026779754237
C            0.07915564492129       -2.09917541650669       -0.00039339636018
C            1.25255373578975       -1.35557636860424       -0.00038182646839
C            1.17370464932286        0.03425520169744       -0.00021201205274
C           -0.05595544694724        0.70628550568931       -0.00123779347777
C           -0.04386014475183        2.20937191047844       -0.00161324152290
O            2.29768333356630        0.82328572019230        0.00156068199461
H           -2.73157382221729        1.22529064951801       -0.88821538211778
H           -3.37823348730873       -0.14899224709824        0.01570723835022
H           -2.71983589398466        1.24787601229735        0.87577679576584
H           -2.06567712782530       -2.03946060311767        0.00114555284590
H            0.12870575203083       -3.18335056803565       -0.00035894067125
H            2.22223679312511       -1.84819882641887       -0.00004745522467
H            0.45501565585444        2.59450175860673        0.89457943099248
H            0.52181122060692        2.59245301789349       -0.85747900360725
H           -1.04971570461107        2.62666138878148       -0.03998828081782
H            3.07538882067699        0.25447513320103        0.00070130979905
19
 energy: -386.005454632307 gnorm: 0.000536827835 xtb: 6.7.1 (41059b4)
C           -2.58568680468639        0.60229303662996        0.00108181888374
C           -1.23178457593847       -0.05858550966692        0.00009325705521
C           -1.15094852235239       -1.45506685423169        0.00026779754237
C            0.07915564492129       -2.09917541650669       -0.00039339636018
C            1.25255373578975       -1.35557636860424       -0.00038182646839
C            1.17370464932286        0.03425520169744       -0.00021201205274
C           -0.05595544694724        0.70628550568931       -0.00123779347777
C           -0.04386014475183        2.20937191047844       -0.00161324152290
O            2.29768333356630        0.82328572019230        0.00156068199461
H           -2.73157382221729        1.22529064951801       -0.88821538211778
H           -3.37823348730873       -0.14899224709824        0.01570723835022
H           -2.71983589398466        1.24787601229735        0.87577679576584
H           -2.06567712782530       -2.03946060311767        0.00114555284590
H            0.12870575203083       -3.18335056803565       -0.00035894067125
H            2.22223679312511       -1.84819882641887       -0.00004745522467
H            0.45501565585444        2.59450175860673        0.89457943099248
H            0.52181122060692        2.59245301789349       -0.85747900360725
H           -1.04971570461107        2.62666138878148       -0.03998828081782
H            3.07538882067699        0.25447513320103        0.00070130979905
