
                                 *****************
                                 * O   R   C   A *
                                 *****************

                                            #,                                       
                                            ###                                      
                                            ####                                     
                                            #####                                    
                                            ######                                   
                                           ########,                                 
                                     ,,################,,,,,                         
                               ,,#################################,,                 
                          ,,##########################################,,             
                       ,#########################################, ''#####,          
                    ,#############################################,,   '####,        
                  ,##################################################,,,,####,       
                ,###########''''           ''''###############################       
              ,#####''   ,,,,##########,,,,          '''####'''          '####       
            ,##' ,,,,###########################,,,                        '##       
           ' ,,###''''                  '''############,,,                           
         ,,##''                                '''############,,,,        ,,,,,,###''
      ,#''                                            '''#######################'''  
     '                                                          ''''####''''         
             ,#######,   #######,   ,#######,      ##                                
            ,#'     '#,  ##    ##  ,#'     '#,    #''#        ,####,   ,####,        
            ##       ##  ##   ,#'  ##            #'  '#       #'       #'  '#        
            ##       ##  #######   ##           ,######,      #####,   #    #        
            '#,     ,#'  ##    ##  '#,     ,#' ,#      #,     #,   #   #,  ,#        
             '#######'   ##     ##  '#######'  #'      '#     '####' # '####'        



                #########################################################
                #                        -***-                          #
                #          Department of theory and spectroscopy        #
                #                                                       #
                #                      Frank Neese                      #
                #                                                       #
                #     Directorship, Architecture, Infrastructure        #
                #                    SHARK, DRIVERS                     #
                #        Core code/Algorithms in most modules           #
                #                                                       #
                #        Max Planck Institute fuer Kohlenforschung      #
                #                Kaiser Wilhelm Platz 1                 #
                #                 D-45470 Muelheim/Ruhr                 #
                #                      Germany                          #
                #                                                       #
                #                  All rights reserved                  #
                #                        -***-                          #
                #########################################################


                         Program Version 6.0.1  -  RELEASE   -


 With contributions from (in alphabetic order):
[Max-Planck-Institut fuer Kohlenforschung]                               
  Daniel Aravena         : Magnetic Suceptibility                        
  Michael Atanasov       : Ab Initio Ligand Field Theory (pilot matlab implementation)
  Alexander A. Auer      : GIAO ZORA, VPT2 properties, NMR spectrum      
  Ute Becker             : All parallelization in ORCA, NUMFREQ, NUMCALC 
  Giovanni Bistoni       : ED, misc. LED, open-shell LED, HFLD           
  Martin Brehm           : Molecular dynamics                            
  Dmytro Bykov           : pre 5.0 version of the SCF Hessian            
  Marcos Casanova-Páez   : Triplet and SCS-CIS(D). UHF-(DLPNO)-IP/EA/STEOM-CCSD. UHF-CVS-IP/STEOM-CCSD   
  Vijay G. Chilkuri      : MRCI spin determinant printing, contributions to CSF-ICE 
  Pauline Colinet        : FMM embedding                                 
  Dipayan Datta          : RHF DLPNO-CCSD density                        
  Achintya Kumar Dutta   : EOM-CC, STEOM-CC                              
  Nicolas Foglia         : Exact transition moments, OPA infrastructure, MCD improvements    
  Dmitry Ganyushin       : Spin-Orbit,Spin-Spin,Magnetic field MRCI      
  Miquel Garcia-Rates    : C-PCM and meta-GGA Hessian, CCSD/C-PCM, Gaussian charge scheme 
  Tiago L. C. Gouveia    : GS-ROHF, GS-ROCIS                             
  Yang Guo               : DLPNO-NEVPT2, F12-NEVPT2, CIM, IAO-localization        
  Andreas Hansen         : Spin unrestricted coupled pair/coupled cluster methods 
  Ingolf Harden          : AUTO-CI MPn and infrastructure                
  Benjamin Helmich-Paris : MC-RPA, TRAH-(SCF,CASSCF), AVAS, COSX integrals, SCF dyn. polar. 
  Lee Huntington         : MR-EOM, pCC                                   
  Robert Izsak           : Overlap fitted RIJCOSX, COSX-SCS-MP3, EOM     
  Riya Kayal             : Wick's Theorem for AUTO-CI, AUTO-CI UHF-CCSDT 
  Emily Kempfer          : AUTO-CI, RHF CISDT and CCSDT                  
  Christian Kollmar      : KDIIS, OOCD, Brueckner-CCSD(T), CCSD density, CASPT2, CASPT2-K, improved NEVPT2 
  Axel Koslowski         : Symmetry handling                             
  Simone Kossmann        : meta-GGA functionals, TD-DFT gradient, OOMP2, (MP2 Hessian; deprecated post 5.0) 
  Lucas Lang             : DCDCAS                                        
  Marvin Lechner         : AUTO-CI (C++ implementation), FIC-MRCC        
  Spencer Leger          : CASSCF response                               
  Dagmar Lenk            : GEPOL surface, SMD, ORCA-2-JSON               
  Dimitrios Liakos       : Extrapolation schemes; Compound Job, initial MDCI parallelization 
  Dimitrios Manganas     : Further ROCIS development; embedding schemes. LFT, Crystal Embedding 
  Dimitrios Pantazis     : SARC Basis sets                               
  Anastasios Papadopoulos: AUTO-CI, single reference methods and gradients 
  Taras Petrenko         : pre 6.0 DFT Hessian and TD-DFT gradient, (ASA, deprecated), ECA, 1-Electron XAS/XES, NRVS 
  Peter Pinski           : DLPNO-MP2, DLPNO-MP2 Gradient                 
  Christoph Reimann      : Effective Core Potentials                     
  Marius Retegan         : Local ZFS, SOC                                
  Christoph Riplinger    : Optimizer, TS searches, QM/MM, DLPNO-CCSD(T), (RO)-DLPNO pert. Triples 
  Michael Roemelt        : Original ROCIS implementation                 
  Masaaki Saitow         : Open-shell DLPNO-CCSD energy and density      
  Barbara Sandhoefer     : DKH picture change effects                    
  Kantharuban Sivalingam : CASSCF convergence/infrastructure, NEVPT2 and variants, FIC-MRCI 
  Bernardo de Souza      : ESD, SOC TD-DFT                               
  Georgi L. Stoychev     : AutoAux, RI-MP2 NMR, DLPNO-MP2 response, X2C  
  Van Anh Tran           : RI-MP2 g-tensors                              
  Willem Van den Heuvel  : Paramagnetic NMR                              
  Zikuan Wang            : NOTCH, Electric field optimization            
  Frank Wennmohs         : Technical directorship and infrastructure     
  Hang Xu                : AUTO-CI-Response properties                   
                                                                         
[FACCTs GmbH]                                                            
  Markus Bursch, Miquel Garcia-Rates, Christoph Riplinger, Bernardo de Souza, Georgi L. Stoychev 
                                                                 
  APM, Basis sets (HGBS, AHGBS, def-TZVP (Ac-Lr), def2-XVPD (La-Lu)), CI-OPT, improved COSX, DLPNO-Multilevel,           
  DOCKER, DRACO, updates on ESD, GOAT, IRC, LR-CPCM, MBIS, meta-GGA TD-DFT gradient, ML-optimized integration grids, 
  MM, NACMEs, nearIR, NEB, NEB-TS, NL-DFT gradient (VV10), 2- and 3-layer-ONIOM, interface openCOSMO-RS, QMMM,   
  Crystal-QMMM, SF, symmetry and pop. for TD-DFT, r2SCAN hybrids, SOLVATOR                                   
                                                                         
[Other institutions]                                                     
  V. Asgeirsson          : NEB                                           
  Christoph Bannwarth    : sTDA-DFT, sTD-DFT, PBEh-3c, B97-3c, D3        
  Sebastian Ehlert       : rSCAN, r2SCAN, r2SCAN-3c, D4, dhf basis sets  
  Marvin Friede          : D4 for Fr, Ra, Ac-Lr                          
  Lars Goerigk           : TD-DFT with DH, B97 family of functionals     
  Stefan Grimme          : VdW corrections, initial TS optimization, DFT functionals, gCP, sTDA/sTD-DF 
  Waldemar Hujo          : DFT-NL                                        
  H. Jonsson             : NEB                                           
  Holger Kruse           : gCP                                           
  Marcel Mueller         : wB97X-3c, vDZP basis set                      
  Hagen Neugebauer       : wr2SCAN                                       
  Tobias Risthaus        : range-separated hybrid DFT                    
  Lukas Wittmann         : regularized MP2, r2SCAN double-hybrids, wr2SCAN        
                                                                         
We gratefully acknowledge several colleagues who have allowed us to      
interface, adapt or use parts of their codes:                            
  Ed Valeev, F. Pavosevic, A. Kumar             : LibInt (2-el integral package), F12 methods 
  Garnet Chan, S. Sharma, J. Yang, R. Olivares  : DMRG                   
  Ulf Ekstrom                                   : XCFun DFT Library      
  Mihaly Kallay                                 : mrcc  (arbitrary order and MRCC methods)
  Frank Weinhold                                : gennbo (NPA and NBO analysis)           
  Simon Mueller                                 : openCOSMO-RS                            
  Christopher J. Cramer and Donald G. Truhlar   : smd solvation model                     
  S Lehtola, MJT Oliveira, MAL Marques          : LibXC Library                           
  Liviu Ungur et al                             : ANISO software                          


 Your calculation uses the libint2 library for the computation of 2-el integrals
 For citations please refer to: http://libint.valeyev.net

 Your ORCA version has been built with support for libXC version: 6.2.2
 For citations please refer to: https://libxc.gitlab.io

 This ORCA versions uses:
   CBLAS   interface :  Fast vector & matrix operations
   LAPACKE interface :  Fast linear algebra routines
   SCALAPACK package :  Parallel linear algebra routines
   Shared memory     :  Shared parallel matrices
   BLAS/LAPACK       :  OpenBLAS 0.3.27  USE64BITINT DYNAMIC_ARCH NO_AFFINITY Zen SINGLE_THREADED
        Core in use  :  Zen
   Copyright (c) 2011-2014, The OpenBLAS Project


Your calculation utilizes the geometrical counterpoise correction gCP
Please cite in your paper:
H.Kruse, S. Grimme J.Chem.Phys., 136, (2012), 154101 
   

Your calculation utilizes the DFT-NL dispersion correction.
Cite in your paper:
Vydrov, O. A.; Van Voorhis, T. J. Chem. Phys. 2010, 133, 244103
Hujo, W.; Grimme, S. J. Chem. Theory Comput. 2011, 7, 3866 
   

================================================================================

----- Orbital basis set information -----
Your calculation utilizes the basis: def2-TZVP
   F. Weigend and R. Ahlrichs, Phys. Chem. Chem. Phys. 7, 3297 (2005).

----- AuxJ basis set information -----
Your calculation utilizes the auxiliary basis: def2/J
   F. Weigend, Phys. Chem. Chem. Phys. 8, 1057 (2006).

================================================================================
                                        WARNINGS
                       Please study these warnings very carefully!
================================================================================

WARNING: Old DensityContainer found on disk!
         Will remove this file - 
         If you want to keep old densities, please start your calculation with a different basename. 


================================================================================
                                       INPUT FILE
================================================================================
NAME = sp.inp
|  1> ! wb97x-v def2-tzvp def2/J RIJCOSX DEFGRID2 scfconv7 GCP(DFT/TZ) printgap
|  2> %output
|  3>     printlevel normal
|  4> end
|  5> * xyz 0 1
|  6> C 0.23901997778328324 0.020815940822186536 0.030184079908130008
|  7> N -1.392102518574757 0.011141873235328711 -0.21616284252247112
|  8> O -1.8664295882646678 0.9789773982710837 -0.7526458761236777
|  9> O -1.9412781428735595 -0.9897573157844718 0.17205625099587793
| 10> Cl 0.8712947716291781 -1.353860883108765 -0.8896162000094054
| 11> Cl 0.9052989102860864 1.5418733308865415 -0.5353281273971124
| 12> Cl 0.47390580907405966 -0.19074241550444923 1.7706181104013214
| 13> *
| 14> 
| 15>                          ****END OF INPUT****
================================================================================

                       ****************************
                       * Single Point Calculation *
                       ****************************

---------------------------------
CARTESIAN COORDINATES (ANGSTROEM)
---------------------------------
  C      0.239020    0.020816    0.030184
  N     -1.392103    0.011142   -0.216163
  O     -1.866430    0.978977   -0.752646
  O     -1.941278   -0.989757    0.172056
  Cl     0.871295   -1.353861   -0.889616
  Cl     0.905299    1.541873   -0.535328
  Cl     0.473906   -0.190742    1.770618

----------------------------
CARTESIAN COORDINATES (A.U.)
----------------------------
  NO LB      ZA    FRAG     MASS         X           Y           Z
   0 C     6.0000    0    12.011    0.451682    0.039336    0.057040
   1 N     7.0000    0    14.007   -2.630693    0.021055   -0.408489
   2 O     8.0000    0    15.999   -3.527041    1.849999   -1.422295
   3 O     8.0000    0    15.999   -3.668484   -1.870370    0.325139
   4 Cl   17.0000    0    35.453    1.646509   -2.558426   -1.681131
   5 Cl   17.0000    0    35.453    1.710767    2.913718   -1.011624
   6 Cl   17.0000    0    35.453    0.895552   -0.360451    3.345983

--------------------------------
INTERNAL COORDINATES (ANGSTROEM)
--------------------------------
 C      0   0   0     0.000000000000     0.00000000     0.00000000
 N      1   0   0     1.649648748037     0.00000000     0.00000000
 O      2   1   0     1.203954242446   116.83216240     0.00000000
 O      2   1   3     1.205863639669   114.02262203   179.69270502
 Cl     1   2   3     1.770745701709   105.71988064   241.41403638
 Cl     1   2   3     1.754236944195   109.41999398     1.86916911
 Cl     1   2   3     1.768908959323   106.11237634   122.57930591

---------------------------
INTERNAL COORDINATES (A.U.)
---------------------------
 C      0   0   0     0.000000000000     0.00000000     0.00000000
 N      1   0   0     3.117384350956     0.00000000     0.00000000
 O      2   1   0     2.275143795996   116.83216240     0.00000000
 O      2   1   3     2.278752033829   114.02262203   179.69270502
 Cl     1   2   3     3.346224429049   105.71988064   241.41403638
 Cl     1   2   3     3.315027398535   109.41999398     1.86916911
 Cl     1   2   3     3.342753488959   106.11237634   122.57930591

---------------------
BASIS SET INFORMATION
---------------------
There are 4 groups of distinct atoms

 Group   1 Type C   : 11s6p2d1f contracted to 5s3p2d1f pattern {62111/411/11/1}
 Group   2 Type N   : 11s6p2d1f contracted to 5s3p2d1f pattern {62111/411/11/1}
 Group   3 Type O   : 11s6p2d1f contracted to 5s3p2d1f pattern {62111/411/11/1}
 Group   4 Type Cl  : 14s9p3d1f contracted to 5s5p2d1f pattern {73211/51111/21/1}

Atom   0C    basis set group =>   1
Atom   1N    basis set group =>   2
Atom   2O    basis set group =>   3
Atom   3O    basis set group =>   3
Atom   4Cl   basis set group =>   4
Atom   5Cl   basis set group =>   4
Atom   6Cl   basis set group =>   4
---------------------------------
AUXILIARY/J BASIS SET INFORMATION
---------------------------------
There are 4 groups of distinct atoms

 Group   1 Type C   : 12s5p4d2f1g contracted to 6s4p3d1f1g pattern {711111/2111/211/2/1}
 Group   2 Type N   : 12s5p4d2f1g contracted to 6s4p3d1f1g pattern {711111/2111/211/2/1}
 Group   3 Type O   : 12s5p4d2f1g contracted to 6s4p3d1f1g pattern {711111/2111/211/2/1}
 Group   4 Type Cl  : 14s5p5d2f1g contracted to 8s4p3d1f1g pattern {71111111/2111/311/2/1}

Atom   0C    basis set group =>   1
Atom   1N    basis set group =>   2
Atom   2O    basis set group =>   3
Atom   3O    basis set group =>   3
Atom   4Cl   basis set group =>   4
Atom   5Cl   basis set group =>   4
Atom   6Cl   basis set group =>   4

Checking for AutoStart:
The File: sp.gbw exists
Trying to determine its content:
     ... Fine, the file contains calculation information
     ... Fine, the calculation information was read
     ... Fine, the file contains a basis set
     ... Fine, the basis set was read
     ... Fine, the file contains a geometry
     ... Fine, the geometry was read
     ... Fine, the file contains a set of orbitals
     ... Fine, the orbitals can be read
     => possible old guess file was deleted
     => GBW file was renamed to GES file
     => GES file is set as startup file
     => Guess is set to MORead
     ... now leaving AutoStart

------------------------------------------------------------------------------
                             ORCA STARTUP CALCULATIONS
                           -- RI-GTO INTEGRALS CHOSEN --
------------------------------------------------------------------------------
------------------------------------------------------------------------------
                   ___                                                        
                  /   \      - P O W E R E D   B Y -                         
                 /     \                                                     
                 |  |  |   _    _      __       _____    __    __             
                 |  |  |  | |  | |    /  \     |  _  \  |  |  /  |          
                  \  \/   | |  | |   /    \    | | | |  |  | /  /          
                 / \  \   | |__| |  /  /\  \   | |_| |  |  |/  /          
                |  |  |   |  __  | /  /__\  \  |    /   |      \           
                |  |  |   | |  | | |   __   |  |    \   |  |\   \          
                \     /   | |  | | |  |  |  |  | |\  \  |  | \   \       
                 \___/    |_|  |_| |__|  |__|  |_| \__\ |__|  \__/        
                                                                              
                      - O R C A' S   B I G   F R I E N D -                    
                                      &                                       
                       - I N T E G R A L  F E E D E R -                       
                                                                              
 v1 FN, 2020, v2 2021, v3 2022-2024                                           
------------------------------------------------------------------------------


----------------------
SHARK INTEGRAL PACKAGE
----------------------

Number of atoms                             ...      7
Number of basis functions                   ...    235
Number of shells                            ...     83
Maximum angular momentum                    ...      3
Integral batch strategy                     ... SHARK/LIBINT Hybrid
RI-J (if used) integral strategy            ... SPLIT-RIJ (Revised 2003 algorithm where possible)
Printlevel                                  ...      1
Contraction scheme used                     ... SEGMENTED contraction
Prescreening option                         ... SCHWARTZ
   Thresh                                   ... 3.000e-11
   Tcut                                     ... 1.000e-12
   Tpresel                                  ... 1.000e-12 
Coulomb Range Separation                    ... NOT USED
Exchange Range Separation                   ... Long Range
   Mu parameter                             ... 3.000e-01
   Scaling (regular/separated)              ... 1.670e-01 8.330e-01
Multipole approximations                    ... NOT USED
Finite Nucleus Model                        ... NOT USED
CABS basis                                  ... NOT available
Auxiliary Coulomb fitting basis             ... AVAILABLE
   # of basis functions in Aux-J            ...    349
   # of shells in Aux-J                     ...    111
   Maximum angular momentum in Aux-J        ...      4
Auxiliary J/K fitting basis                 ... NOT available
Auxiliary Correlation fitting basis         ... NOT available
Auxiliary 'external' fitting basis          ... NOT available

Checking pre-screening integrals            ... done (  0.0 sec) Dimension = 83
Check shell pair data                       ... done (  0.0 sec)
Shell pair information
Shell pair cut-off parameter TPreSel        ...   1.0e-12
Total number of shell pairs                 ...      3486
Shell pairs after pre-screening             ...      3135
Total number of primitive shell pairs       ...     13237
Primitive shell pairs kept                  ...      8447
          la=0 lb=0:    508 shell pairs
          la=1 lb=0:    826 shell pairs
          la=1 lb=1:    354 shell pairs
          la=2 lb=0:    453 shell pairs
          la=2 lb=1:    358 shell pairs
          la=2 lb=2:    104 shell pairs
          la=3 lb=0:    226 shell pairs
          la=3 lb=1:    180 shell pairs
          la=3 lb=2:     98 shell pairs
          la=3 lb=3:     28 shell pairs

Calculating one electron integrals          ... done (  0.0 sec)
Calculating RI/J V-Matrix + Cholesky decomp.... done (  0.0 sec)
Calculating Nuclear repulsion               ... done (  0.0 sec) ENN=    548.229227187086 Eh

Diagonalization of the overlap matrix:
Smallest eigenvalue                        ... 8.146e-04
Time for diagonalization                   ...    0.003 sec
Threshold for overlap eigenvalues          ... 1.000e-07
Number of eigenvalues below threshold      ... 0
Time for construction of square roots      ...    0.001 sec
Total time needed                          ...    0.006 sec

-------------------
DFT GRID GENERATION
-------------------

General Integration Accuracy     IntAcc      ... 4.388
Radial Grid Type                 RadialGrid  ... OptM3 with GC (2021)
Angular Grid (max. ang.)         AngularGrid ... 4 (Lebedev-302)
Angular grid pruning method      GridPruning ... 4 (adaptive)
Weight generation scheme         WeightScheme... mBecke (2022)
Basis function cutoff            BFCut       ... 1.0000e-11
Integration weight cutoff        WCut        ... 1.0000e-14
Partially contracted basis set               ... off
Rotationally invariant grid construction     ... off
Angular grids for H and He will be reduced by one unit

Total number of grid points                  ...    46373
Total number of batches                      ...      728
Average number of points per batch           ...       63
Average number of grid points per atom       ...     6625

--------------------
COSX GRID GENERATION
--------------------

GRIDX 1
-------
General Integration Accuracy     IntAcc      ... 3.816
Radial Grid Type                 RadialGrid  ... OptM3 with GC (2021)
Angular Grid (max. ang.)         AngularGrid ... 1 (Lebedev-50)
Angular grid pruning method      GridPruning ... 4 (adaptive)
Weight generation scheme         WeightScheme... mBecke (2022)
Basis function cutoff            BFCut       ... 1.0000e-11
Integration weight cutoff        WCut        ... 1.0000e-14
Partially contracted basis set               ... on
Rotationally invariant grid construction     ... off
Angular grids for H and He will be reduced by one unit

Total number of grid points                  ...     8954
Total number of batches                      ...       74
Average number of points per batch           ...      121
Average number of grid points per atom       ...     1279
UseSFitting                                  ... on

GRIDX 2
-------
General Integration Accuracy     IntAcc      ... 4.020
Radial Grid Type                 RadialGrid  ... OptM3 with GC (2021)
Angular Grid (max. ang.)         AngularGrid ... 2 (Lebedev-110)
Angular grid pruning method      GridPruning ... 4 (adaptive)
Weight generation scheme         WeightScheme... mBecke (2022)
Basis function cutoff            BFCut       ... 1.0000e-11
Integration weight cutoff        WCut        ... 1.0000e-14
Partially contracted basis set               ... on
Rotationally invariant grid construction     ... off
Angular grids for H and He will be reduced by one unit

Total number of grid points                  ...    13303
Total number of batches                      ...      108
Average number of points per batch           ...      123
Average number of grid points per atom       ...     1900
UseSFitting                                  ... on

GRIDX 3
-------
General Integration Accuracy     IntAcc      ... 4.338
Radial Grid Type                 RadialGrid  ... OptM3 with GC (2021)
Angular Grid (max. ang.)         AngularGrid ... 3 (Lebedev-194)
Angular grid pruning method      GridPruning ... 4 (adaptive)
Weight generation scheme         WeightScheme... mBecke (2022)
Basis function cutoff            BFCut       ... 1.0000e-11
Integration weight cutoff        WCut        ... 1.0000e-14
Partially contracted basis set               ... on
Rotationally invariant grid construction     ... off
Angular grids for H and He will be reduced by one unit

Total number of grid points                  ...    31348
Total number of batches                      ...      248
Average number of points per batch           ...      126
Average number of grid points per atom       ...     4478
UseSFitting                                  ... on
Initializing property integral containers    ... done (  0.0 sec)

SHARK setup successfully completed in   0.6 seconds

Maximum memory used throughout the entire STARTUP-calculation: 30.3 MB
-------------------------------------------------------------------------------
                                 ORCA GUESS
                   Start orbitals & Density for SCF / CASSCF
-------------------------------------------------------------------------------

------------
SCF SETTINGS
------------
Hamiltonian:
 Density Functional     Method          .... DFT(GTOs)
 Exchange Functional    Exchange        .... WB97X-V
 Correlation Functional Correlation     .... WB97X-V
 Gradients option       PostSCFGGA      .... off
 Hybrid DFT is turned on
   Fraction HF Exchange ScalHFX         ....  0.167000
   Scaling of DF-GGA-X  ScalDFX         ....  0.000000
   Scaling of DF-GGA-C  ScalDFC         ....  1.000000
   Scaling of DF-LDA-C  ScalLDAC        ....  1.000000
   Perturbative correction              ....  0.000000
 Long-range corrected/Screened/Range-Separated Hybrid DFT is turned on
   Amount of maximum screened exact exchange              ....  0.833000
   Range separation parameter mu (erf(mu*r12)/r12)        ....  0.300000
   NL short-range parameter             ....  6.000000
   NL long-range parameter              ....  0.010000
 RI-approximation to the Coulomb term is turned on
   Number of AuxJ basis functions       .... 349
   RIJ-COSX (HFX calculated with COS-X)).... on


General Settings:
 Integral files         IntName         .... sp
 Hartree-Fock type      HFTyp           .... RHF
 Total Charge           Charge          ....    0
 Multiplicity           Mult            ....    1
 Number of Electrons    NEL             ....   80
 Basis Dimension        Dim             ....  235
 Nuclear Repulsion      ENuc            ....    548.2292271871 Eh

Convergence Acceleration:
 AO-DIIS                CNVDIIS         .... on
   Start iteration      DIISMaxIt       ....    12
   Startup error        DIISStart       ....  0.200000
   # of expansion vecs  DIISMaxEq       ....     5
   Bias factor          DIISBfac        ....   1.050
   Max. coefficient     DIISMaxC        ....  10.000
 MO-DIIS                CNVKDIIS        .... off
 Trust-Rad. Augm. Hess. CNVTRAH         .... auto
   Auto Start mean grad. ratio tolernc. ....  1.125000
   Auto Start start iteration           ....     1
   Auto Start num. interpolation iter.  ....    10
   Max. Number of Micro iterations      ....    24
   Max. Number of Macro iterations      .... Maxiter - #DIIS iter
   Number of Davidson start vectors     ....     2
   Converg. threshold    (grad. norm)   ....   1.000e-04
   Grad. Scal. Fac. for Micro threshold ....   0.100
   Minimum threshold for Micro iter.    ....   1.000e-02
   NR start threshold (gradient norm)   ....   1.000e-04
   Initial trust radius                 ....   0.400
   Minimum AH scaling param. (alpha)    ....   1.000
   Maximum AH scaling param. (alpha)    .... 1000.000
   Quad. conv. algorithm                .... NR
   White noise on init. David. guess    .... on
   Maximum white noise                  ....   0.010
   Pseudo random numbers                .... off
   Inactive MOs                         .... canonical
   Orbital update algorithm             .... Taylor
   Preconditioner                       .... Diag
   Full preconditioner red. dimension   ....   250
 SOSCF                  CNVSOSCF        .... on
   Start iteration      SOSCFMaxIt      ....   150
   Startup grad/error   SOSCFStart      ....  0.003300
   Hessian update       SOSCFHessUp     .... L-BFGS
 Level Shifting         CNVShift        .... on
   Level shift para.    LevelShift      ....    0.2500
   Turn off err/grad.   ShiftErr        ....    0.0010
 Zerner damping         CNVZerner       .... off
 Static damping         CNVDamp         .... on
   Fraction old density DampFac         ....    0.7000
   Max. Damping (<1)    DampMax         ....    0.9800
   Min. Damping (>=0)   DampMin         ....    0.0000
   Turn off err/grad.   DampErr         ....    0.1000

SCF Procedure:
 Maximum # iterations   MaxIter         ....   125
 SCF integral mode      SCFMode         .... Direct
   Integral package                     .... SHARK and LIBINT hybrid scheme
 Reset frequency        DirectResetFreq ....    20
 Integral Threshold     Thresh          ....  3.000e-11 Eh
 Primitive CutOff       TCut            ....  1.000e-12 Eh

Convergence Tolerance:
 Convergence Check Mode ConvCheckMode   .... Total+1el-Energy
 Convergence forced     ConvForced      .... 0
 Energy Change          TolE            ....  1.000e-07 Eh
 1-El. energy change                    ....  1.000e-04 Eh
 Orbital Gradient       TolG            ....  1.000e-04
 Orbital Rotation angle TolX            ....  1.000e-04
 DIIS Error             TolErr          ....  1.000e-07

---------------------
INITIAL GUESS: MOREAD
---------------------
Guess MOs are being read from file: sp.ges
Input Geometry matches current geometry (good)
Atom 0: N(Shells)= 11 and 9 - projection required
Input basis set needs projection
NBasis(read)= 172
NBasis(calc)= 235
Basis set overlap was calculated
Using GuessMode=FMatrix for the initial guess
C*T matrix was formed
Effective Fockian was calculated
Effective Fockian was diagonalized
Initial density was built
                      ------------------
                      INITIAL GUESS DONE (   0.0 sec)
                      ------------------
             **** ENERGY FILE WAS UPDATED (sp.en.tmp) ****
Finished Guess after   0.0 sec
Maximum memory used throughout the entire GUESS-calculation: 20.5 MB

-------------------------------------------------------------------------------------------
                                      ORCA LEAN-SCF
                              memory conserving SCF solver
-------------------------------------------------------------------------------------------

----------------------------------------D-I-I-S--------------------------------------------
Iteration    Energy (Eh)           Delta-E    RMSDP     MaxDP     DIISErr   Damp  Time(sec)
-------------------------------------------------------------------------------------------
               ***  Starting incremental Fock matrix formation  ***
    1    -1623.9260765296294267     0.00e+00  7.88e-04  2.60e-02  6.68e-02  0.700   4.2
    2    -1623.9344743775691313    -8.40e-03  6.54e-04  2.29e-02  4.90e-02  0.700   2.6
                               ***Turning on AO-DIIS***
    3    -1623.9407384806427217    -6.26e-03  5.33e-04  2.02e-02  3.53e-02  0.700   2.6
    4    -1623.9453331769823308    -4.59e-03  1.34e-03  5.15e-02  2.51e-02  0.000   2.6
                              *** Initializing SOSCF ***
---------------------------------------S-O-S-C-F--------------------------------------
Iteration    Energy (Eh)           Delta-E    RMSDP     MaxDP     MaxGrad    Time(sec)
--------------------------------------------------------------------------------------
    5    -1623.9570560400175054    -1.17e-02  8.40e-05  2.61e-03  1.45e-03     2.6
               *** Restarting incremental Fock matrix formation ***
    6    -1623.9571365531314768    -8.05e-05  5.87e-05  1.34e-03  1.11e-03     4.2
    7    -1623.9571656630969301    -2.91e-05  4.02e-05  8.45e-04  4.42e-04     3.4
    8    -1623.9571710910245201    -5.43e-06  6.16e-06  1.85e-04  1.55e-04     3.3
    9    -1623.9571712852357450    -1.94e-07  3.15e-06  1.11e-04  1.13e-04     2.9
   10    -1623.9571714592166245    -1.74e-07  1.03e-06  4.45e-05  1.22e-05     2.8
                  *** Gradient check signals convergence ***

               *****************************************************
               *                     SUCCESS                       *
               *           SCF CONVERGED AFTER  10 CYCLES          *
               *****************************************************


------------------
NL GRID GENERATION
------------------

General Integration Accuracy     IntAcc      ... 4.004
Radial Grid Type                 RadialGrid  ... OptM3 with GC (2021)
Angular Grid (max. ang.)         AngularGrid ... 2 (Lebedev-110)
Angular grid pruning method      GridPruning ... 4 (adaptive)
Weight generation scheme         WeightScheme... mBecke (2022)
Basis function cutoff            BFCut       ... 1.0000e-10
Integration weight cutoff        WCut        ... 1.0000e-14
Partially contracted basis set               ... off
Rotationally invariant grid construction     ... off
Angular grids for H and He will be reduced by one unit

Total number of grid points                  ...    15631
Total number of batches                      ...      249
Average number of points per batch           ...       62
Average number of grid points per atom       ...     2233
Final grid set up in    0.1 sec

-------------------------------------------------------------------------------
                    post-SCF DFT-NL dispersion correction                      
-------------------------------------------------------------------------------

SCF Energy:    -1623.957171459 
NL    Energy:      0.321146197 
SC+NL Energy:  -1623.636025262 
NL done in  :              0.7 sec
-------------------------------------------------------------------------------
Recomputing exchange energy using gridx3       ... done (    8.477 sec)
Old exchange energy                            :    -29.154224237 Eh
New exchange energy                            :    -29.154219199 Eh
Exchange energy change after final integration :      0.000005039 Eh
Total energy after final integration           :  -1623.636020224 Eh
             **** ENERGY FILE WAS UPDATED (sp.en.tmp) ****

----------------
TOTAL SCF ENERGY
----------------

Total Energy       :      -1623.63602022389227 Eh          -44181.38225 eV

Components:
Nuclear Repulsion  :        548.22922718708617 Eh           14918.07569 eV
Electronic Energy  :      -2172.18639864630268 Eh          -59108.19691 eV
One Electron Energy:      -3329.20329177540816 Eh          -90592.22719 eV
Two Electron Energy:       1157.01689312910548 Eh           31484.03028 eV

Virial components:
Potential Energy   :      -3244.35488153617007 Eh          -88283.38457 eV
Kinetic Energy     :       1620.71886131227802 Eh           44102.00232 eV
Virial Ratio       :          2.00179991667972

DFT components:
N(Alpha)           :       40.000006140121 electrons
N(Beta)            :       40.000006140121 electrons
N(Total)           :       80.000012280242 electrons
E(X)               :      -81.054912128113 Eh       
E(C)               :       -3.987525344463 Eh       
NL Energy, E(C,NL) :        0.321146196784 Eh       
E(XC)              :      -84.721291275792 Eh       

---------------
SCF CONVERGENCE
---------------

  Last Energy change         ...    1.7398e-07  Tolerance :   1.0000e-07
  Last MAX-Density change    ...    4.4544e-05  Tolerance :   1.0000e-05
  Last RMS-Density change    ...    1.0317e-06  Tolerance :   1.0000e-06
  Last DIIS Error            ...    1.4511e-03  Tolerance :   1.0000e-07
  Last Orbital Gradient      ...    1.2229e-05  Tolerance :   1.0000e-04
  Last Orbital Rotation      ...    1.4337e-05  Tolerance :   1.0000e-04


----------------
ORBITAL ENERGIES
----------------

  NO   OCC          E(Eh)            E(eV) 
   0   2.0000    -101.573370     -2763.9519 
   1   2.0000    -101.573335     -2763.9510 
   2   2.0000    -101.573170     -2763.9465 
   3   2.0000     -19.291985      -524.9616 
   4   2.0000     -19.288515      -524.8672 
   5   2.0000     -14.692885      -399.8137 
   6   2.0000     -10.528732      -286.5014 
   7   2.0000      -9.612768      -261.5767 
   8   2.0000      -9.612745      -261.5761 
   9   2.0000      -9.612622      -261.5727 
  10   2.0000      -7.368804      -200.5153 
  11   2.0000      -7.368784      -200.5148 
  12   2.0000      -7.368651      -200.5112 
  13   2.0000      -7.358152      -200.2255 
  14   2.0000      -7.358126      -200.2248 
  15   2.0000      -7.357954      -200.2201 
  16   2.0000      -7.357912      -200.2190 
  17   2.0000      -7.357885      -200.2182 
  18   2.0000      -7.357805      -200.2160 
  19   2.0000      -1.412064       -38.4242 
  20   2.0000      -1.241613       -33.7860 
  21   2.0000      -1.117675       -30.4135 
  22   2.0000      -1.004603       -27.3366 
  23   2.0000      -1.003769       -27.3140 
  24   2.0000      -0.878437       -23.9035 
  25   2.0000      -0.745129       -20.2760 
  26   2.0000      -0.702510       -19.1163 
  27   2.0000      -0.699833       -19.0434 
  28   2.0000      -0.669415       -18.2157 
  29   2.0000      -0.617288       -16.7973 
  30   2.0000      -0.611130       -16.6297 
  31   2.0000      -0.517772       -14.0893 
  32   2.0000      -0.494921       -13.4675 
  33   2.0000      -0.494024       -13.4431 
  34   2.0000      -0.474279       -12.9058 
  35   2.0000      -0.461500       -12.5581 
  36   2.0000      -0.452506       -12.3133 
  37   2.0000      -0.441414       -12.0115 
  38   2.0000      -0.432592       -11.7714 
  39   2.0000      -0.430515       -11.7149 
  40   0.0000      -0.010821        -0.2945 
  41   0.0000       0.027788         0.7561 
  42   0.0000       0.078731         2.1424 
  43   0.0000       0.085665         2.3311 
  44   0.0000       0.090104         2.4518 
  45   0.0000       0.188225         5.1219 
  46   0.0000       0.264076         7.1859 
  47   0.0000       0.265473         7.2239 
  48   0.0000       0.280483         7.6323 
  49   0.0000       0.319665         8.6985 
  50   0.0000       0.336529         9.1574 
*Only the first 10 virtual orbitals were printed.

                    ********************************
                    * MULLIKEN POPULATION ANALYSIS *
                    ********************************

-----------------------
MULLIKEN ATOMIC CHARGES
-----------------------
   0 C :    0.074176
   1 N :    0.394890
   2 O :   -0.250090
   3 O :   -0.255462
   4 Cl:    0.003825
   5 Cl:    0.026764
   6 Cl:    0.005898
Sum of atomic charges:    0.0000000

--------------------------------
MULLIKEN REDUCED ORBITAL CHARGES
--------------------------------
  0 C s       :     3.184345  s :     3.184345
      pz      :     0.816876  p :     2.459819
      px      :     0.827933
      py      :     0.815010
      dz2     :     0.059748  d :     0.268184
      dxz     :     0.043586
      dyz     :     0.062227
      dx2y2   :     0.060405
      dxy     :     0.042218
      f0      :     0.001878  f :     0.013476
      f+1     :     0.001987
      f-1     :     0.002702
      f+2     :     0.001637
      f-2     :     0.001380
      f+3     :     0.001886
      f-3     :     0.002006

  1 N s       :     3.305709  s :     3.305709
      pz      :     1.047415  p :     3.028395
      px      :     1.066079
      py      :     0.914900
      dz2     :     0.038843  d :     0.256749
      dxz     :     0.020709
      dyz     :     0.051192
      dx2y2   :     0.092900
      dxy     :     0.053106
      f0      :     0.000877  f :     0.014258
      f+1     :     0.001089
      f-1     :     0.002177
      f+2     :     0.001982
      f-2     :     0.002121
      f+3     :     0.001766
      f-3     :     0.004245

  2 O s       :     3.872024  s :     3.872024
      pz      :     1.341140  p :     4.327441
      px      :     1.687900
      py      :     1.298401
      dz2     :     0.007594  d :     0.047043
      dxz     :     0.005208
      dyz     :     0.012493
      dx2y2   :     0.009572
      dxy     :     0.012175
      f0      :     0.000258  f :     0.003582
      f+1     :     0.000164
      f-1     :     0.000632
      f+2     :     0.000525
      f-2     :     0.000674
      f+3     :     0.000760
      f-3     :     0.000568

  3 O s       :     3.866657  s :     3.866657
      pz      :     1.412763  p :     4.338311
      px      :     1.655839
      py      :     1.269709
      dz2     :     0.006303  d :     0.046912
      dxz     :     0.005081
      dyz     :     0.010837
      dx2y2   :     0.010911
      dxy     :     0.013779
      f0      :     0.000289  f :     0.003582
      f+1     :     0.000173
      f-1     :     0.000508
      f+2     :     0.000358
      f-2     :     0.000659
      f+3     :     0.000906
      f-3     :     0.000687

  4 Cls       :     5.899672  s :     5.899672
      pz      :     3.724025  p :    11.033093
      px      :     3.833174
      py      :     3.475894
      dz2     :     0.007146  d :     0.057567
      dxz     :     0.006018
      dyz     :     0.019398
      dx2y2   :     0.011358
      dxy     :     0.013648
      f0      :     0.000755  f :     0.005842
      f+1     :     0.000194
      f-1     :     0.000846
      f+2     :     0.001067
      f-2     :     0.001296
      f+3     :     0.000986
      f-3     :     0.000698

  5 Cls       :     5.891545  s :     5.891545
      pz      :     3.850647  p :    11.015414
      px      :     3.808059
      py      :     3.356708
      dz2     :     0.008366  d :     0.060087
      dxz     :     0.004138
      dyz     :     0.014088
      dx2y2   :     0.015795
      dxy     :     0.017700
      f0      :     0.000692  f :     0.006191
      f+1     :     0.000192
      f-1     :     0.000859
      f+2     :     0.000819
      f-2     :     0.000873
      f+3     :     0.001753
      f-3     :     0.001003

  6 Cls       :     5.899070  s :     5.899070
      pz      :     3.192675  p :    11.031310
      px      :     3.913741
      py      :     3.924894
      dz2     :     0.033213  d :     0.057842
      dxz     :     0.011017
      dyz     :     0.010862
      dx2y2   :     0.001338
      dxy     :     0.001412
      f0      :     0.003023  f :     0.005879
      f+1     :     0.001275
      f-1     :     0.001195
      f+2     :     0.000194
      f-2     :     0.000151
      f+3     :     0.000018
      f-3     :     0.000023


------------------------
MULLIKEN OVERLAP CHARGES
------------------------
B(  0-C ,  1-N ) :   0.6992 B(  0-C ,  2-O ) :  -0.1361 B(  0-C ,  3-O ) :  -0.1245 
B(  0-C ,  4-Cl) :   0.7948 B(  0-C ,  5-Cl) :   0.8518 B(  0-C ,  6-Cl) :   0.7986 
B(  1-N ,  2-O ) :   0.8296 B(  1-N ,  3-O ) :   0.8914 B(  1-N ,  4-Cl) :  -0.0835 
B(  1-N ,  5-Cl) :  -0.0871 B(  1-N ,  6-Cl) :  -0.0831 B(  2-O ,  3-O ) :  -0.2267 
B(  4-Cl,  5-Cl) :  -0.1317 B(  4-Cl,  6-Cl) :  -0.1258 B(  5-Cl,  6-Cl) :  -0.1319 



                     *******************************
                     * LOEWDIN POPULATION ANALYSIS *
                     *******************************

----------------------
LOEWDIN ATOMIC CHARGES
----------------------
   0 C :   -1.101613
   1 N :   -0.109198
   2 O :    0.011617
   3 O :    0.007124
   4 Cl:    0.388339
   5 Cl:    0.412995
   6 Cl:    0.390737

-------------------------------
LOEWDIN REDUCED ORBITAL CHARGES
-------------------------------
  0 C s       :     3.025567  s :     3.025567
      pz      :     1.078490  p :     3.126169
      px      :     0.961369
      py      :     1.086310
      dz2     :     0.211935  d :     0.868577
      dxz     :     0.123004
      dyz     :     0.199210
      dx2y2   :     0.199259
      dxy     :     0.135169
      f0      :     0.010771  f :     0.081300
      f+1     :     0.012113
      f-1     :     0.015455
      f+2     :     0.010561
      f-2     :     0.010102
      f+3     :     0.011633
      f-3     :     0.010664

  1 N s       :     2.982832  s :     2.982832
      pz      :     1.043223  p :     3.291377
      px      :     1.132980
      py      :     1.115174
      dz2     :     0.101629  d :     0.764037
      dxz     :     0.062483
      dyz     :     0.158020
      dx2y2   :     0.261985
      dxy     :     0.179922
      f0      :     0.005120  f :     0.070952
      f+1     :     0.005507
      f-1     :     0.005626
      f+2     :     0.010491
      f-2     :     0.010968
      f+3     :     0.010071
      f-3     :     0.023168

  2 O s       :     3.497525  s :     3.497525
      pz      :     1.342155  p :     4.373233
      px      :     1.636953
      py      :     1.394125
      dz2     :     0.014167  d :     0.105871
      dxz     :     0.011327
      dyz     :     0.029105
      dx2y2   :     0.022477
      dxy     :     0.028796
      f0      :     0.001062  f :     0.011755
      f+1     :     0.000420
      f-1     :     0.001835
      f+2     :     0.001864
      f-2     :     0.002357
      f+3     :     0.002332
      f-3     :     0.001884

  3 O s       :     3.495805  s :     3.495805
      pz      :     1.388656  p :     4.380001
      px      :     1.616386
      py      :     1.374959
      dz2     :     0.013756  d :     0.105352
      dxz     :     0.009517
      dyz     :     0.023590
      dx2y2   :     0.024615
      dxy     :     0.033873
      f0      :     0.001080  f :     0.011718
      f+1     :     0.000519
      f-1     :     0.001614
      f+2     :     0.001245
      f-2     :     0.002026
      f+3     :     0.002941
      f-3     :     0.002294

  4 Cls       :     5.590446  s :     5.590446
      pz      :     3.681885  p :    10.912105
      px      :     3.762825
      py      :     3.467395
      dz2     :     0.012425  d :     0.097159
      dxz     :     0.009608
      dyz     :     0.032445
      dx2y2   :     0.019914
      dxy     :     0.022767
      f0      :     0.001429  f :     0.011951
      f+1     :     0.000396
      f-1     :     0.001826
      f+2     :     0.002145
      f-2     :     0.002680
      f+3     :     0.002073
      f-3     :     0.001402

  5 Cls       :     5.578094  s :     5.578094
      pz      :     3.789303  p :    10.894981
      px      :     3.739168
      py      :     3.366510
      dz2     :     0.013899  d :     0.101216
      dxz     :     0.006651
      dyz     :     0.024199
      dx2y2   :     0.027766
      dxy     :     0.028701
      f0      :     0.001364  f :     0.012713
      f+1     :     0.000358
      f-1     :     0.001820
      f+2     :     0.001656
      f-2     :     0.001843
      f+3     :     0.003621
      f-3     :     0.002051

  6 Cls       :     5.589130  s :     5.589130
      pz      :     3.220378  p :    10.910531
      px      :     3.835269
      py      :     3.854884
      dz2     :     0.056346  d :     0.097574
      dxz     :     0.018321
      dyz     :     0.018994
      dx2y2   :     0.001883
      dxy     :     0.002031
      f0      :     0.006082  f :     0.012028
      f+1     :     0.002713
      f-1     :     0.002596
      f+2     :     0.000290
      f-2     :     0.000278
      f+3     :     0.000026
      f-3     :     0.000044


---------------------------------
LOEWDIN BOND ORDERS (THRESH 0.050000)
---------------------------------
B(  0-C ,  1-N ) :   0.9535 B(  0-C ,  2-O ) :   0.1669 B(  0-C ,  3-O ) :   0.1717 
B(  0-C ,  4-Cl) :   1.7076 B(  0-C ,  5-Cl) :   1.7493 B(  0-C ,  6-Cl) :   1.7119 
B(  1-N ,  2-O ) :   2.4105 B(  1-N ,  3-O ) :   2.3967 B(  1-N ,  4-Cl) :   0.0909 
B(  1-N ,  5-Cl) :   0.0838 B(  1-N ,  6-Cl) :   0.0899 B(  2-O ,  3-O ) :   0.3694 
B(  4-Cl,  5-Cl) :   0.1071 B(  4-Cl,  6-Cl) :   0.1061 B(  5-Cl,  6-Cl) :   0.1073 


------------------------------------------
LOEWDIN REDUCED ORBITAL POPULATIONS PER MO
-------------------------------------------
THRESHOLD FOR PRINTING IS 0.1%%
                      0         1         2         3         4         5   
                 -101.57337 -101.57334 -101.57317 -19.29199 -19.28852 -14.69288
                   2.00000   2.00000   2.00000   2.00000   2.00000   2.00000
                  --------  --------  --------  --------  --------  --------
 1 N  s               0.0       0.0       0.0       0.0       0.0      99.4
 2 O  s               0.0       0.0       0.0      99.7       0.0       0.0
 3 O  s               0.0       0.0       0.0       0.0      99.8       0.0
 4 Cl s              99.9       0.1       0.0       0.0       0.0       0.0
 5 Cl s               0.0       0.0     100.0       0.0       0.0       0.0
 6 Cl s               0.1      99.9       0.0       0.0       0.0       0.0

                      6         7         8         9        10        11   
                 -10.52873  -9.61277  -9.61274  -9.61262  -7.36880  -7.36878
                   2.00000   2.00000   2.00000   2.00000   2.00000   2.00000
                  --------  --------  --------  --------  --------  --------
 0 C  s              99.7       0.0       0.0       0.0       0.0       0.0
 0 C  pz              0.0       0.0       0.1       0.0       0.0       0.0
 0 C  py              0.0       0.1       0.0       0.1       0.0       0.0
 4 Cl s               0.0      99.5       0.2       0.1       0.0       0.0
 4 Cl pz              0.0       0.0       0.0       0.0      27.2       0.2
 4 Cl px              0.0       0.0       0.0       0.0      12.8       0.1
 4 Cl py              0.0       0.0       0.0       0.0      59.3       0.4
 5 Cl s               0.0       0.1       0.1      99.5       0.0       0.0
 6 Cl s               0.0       0.2      99.4       0.1       0.0       0.0
 6 Cl pz              0.0       0.0       0.0       0.0       0.7      96.2
 6 Cl px              0.0       0.0       0.0       0.0       0.0       1.8
 6 Cl py              0.0       0.0       0.0       0.0       0.0       1.3

                     12        13        14        15        16        17   
                  -7.36865  -7.35815  -7.35813  -7.35795  -7.35791  -7.35788
                   2.00000   2.00000   2.00000   2.00000   2.00000   2.00000
                  --------  --------  --------  --------  --------  --------
 4 Cl pz              0.0      29.6       0.0       0.0      42.9       0.0
 4 Cl px              0.0      70.3       0.0       0.0      16.8       0.0
 4 Cl py              0.0       0.0       0.0       0.0      40.2       0.0
 5 Cl pz             10.1       0.0       0.0       5.3       0.0       0.0
 5 Cl px             15.3       0.0       0.0      83.8       0.0       0.0
 5 Cl py             74.6       0.0       0.0      10.8       0.0       0.0
 6 Cl pz              0.0       0.0       2.7       0.0       0.0       0.4
 6 Cl px              0.0       0.0      88.1       0.0       0.0      10.0
 6 Cl py              0.0       0.0       9.2       0.0       0.0      89.5

                     18        19        20        21        22        23   
                  -7.35780  -1.41206  -1.24161  -1.11767  -1.00460  -1.00377
                   2.00000   2.00000   2.00000   2.00000   2.00000   2.00000
                  --------  --------  --------  --------  --------  --------
 0 C  s               0.0       1.6       0.0      32.4       0.0       0.0
 0 C  pz              0.0       0.1       0.1       0.0      19.8       3.7
 0 C  px              0.0       2.9       0.0       2.0       0.4       0.2
 0 C  py              0.0       0.0       0.5       0.0       3.9      20.0
 0 C  dz2             0.0       0.2       0.0       0.2       2.0       1.5
 0 C  dxz             0.0       0.1       0.1       0.1       0.5       0.1
 0 C  dyz             0.0       0.0       0.0       0.0       1.5       1.3
 0 C  dx2y2           0.0       0.6       0.0       0.5       0.3       0.3
 0 C  dxy             0.0       0.0       0.2       0.0       0.4       1.9
 0 C  f0              0.0       0.0       0.0       0.3       0.0       0.0
 0 C  f-2             0.0       0.0       0.0       0.0       0.1       0.1
 0 C  f+3             0.0       0.0       0.0       0.1       0.0       0.0
 1 N  s               0.0      34.9       0.0       0.4       0.0       0.0
 1 N  pz              0.0       0.1       6.9       0.1       0.4       0.0
 1 N  px              0.0       2.8       0.0       6.6       0.0       0.0
 1 N  py              0.0       0.0      31.3       0.0       0.1       0.1
 1 N  dz2             0.0       0.3       0.0       0.0       0.0       0.0
 1 N  dxz             0.0       0.0       0.6       0.0       0.1       0.0
 1 N  dyz             0.0       1.2       0.0       0.1       0.0       0.0
 1 N  dx2y2           0.0       0.7       0.0       0.4       0.0       0.0
 1 N  dxy             0.0       0.0       2.7       0.0       0.0       0.2
 1 N  f0              0.0       0.0       0.2       0.0       0.0       0.0
 1 N  f+2             0.0       0.0       0.1       0.0       0.0       0.0
 1 N  f-2             0.0       0.2       0.0       0.0       0.0       0.0
 1 N  f+3             0.0       0.3       0.0       0.0       0.0       0.0
 2 O  s               0.0      19.2      25.3       0.4       0.0       0.1
 2 O  pz              0.0       1.4       0.5       0.0       0.0       0.0
 2 O  px              0.0       0.7       0.9       0.2       0.0       0.1
 2 O  py              0.0       4.8       1.3       0.1       0.0       0.0
 2 O  dyz             0.0       0.4       0.0       0.0       0.0       0.0
 2 O  dx2y2           0.0       0.3       0.0       0.0       0.0       0.0
 2 O  dxy             0.0       0.2       0.2       0.0       0.0       0.0
 3 O  s               0.0      18.5      25.5       0.6       0.0       0.2
 3 O  pz              0.0       0.8       0.2       0.0       0.1       0.0
 3 O  px              0.0       1.0       1.1       0.2       0.0       0.1
 3 O  py              0.0       5.0       1.5       0.1       0.0       0.0
 3 O  dyz             0.0       0.2       0.0       0.0       0.0       0.0
 3 O  dx2y2           0.0       0.3       0.0       0.0       0.0       0.0
 3 O  dxy             0.0       0.3       0.2       0.0       0.0       0.0
 4 Cl s               0.0       0.0       0.0      14.4      34.8      11.5
 4 Cl pz              0.0       0.0       0.0       0.8       0.1       0.1
 4 Cl px              0.0       0.1       0.0       0.2       0.0       0.0
 4 Cl py              0.0       0.1       0.0       1.8       0.1       0.1
 4 Cl dyz             0.0       0.0       0.0       0.3       0.0       0.0
 4 Cl dx2y2           0.0       0.0       0.0       0.1       0.0       0.0
 4 Cl dxy             0.0       0.0       0.0       0.1       0.0       0.0
 5 Cl s               0.0       0.1       0.0      15.3       0.0      45.2
 5 Cl pz             84.5       0.0       0.0       0.3       0.2       0.0
 5 Cl px              0.9       0.1       0.0       0.3       0.0       0.0
 5 Cl py             14.6       0.1       0.0       2.3       0.0       0.2
 5 Cl dyz             0.0       0.0       0.0       0.2       0.1       0.0
 5 Cl dx2y2           0.0       0.0       0.0       0.2       0.0       0.0
 5 Cl dxy             0.0       0.0       0.0       0.2       0.0       0.0
 6 Cl s               0.0       0.0       0.0      14.5      34.1      12.1
 6 Cl pz              0.0       0.1       0.0       2.7       0.2       0.1
 6 Cl py              0.0       0.0       0.0       0.0       0.1       0.2
 6 Cl dz2             0.0       0.0       0.0       0.6       0.0       0.0

                     24        25        26        27        28        29   
                  -0.87844  -0.74513  -0.70251  -0.69983  -0.66941  -0.61729
                   2.00000   2.00000   2.00000   2.00000   2.00000   2.00000
                  --------  --------  --------  --------  --------  --------
 0 C  s               4.6       7.2       3.9       0.0       0.0       0.0
 0 C  pz              0.4       0.0       0.3       2.5       0.4       4.2
 0 C  px             13.4       0.9      11.9       0.1       0.0       0.1
 0 C  py              0.0       0.0       0.0       0.6       2.0      18.8
 0 C  dz2             0.5       0.0       0.0       0.1       0.0       0.0
 0 C  dxz             0.2       0.0       0.0       0.8       0.0       0.0
 0 C  dx2y2           1.8       0.0       0.1       0.0       0.0       0.0
 0 C  dxy             0.0       0.0       0.0       0.2       0.2       0.1
 1 N  s               6.6       5.5       0.6       0.0       0.0       0.0
 1 N  pz              0.5       0.0       0.3      37.0       2.6       0.4
 1 N  px             23.9       1.0      13.9       0.8       0.1       0.0
 1 N  py              0.0       0.0       0.0       8.3      12.1       1.8
 1 N  dz2             0.0       0.3       0.0       0.0       0.0       0.0
 1 N  dxz             0.0       0.0       0.0       0.1       0.2       0.1
 1 N  dyz             0.4       0.6       0.3       0.0       0.0       0.0
 1 N  dx2y2           0.9       0.1       0.7       0.0       0.0       0.0
 1 N  dxy             0.0       0.0       0.0       0.0       1.0       0.3
 1 N  f-1             0.0       0.0       0.0       0.2       0.0       0.0
 2 O  s               6.0      10.6       3.5       0.0       9.1       0.6
 2 O  pz              0.4       3.0       1.8      15.1       4.5       0.7
 2 O  px              3.8       1.0       2.1       0.4      10.6       0.2
 2 O  py              0.5      10.6      10.1       3.7      11.4       2.4
 2 O  dz2             0.0       0.0       0.0       0.5       0.0       0.0
 2 O  dxz             0.1       0.0       0.0       0.1       0.1       0.0
 2 O  dyz             0.0       0.3       0.2       0.3       0.1       0.0
 2 O  dx2y2           0.0       0.2       0.3       0.1       0.0       0.0
 2 O  dxy             0.4       0.1       0.0       0.1       0.3       0.0
 3 O  s               6.2       9.9       2.7       0.0      10.5       0.4
 3 O  pz              0.0       1.8       2.2      15.0       1.7       0.4
 3 O  px              4.0       1.2       1.8       0.3      11.6       0.2
 3 O  py              0.7      10.4       8.1       3.2      15.3       2.2
 3 O  dz2             0.1       0.1       0.0       0.3       0.1       0.0
 3 O  dxz             0.0       0.0       0.0       0.2       0.0       0.0
 3 O  dyz             0.0       0.2       0.2       0.4       0.1       0.0
 3 O  dx2y2           0.1       0.2       0.3       0.2       0.0       0.0
 3 O  dxy             0.4       0.2       0.0       0.0       0.4       0.0
 4 Cl s               6.2       4.3       2.4       1.3       0.2       1.1
 4 Cl pz              0.2       2.1       2.3       0.1       0.6      10.8
 4 Cl px              0.9       0.6       0.1       1.3       0.2       1.9
 4 Cl py              0.6       3.6       4.8       1.5       0.1       0.3
 4 Cl dz2             0.0       0.0       0.0       0.0       0.0       0.2
 4 Cl dxz             0.1       0.1       0.0       0.0       0.0       0.1
 4 Cl dyz             0.0       0.3       0.4       0.0       0.0       0.2
 4 Cl dx2y2           0.0       0.1       0.3       0.0       0.0       0.0
 4 Cl dxy             0.2       0.1       0.0       0.1       0.0       0.0
 5 Cl s               5.4       4.7       2.9       0.0       0.5       4.9
 5 Cl pz              0.0       0.6       1.6       0.4       0.1       2.0
 5 Cl px              0.8       1.1       0.1       0.0       0.7       7.6
 5 Cl py              0.6       4.8       7.6       0.1       1.4      19.8
 5 Cl dz2             0.0       0.1       0.0       0.0       0.0       0.1
 5 Cl dyz             0.0       0.2       0.3       0.0       0.0       0.1
 5 Cl dx2y2           0.0       0.2       0.6       0.0       0.0       0.1
 5 Cl dxy             0.3       0.1       0.0       0.0       0.1       0.4
 6 Cl s               6.1       4.4       2.5       1.1       0.2       1.5
 6 Cl pz              1.1       6.2       6.4       1.7       0.8      10.0
 6 Cl px              0.6       0.0       0.9       0.8       0.0       0.3
 6 Cl py              0.0       0.0       0.2       0.2       0.1       4.1
 6 Cl dz2             0.1       0.6       0.6       0.0       0.0       0.3
 6 Cl dxz             0.2       0.0       0.1       0.0       0.0       0.0
 6 Cl dyz             0.0       0.0       0.0       0.0       0.0       0.2

                     30        31        32        33        34        35   
                  -0.61113  -0.51777  -0.49492  -0.49402  -0.47428  -0.46150
                   2.00000   2.00000   2.00000   2.00000   2.00000   2.00000
                  --------  --------  --------  --------  --------  --------
 0 C  s               0.0       0.9       0.0       0.0       0.0       0.0
 0 C  pz             18.2       0.2       0.5       0.9       0.6       1.5
 0 C  px              0.4       6.5       0.1       0.0       0.1       0.0
 0 C  py              4.2       0.1       0.1       0.5       3.0       0.3
 0 C  dz2             0.0       1.4       1.1       0.5       1.2       1.1
 0 C  dxz             0.4       0.4       1.1       0.7       0.1       0.6
 0 C  dyz             0.1       0.2       0.4       4.4       1.0       0.7
 0 C  dx2y2           0.0       2.0       2.5       0.1       0.3       0.1
 0 C  dxy             0.1       0.0       0.7       0.4       1.4       0.4
 0 C  f+1             0.0       0.1       0.0       0.0       0.1       0.2
 0 C  f-2             0.0       0.0       0.0       0.0       0.1       0.1
 1 N  s               0.0       0.7       0.0       0.0       0.0       0.0
 1 N  pz              2.9       0.0       0.1       0.1       0.1       0.2
 1 N  px              0.1       1.4       0.4       0.1       0.0       0.0
 1 N  py              0.7       0.0       0.3       0.2       0.4       0.0
 1 N  dz2             0.0       0.1       0.3       0.3       0.0       0.7
 1 N  dxz             0.5       0.2       0.1       0.0       0.3       0.0
 1 N  dyz             0.0       0.4       0.1       0.2       0.0       0.6
 1 N  dx2y2           0.0       2.9       0.0       0.1       0.0       0.2
 1 N  dxy             0.1       0.0       0.4       0.4       1.2       0.0
 1 N  f-3             0.0       0.0       0.1       0.0       0.3       0.0
 2 O  pz              2.2       0.0       0.8       4.5       0.3       7.5
 2 O  px              0.1      11.2       1.6       1.0       8.8       0.2
 2 O  py              0.5       1.6       2.1       0.3       4.3       1.6
 3 O  pz              2.8       0.6       2.6       0.6       1.7       4.6
 3 O  px              0.1       8.8       2.0       0.8       8.7       0.1
 3 O  py              0.6       0.4       1.2       1.6       3.4       1.1
 4 Cl s               3.3       0.0       0.0       0.0       0.0       0.0
 4 Cl pz              1.8       4.2      16.4       0.0       4.1      18.3
 4 Cl px              2.6      20.7       1.8      18.6       3.1      10.6
 4 Cl py             20.2       0.0       7.5       0.1      14.9       1.2
 4 Cl dz2             0.1       0.0       0.0       0.0       0.0       0.0
 4 Cl dyz             0.2       0.0       0.0       0.0       0.0       0.0
 4 Cl dx2y2           0.2       0.0       0.0       0.0       0.0       0.0
 4 Cl dxy             0.2       0.1       0.0       0.0       0.0       0.0
 5 Cl pz              7.5       0.8       1.2      26.0       3.4      14.9
 5 Cl px              0.2       7.6      34.3       4.8       3.1       0.5
 5 Cl py              1.1       1.7       3.0       2.6      10.6       3.3
 5 Cl dz2             0.2       0.0       0.0       0.0       0.0       0.0
 5 Cl dyz             0.3       0.0       0.0       0.0       0.0       0.0
 6 Cl s               3.0       0.0       0.0       0.0       0.0       0.0
 6 Cl pz             18.3       0.1       0.2       2.5       1.5       7.2
 6 Cl px              0.6      23.1       9.5       9.0       3.3      17.0
 6 Cl py              4.4       0.9       6.8      17.9      17.9       4.5
 6 Cl dz2             0.4       0.0       0.0       0.0       0.0       0.0
 6 Cl dxz             0.1       0.1       0.0       0.0       0.0       0.0
 6 Cl dyz             0.3       0.0       0.0       0.0       0.0       0.0

                     36        37        38        39        40        41   
                  -0.45251  -0.44141  -0.43259  -0.43051  -0.01082   0.02779
                   2.00000   2.00000   2.00000   2.00000   0.00000   0.00000
                  --------  --------  --------  --------  --------  --------
 0 C  s               0.0       0.0       0.0       0.9       0.0      20.7
 0 C  pz              0.0       0.0       0.0       0.3       2.2       0.3
 0 C  px              0.0       0.0       0.4       8.4       0.0       3.9
 0 C  py              0.0       0.0       0.0       0.0       0.5       0.3
 0 C  dz2             0.0       0.0       0.1       0.3       1.0       0.5
 0 C  dxz             0.7       0.0       0.0       0.2       2.2       0.1
 0 C  dyz             0.0       0.0       0.0       0.0       0.3       0.0
 0 C  dx2y2           0.0       0.0       0.1       1.0       0.0       0.8
 0 C  dxy             0.1       0.0       0.3       0.1       0.7       0.0
 0 C  f0              0.0       0.1       0.0       0.0       0.1       0.4
 0 C  f-1             0.0       0.6       0.0       0.0       0.0       0.1
 0 C  f+2             0.0       0.0       0.0       0.0       0.1       0.1
 0 C  f+3             0.0       0.0       0.0       0.0       0.0       0.3
 0 C  f-3             0.0       0.1       0.2       0.0       0.0       0.0
 1 N  s               0.0       0.0       0.1       0.8       0.0       0.5
 1 N  pz              0.1       0.0       0.1       0.1      25.1       0.0
 1 N  px              0.0       0.0       0.4       5.0       0.6       0.9
 1 N  py              0.0       0.0       0.2       0.0       5.7       0.0
 1 N  dz2             2.6       0.0       0.1       0.1       0.1       0.3
 1 N  dxz             0.2       0.0       0.4       0.3       2.1       0.1
 1 N  dyz             2.5       0.0       0.3       0.9       0.0       0.3
 1 N  dx2y2           1.0       0.0       0.3       5.7       0.1       0.0
 1 N  dxy             0.1       0.0       2.3       0.1       0.5       0.0
 1 N  f+1             0.2       0.0       0.0       0.0       0.0       0.0
 1 N  f-1             0.0       0.0       0.0       0.0       0.8       0.0
 1 N  f+2             0.0       0.0       0.2       0.0       0.0       0.0
 1 N  f-2             0.2       0.0       0.0       0.0       0.0       0.0
 1 N  f+3             0.1       0.0       0.0       0.0       0.0       0.1
 1 N  f-3             0.0       0.0       0.6       0.0       0.1       0.0
 2 O  s               0.0       0.0       0.1       0.2       0.0       0.1
 2 O  pz             23.2       0.4       0.6       0.2      18.3       0.0
 2 O  px              0.7       0.1       8.4      29.9       0.5       0.5
 2 O  py              4.9       0.0       7.9       1.5       4.1       0.0
 2 O  dz2             0.0       0.0       0.0       0.0       1.0       0.0
 2 O  dxz             0.0       0.0       0.0       0.0       0.3       0.0
 2 O  dyz             0.0       0.0       0.0       0.0       0.6       0.0
 2 O  dx2y2           0.0       0.0       0.0       0.1       0.2       0.0
 2 O  dxy             0.0       0.0       0.0       0.1       0.2       0.0
 2 O  f-1             0.0       0.0       0.0       0.0       0.2       0.0
 3 O  s               0.0       0.0       0.0       0.3       0.0       0.1
 3 O  pz             29.3       0.3       4.6       0.2      17.3       0.0
 3 O  px              0.9       0.1      24.7      13.0       0.4       0.3
 3 O  py              7.0       0.1       6.3       0.4       3.9       0.0
 3 O  dz2             0.0       0.0       0.0       0.0       0.5       0.0
 3 O  dxz             0.0       0.0       0.0       0.0       0.5       0.0
 3 O  dyz             0.0       0.0       0.0       0.0       0.8       0.0
 3 O  dx2y2           0.0       0.0       0.0       0.1       0.4       0.0
 4 Cl s               0.0       0.0       0.0       0.0       0.3       1.0
 4 Cl pz              3.2      18.3       0.2       0.5       0.1       4.9
 4 Cl px              9.1       1.9       1.9      12.4       1.0       0.8
 4 Cl py              0.5      13.2       2.6       0.2       1.6       8.3
 4 Cl dz2             0.0       0.1       0.0       0.0       0.2       0.0
 4 Cl dxz             0.0       0.0       0.0       0.0       0.0       0.6
 4 Cl dyz             0.0       0.0       0.0       0.0       0.1       6.0
 4 Cl dx2y2           0.0       0.0       0.0       0.0       0.0       1.8
 4 Cl dxy             0.0       0.0       0.0       0.2       0.7       0.9
 4 Cl f0              0.0       0.0       0.0       0.0       0.0       0.1
 4 Cl f+2             0.0       0.0       0.0       0.0       0.0       0.2
 4 Cl f-2             0.0       0.0       0.0       0.0       0.0       0.1
 5 Cl s               0.0       0.0       0.0       0.0       0.0       0.8
 5 Cl pz              0.5      26.5       3.1       0.1       0.2       1.3
 5 Cl px              0.0       1.0      23.0       1.6       0.0       0.6
 5 Cl py              0.0       5.7       2.8       0.5       0.0       8.5
 5 Cl dz2             0.0       0.0       0.0       0.0       0.0       1.0
 5 Cl dxz             0.0       0.0       0.0       0.0       0.1       0.1
 5 Cl dyz             0.0       0.0       0.0       0.0       0.1       2.5
 5 Cl dx2y2           0.0       0.0       0.1       0.0       0.0       2.7
 5 Cl dxy             0.0       0.0       0.0       0.2       0.0       1.0
 5 Cl f+2             0.0       0.0       0.0       0.0       0.0       0.1
 5 Cl f+3             0.0       0.0       0.0       0.0       0.0       0.1
 6 Cl s               0.0       0.0       0.0       0.0       0.2       1.0
 6 Cl pz              0.8       0.3       0.3       0.5       1.7      13.9
 6 Cl px             11.1       0.2       3.1      12.4       0.5       0.0
 6 Cl py              0.6      30.6       4.0       0.1       0.3       0.1
 6 Cl dz2             0.0       0.0       0.0       0.0       0.3       9.2
 6 Cl dxz             0.0       0.0       0.0       0.2       0.3       0.0
 6 Cl dyz             0.0       0.1       0.0       0.0       0.2       0.2
 6 Cl dxy             0.0       0.0       0.0       0.0       0.1       0.0
 6 Cl f0              0.0       0.0       0.0       0.0       0.0       0.5

                     42        43        44        45        46        47   
                   0.07873   0.08566   0.09010   0.18822   0.26408   0.26547
                   0.00000   0.00000   0.00000   0.00000   0.00000   0.00000
                  --------  --------  --------  --------  --------  --------
 0 C  s               0.1       3.2       0.0      48.2       0.0       0.9
 0 C  pz              4.4       0.9      23.2       0.0      35.0       1.5
 0 C  px              1.8      24.8       0.3       0.8       1.3      31.8
 0 C  py             23.7       0.7       4.9       0.2       8.0       0.1
 0 C  dz2             2.1       2.3       2.8       0.0       0.5       0.4
 0 C  dxz             0.3       0.6       0.1       0.0       0.2       0.1
 0 C  dyz             2.3       0.0       2.7       0.0       0.4       0.1
 0 C  dx2y2           1.3       6.9       0.5       0.0       0.1       0.4
 0 C  dxy             3.2       0.0       0.3       0.0       0.1       0.0
 0 C  f0              0.0       0.0       0.0       0.5       0.0       0.0
 0 C  f+1             0.0       0.1       0.0       0.1       0.0       0.0
 0 C  f+3             0.0       0.4       0.0       0.4       0.0       0.1
 1 N  s               0.2       7.7       0.0      10.2       0.0       5.9
 1 N  pz              0.1       0.3       5.0       0.1       5.7       0.5
 1 N  px              0.1      13.1       0.2       2.7       0.2       7.9
 1 N  py              0.4       0.0       1.1       0.1       1.3       0.2
 1 N  dz2             0.1       2.2       0.0       0.6       0.0       2.9
 1 N  dxz             0.3       0.2       0.1       0.0       0.4       0.3
 1 N  dyz             0.2       1.6       0.0       1.2       0.1       3.8
 1 N  dx2y2           0.0       0.3       0.0       0.2       0.0       0.1
 1 N  dxy             0.8       0.1       0.0       0.0       0.1       0.0
 1 N  f-1             0.0       0.0       0.1       0.0       0.0       0.0
 1 N  f-2             0.0       0.0       0.0       0.0       0.0       0.3
 1 N  f+3             0.0       0.4       0.0       0.0       0.0       0.3
 1 N  f-3             0.1       0.0       0.0       0.0       0.0       0.0
 2 O  s               0.1       0.6       0.0       2.5       0.0       3.8
 2 O  pz              0.0       0.3       1.6       0.0       2.1       0.5
 2 O  px              0.4       2.7       0.1       0.4       0.1       1.7
 2 O  py              0.1       0.2       0.4       0.4       0.5       1.7
 2 O  dz2             0.0       0.0       0.2       0.0       0.0       0.0
 2 O  dxz             0.0       0.2       0.0       0.1       0.1       0.0
 2 O  dyz             0.0       0.0       0.2       0.0       0.1       0.1
 2 O  dx2y2           0.0       0.0       0.1       0.1       0.1       0.6
 2 O  dxy             0.1       0.6       0.0       0.2       0.0       0.0
 3 O  s               0.0       0.6       0.0       2.6       0.0       2.7
 3 O  pz              0.0       0.0       2.4       0.2       1.1       0.4
 3 O  px              0.4       3.1       0.1       0.3       0.0       1.4
 3 O  py              0.0       0.5       0.5       0.7       0.3       1.8
 3 O  dz2             0.0       0.0       0.1       0.0       0.1       0.0
 3 O  dxz             0.0       0.1       0.1       0.0       0.0       0.0
 3 O  dyz             0.0       0.0       0.2       0.0       0.1       0.1
 3 O  dx2y2           0.0       0.0       0.1       0.0       0.0       0.6
 3 O  dxy             0.0       0.8       0.0       0.2       0.0       0.0
 4 Cl s               0.4       0.1       1.9       5.9       3.0       0.4
 4 Cl pz              2.8       0.4       1.4       0.8       4.9       0.2
 4 Cl px              1.3       1.3       1.8       0.4       0.2       4.8
 4 Cl py              0.3       0.2       8.6       1.1       2.1       0.0
 4 Cl dz2             0.8       0.2       0.9       0.0       0.1       0.0
 4 Cl dxz             2.6       1.0       0.5       0.1       1.3       0.4
 4 Cl dyz             1.3       1.2       1.8       0.5       4.8       0.1
 4 Cl dx2y2           0.4       0.4       2.5       0.1       0.6       0.0
 4 Cl dxy             0.4       1.7       3.0       0.0       0.4       2.6
 4 Cl f-2             0.1       0.0       0.1       0.0       0.1       0.0
 4 Cl f+3             0.0       0.0       0.2       0.0       0.0       0.0
 5 Cl s               3.1       0.1       0.0       4.9       0.0       1.1
 5 Cl pz              1.8       0.1       1.6       0.2       3.1       0.1
 5 Cl px              3.6       3.3       0.0       0.5       0.1       5.6
 5 Cl py             14.2       0.0       0.2       1.4       0.7       0.3
 5 Cl dz2             1.5       0.1       0.8       0.3       0.4       0.0
 5 Cl dxz             0.6       0.6       1.3       0.0       1.9       0.3
 5 Cl dyz             2.3       0.4       2.1       0.5       1.1       0.2
 5 Cl dx2y2           2.9       1.1       0.6       0.3       0.6       0.0
 5 Cl dxy             4.8       4.4       0.1       0.4       0.1       1.2
 5 Cl f+3             0.2       0.1       0.0       0.0       0.0       0.0
 6 Cl s               0.5       0.0       1.8       5.8       2.6       0.6
 6 Cl pz              3.6       0.1      10.1       2.2       5.8       0.3
 6 Cl px              0.5       1.9       0.4       0.1       0.3       4.8
 6 Cl py              0.9       0.0       1.1       0.0       0.7       0.0
 6 Cl dz2             2.4       0.2       5.3       0.7       6.3       0.5
 6 Cl dxz             1.1       4.3       0.7       0.0       0.0       2.1
 6 Cl dyz             1.9       0.0       2.4       0.0       0.1       0.1
 6 Cl dx2y2           0.0       0.1       0.1       0.0       0.0       0.2
 6 Cl dxy             0.2       0.0       0.1       0.0       0.3       0.3
 6 Cl f0              0.1       0.0       0.2       0.0       0.0       0.1
 6 Cl f+1             0.1       0.2       0.1       0.0       0.0       0.0
 6 Cl f-1             0.1       0.0       0.1       0.0       0.1       0.0

                     48        49        50        51        52        53   
                   0.28048   0.31967   0.33653   0.33845   0.33926   0.37310
                   0.00000   0.00000   0.00000   0.00000   0.00000   0.00000
                  --------  --------  --------  --------  --------  --------
 0 C  s               0.0       1.8       2.5       0.0       0.2       0.0
 0 C  pz              7.0       0.0       0.5       0.1       0.2       0.4
 0 C  px              0.2       3.0       7.9       0.0       1.5       0.0
 0 C  py             32.5       0.2       0.2       0.4       0.2       0.1
 0 C  dz2             0.2       0.3       2.7       0.6       4.1       0.2
 0 C  dxz             0.0       1.0       0.9       0.4       0.1       8.6
 0 C  dyz             0.2       2.7       0.9       7.2       0.0       0.5
 0 C  dx2y2           0.1       1.6       0.2       0.4       2.2       0.5
 0 C  dxy             0.0       3.6       0.5       1.3       2.4       1.8
 0 C  f+1             0.0       0.0       0.3       0.0       0.0       0.0
 0 C  f+2             0.0       0.1       0.2       0.0       0.0       0.1
[...]
 3 O  f-2             0.0       6.7       5.3       0.1       0.0       4.3
 3 O  f+3             0.0       2.0       1.2       0.5       0.0       8.8
 3 O  f-3             0.3       1.3       2.5       2.0       6.0       0.9
 5 Cl px              0.0       0.0       0.0       0.0       0.0       0.1

                    216       217       218       219       220       221   
                   7.33169   7.44410   7.53229  10.79288  10.80081  10.81039
                   0.00000   0.00000   0.00000   0.00000   0.00000   0.00000
                  --------  --------  --------  --------  --------  --------
 0 C  s               0.2       0.1       0.0       0.0       0.0       0.0
 1 N  s               4.0      13.2       0.1       0.0       0.0       0.0
 1 N  pz              0.0       0.1       0.1       0.0       0.0       0.0
 1 N  px              0.3       1.0       0.0       0.0       0.0       0.0
 1 N  py              0.0       0.0       0.7       0.0       0.0       0.0
 1 N  dz2             0.5       1.9       0.1       0.0       0.0       0.0
 1 N  dxz             0.0       0.1       0.9       0.0       0.0       0.0
 1 N  dyz             1.8       8.7       0.0       0.0       0.0       0.0
 1 N  dx2y2           0.9       5.5       0.0       0.0       0.0       0.0
 1 N  dxy             0.0       0.0       4.2       0.0       0.0       0.0
 1 N  f0              0.0       0.0       0.4       0.0       0.0       0.0
 1 N  f+1             0.0       0.0       0.2       0.0       0.0       0.0
 1 N  f-1             0.3       0.0       0.2       0.0       0.0       0.0
 1 N  f+2             0.2       0.0       7.5       0.0       0.0       0.0
 1 N  f-2             4.9       0.0       0.3       0.0       0.0       0.0
 1 N  f+3             9.0       0.0       0.0       0.0       0.0       0.0
 1 N  f-3             0.0       0.0      15.0       0.0       0.0       0.0
 2 O  s               2.2       5.5       0.6       0.0       0.0       0.0
 2 O  pz              0.2       1.3       0.2       0.0       0.0       0.0
 2 O  px              0.2       1.3       1.1       0.0       0.0       0.0
 2 O  py              0.7       4.0       1.5       0.0       0.0       0.0
 2 O  dz2             0.7       0.5       0.0       0.0       0.0       0.0
 2 O  dxz             1.5       1.5       0.5       0.0       0.0       0.0
 2 O  dyz            13.2       1.4       1.5       0.0       0.0       0.0
 2 O  dx2y2          11.7       0.6       3.6       0.0       0.0       0.0
 2 O  dxy             6.7       3.3       2.3       0.0       0.0       0.0
 2 O  f0              0.3       3.8       0.0       0.0       0.0       0.0
 2 O  f-1             0.0       0.0       0.2       0.0       0.0       0.0
 2 O  f+2             0.0       1.5       7.5       0.0       0.0       0.0
 2 O  f-2             0.0       7.8       1.1       0.0       0.0       0.0
 2 O  f+3             0.2       6.7       0.1       0.0       0.0       0.0
 2 O  f-3             0.0       0.1      14.6       0.0       0.0       0.0
 3 O  s               1.8       3.5       1.2       0.0       0.0       0.0
 3 O  pz              0.1       0.4       0.6       0.0       0.0       0.0
 3 O  px              0.2       1.3       0.6       0.0       0.0       0.0
 3 O  py              0.7       2.8       2.1       0.0       0.0       0.0
 3 O  dz2             2.2       1.3       0.1       0.0       0.0       0.0
 3 O  dxz             2.2       0.2       0.6       0.0       0.0       0.0
 3 O  dyz             9.0       0.2       1.1       0.0       0.0       0.0
 3 O  dx2y2          12.9       1.0       3.3       0.0       0.0       0.0
 3 O  dxy            10.0       3.4       2.6       0.0       0.0       0.0
 3 O  f0              0.2       1.8       0.5       0.0       0.0       0.0
 3 O  f+1             0.2       0.8       1.0       0.0       0.0       0.0
 3 O  f-1             0.0       1.4       0.2       0.0       0.0       0.0
 3 O  f+2             0.3       0.1       5.1       0.0       0.0       0.0
 3 O  f-2             0.0       3.3       0.3       0.0       0.0       0.0
 3 O  f+3             0.0       6.6       0.7       0.0       0.0       0.0
 3 O  f-3             0.0       1.4      14.9       0.0       0.0       0.0
 4 Cl pz              0.0       0.0       0.0      27.9       9.9       8.4
 4 Cl px              0.0       0.0       0.0       0.0      20.6       3.3
 4 Cl py              0.0       0.0       0.0      11.8       0.3      11.4
 5 Cl pz              0.0       0.0       0.0      18.2      31.9       4.9
 5 Cl px              0.0       0.0       0.0       0.6       0.8      40.3
 5 Cl py              0.0       0.0       0.0       3.7       6.2       6.6
 6 Cl pz              0.0       0.0       0.0       0.9       1.6       0.0
 6 Cl px              0.0       0.0       0.0       1.0      26.7       2.0
 6 Cl py              0.0       0.0       0.0      35.9       2.0      23.1

                    222       223       224       225       226       227   
                  10.83146  10.87456  10.87930  11.30883  11.35367  11.40506
                   0.00000   0.00000   0.00000   0.00000   0.00000   0.00000
                  --------  --------  --------  --------  --------  --------
 0 C  s               0.0       0.0       0.0       0.0       0.0       1.1
 0 C  pz              0.0       0.0       0.0       0.5       0.1       0.0
 0 C  py              0.0       0.0       0.0       0.1       0.5       0.0
 4 Cl s               0.0       0.0       0.0       0.4       0.1       0.3
 4 Cl pz              2.4       2.2      22.4      11.4       5.2       9.8
 4 Cl px             37.1      21.7       2.9       6.6       3.0       4.4
 4 Cl py              3.8       7.3       6.4      31.6       6.0      20.2
 5 Cl s               0.0       0.0       0.0       0.0       0.6       0.2
 5 Cl pz              0.7      30.3       3.4       0.3       6.9       3.1
 5 Cl px             12.7       1.3      29.5       0.0      11.2       3.1
 5 Cl py              0.5       6.4       1.8       0.1      51.6      21.6
 6 Cl s               0.0       0.0       0.0       0.4       0.1       0.3
 6 Cl pz              0.8       0.0       0.7      46.1      13.6      34.4
 6 Cl px             41.0      22.6       4.2       1.0       0.7       0.6
 6 Cl py              0.8       8.0      28.5       1.3       0.0       0.4

                    228       229       230       231       232       233   
                  21.78618  25.31087  25.45655  25.53001  32.46173  43.96519
                   0.00000   0.00000   0.00000   0.00000   0.00000   0.00000
                  --------  --------  --------  --------  --------  --------
 0 C  s              98.9       0.0       1.6       0.1       0.1       0.0
 0 C  pz              0.0       0.3       0.0       0.1       0.0       0.0
 0 C  py              0.0       0.0       0.0       0.4       0.0       0.0
 1 N  s               0.0       0.0       0.1       0.1      97.8       0.1
 1 N  px              0.1       0.0       0.0       0.0       0.4       0.0
 1 N  dx2y2           0.1       0.0       0.0       0.0       0.1       0.0
 2 O  s               0.1       0.0       0.1       0.0       0.3      52.3
 2 O  py              0.0       0.0       0.0       0.0       0.2       0.0
 3 O  s               0.1       0.0       0.0       0.0       0.4      47.5
 3 O  py              0.0       0.0       0.0       0.0       0.2       0.0
 4 Cl s               0.2      48.4      24.8      25.5       0.0       0.0
 5 Cl s               0.1       0.0      47.7      50.7       0.0       0.0
 5 Cl py              0.0       0.0       0.1       0.1       0.0       0.0
 6 Cl s               0.2      50.6      25.4      22.6       0.0       0.0
 6 Cl pz              0.0       0.1       0.0       0.1       0.0       0.0

                    234   
                  44.06728
                   0.00000
                  --------
 2 O  s              47.5
 3 O  s              52.3


                      *****************************
                      * MAYER POPULATION ANALYSIS *
                      *****************************

  NA   - Mulliken gross atomic population
  ZA   - Total nuclear charge
  QA   - Mulliken gross atomic charge
  VA   - Mayer's total valence
  BVA  - Mayer's bonded valence
  FA   - Mayer's free valence

  ATOM       NA         ZA         QA         VA         BVA        FA
  0 C      5.9258     6.0000     0.0742     4.5555     4.5555     0.0000
  1 N      6.6051     7.0000     0.3949     4.2985     4.2985     0.0000
  2 O      8.2501     8.0000    -0.2501     2.0070     2.0070    -0.0000
  3 O      8.2555     8.0000    -0.2555     2.0329     2.0329    -0.0000
  4 Cl    16.9962    17.0000     0.0038     1.2761     1.2761     0.0000
  5 Cl    16.9732    17.0000     0.0268     1.3179     1.3179    -0.0000
  6 Cl    16.9941    17.0000     0.0059     1.2792     1.2792     0.0000

  Mayer bond orders larger than 0.100000
B(  0-C ,  1-N ) :   0.8289 B(  0-C ,  4-Cl) :   1.1838 B(  0-C ,  5-Cl) :   1.2256 
B(  0-C ,  6-Cl) :   1.1873 B(  1-N ,  2-O ) :   1.6981 B(  1-N ,  3-O ) :   1.7198 
B(  2-O ,  3-O ) :   0.2146 

-------
TIMINGS
-------

Total SCF time: 0 days 0 hours 0 min 40 sec 

Total time                  ....      40.488 sec
Sum of individual times     ....      39.758 sec  ( 98.2%)

SCF preparation             ....       0.042 sec  (  0.1%)
Fock matrix formation       ....      39.484 sec  ( 97.5%)
  Startup                   ....       0.002 sec  (  0.0% of F)
  Split-RI-J                ....       1.499 sec  (  3.8% of F)
  Chain of spheres X        ....      35.016 sec  ( 88.7% of F)
  XC integration            ....       3.658 sec  (  9.3% of F)
    XC Preparation          ....       0.000 sec  (  0.0% of XC)
    Basis function eval.    ....       0.926 sec  ( 25.3% of XC)
    Density eval.           ....       0.748 sec  ( 20.5% of XC)
    XC-Functional eval.     ....       0.936 sec  ( 25.6% of XC)
    XC-Potential eval.      ....       0.987 sec  ( 27.0% of XC)
Diagonalization             ....       0.000 sec  (  0.0%)
Density matrix formation    ....       0.010 sec  (  0.0%)
Total Energy calculation    ....       0.002 sec  (  0.0%)
Population analysis         ....       0.079 sec  (  0.2%)
Orbital Transformation      ....       0.012 sec  (  0.0%)
Orbital Orthonormalization  ....       0.000 sec  (  0.0%)
DIIS solution               ....       0.044 sec  (  0.1%)
  MO trafo                  ....       0.000 sec  (  0.0 % of DIIS)
  Orb grad                  ....       0.000 sec  (  0.0 % of DIIS)
  Energy W gradient         ....       0.000 sec  (  0.0 % of DIIS)
  DIIS error                ....       0.006 sec  ( 12.8 % of DIIS)
  DIIS work                 ....       0.032 sec  ( 72.1 % of DIIS)
  Form Q                    ....       0.000 sec  (  0.0 % of DIIS)
  Form QpQm                 ....       0.000 sec  (  0.0 % of DIIS)
  Exp/Cayley                ....       0.000 sec  (  0.0 % of DIIS)
  Orb update                ....       0.000 sec  (  0.0 % of DIIS)
  Wake-sleep                ....       0.000 sec  (  1.0 % of DIIS)
SOSCF solution              ....       0.025 sec  (  0.1%)
  MO trafo                  ....       0.013 sec  ( 51.3 % of SOSCF)
  Orb grad                  ....       0.000 sec  (  1.0 % of SOSCF)
  Rot update                ....       0.001 sec  (  4.5 % of SOSCF)
  Step                      ....       0.011 sec  ( 42.9 % of SOSCF)
Grid generation             ....       0.057 sec  (  0.1%)
Finished LeanSCF after  40.5 sec

Maximum memory used throughout the entire LEANSCF-calculation: 27.1 MB
------------------   -----------------
gCP correction             0.005274632
------------------   -----------------

-------------------------   --------------------
FINAL SINGLE POINT ENERGY     -1623.630745591992
-------------------------   --------------------


------------------------------------------------------------------------------
                              ORCA PROPERTY CALCULATIONS
------------------------------------------------------------------------------

GBWName                                 ... sp.gbw
Number of atoms                         ...      7
Number of basis functions               ...    235
Max core memory                         ...   1024 MB

Electric properties:
Dipole moment                           ... YES
Quadrupole moment                       ...  NO
Static polarizability (Dipole/Dipole)   ...  NO
Static polarizability (Dipole/Quad.)    ...  NO
Static polarizability (Quad./Quad.)     ...  NO
Static polarizability (Velocity)        ...  NO

Atomic electric properties:
Dipole moment                           ...  NO
Quadrupole moment                       ...  NO
Static polarizability                   ...  NO

Choice of electric origin               ... Center of mass
Position of electric origin             ...     0.025742     0.001573     0.003461

General magnetic properties:
Magnetizability                         ...  NO

EPR properties:
g-Tensor (aka g-matrix)                 ...  NO
Zero-Field splitting spin-orbit         ...  NO
Zero-field splitting spin-spin          ...  NO
Hyperfine couplings                     ...  NO (   0 nuclei)
Quadrupole couplings                    ...  NO (   0 nuclei)
Contact density                         ...  NO (   0 nuclei)

NMR properties:
Chemical shifts                         ...  NO (   0 nuclei)
Spin-rotation constants                 ...  NO (   0 nuclei)
Spin-spin couplings                     ...  NO (   0 nuclei,    0 pairs)

Choice of magnetic origin               ... GIAO
Position of magnetic origin             ...     0.000000     0.000000     0.000000

Properties with geometric perturbations:
SCF Hessian                             ...  NO
IR spectrum                             ...  NO
VCD spectrum                            ...  NO
X-ray spectroscopy properties:
SCF XES/XAS/RIXS spectra                ...  NO


-------------
DIPOLE MOMENT
-------------

Method             : SCF
Type of density    : Electron Density
Multiplicity       :   1
Irrep              :   0
Energy             : -1623.6360202238922739 Eh
Relativity type    : 
Basis              : AO
                                X                 Y                 Z
Electronic contribution:      3.814685855       0.048507383       0.567705099
Nuclear contribution   :     -3.030243240       0.006888794      -0.466431921
                        -----------------------------------------
Total Dipole Moment    :      0.784442616       0.055396177       0.101273177
                        -----------------------------------------
Magnitude (a.u.)       :      0.792890415
Magnitude (Debye)      :      2.015367271



--------------------
Rotational spectrum 
--------------------
 
Rotational constants in cm-1:             0.049640             0.046629             0.042497 
Rotational constants in MHz :          1488.183326          1397.917071          1274.023081 

Dipole components along the rotational axes: 
x,y,z [a.u.] :     0.788515    -0.083126    -0.003128 
x,y,z [Debye]:     2.004245    -0.211289    -0.007950 

 

Dipole moment calculation done in   0.0 sec 

Maximum memory used throughout the entire PROP-calculation: 18.1 MB

--------------------------------
SUGGESTED CITATIONS FOR THIS RUN
--------------------------------

Below you find a list of papers that are relevant to this ORCA run
We neither can nor want to force you to cite these papers, but we appreciate if you do
You receive ORCA, which is the product of decades of hard work by many enthusiastic individuals, for free
The only thing we kindly ask in return is that you cite our papers,
We deeply appreciate it, if you show your appreciation for ORCA by not just citing the generic ORCA reference.

Please note that relegating all ORCA citations to the supporting information does *not* help us.
SI sections are not indexed - citations you put there will not count into any citation statistics
But we need these citations in order to attract the funding resources that allow us to do what we are doing

Therefore, if you are a happy ORCA user, please consider citing a few of the papers listed below in the main body of your paper

In addition to the list printed below, the program has created the file sp.bibtex that contains the list in bibtex format
You can import this file easily into all common literature databanks and citation aid programs


List of essential papers. We consider these as the minimum necessary citations

  1. Neese,F.
     Software update: the ORCA program system, version 5.0
     WIRES Comput. Molec. Sci., 2022 12(1)e1606
     doi.org/10.1002/wcms.1606

List of papers to cite with high priority. The work reported in these papers was absolutely
necessary for this run to complete.
Our perspective: the developers of density functionals and basis sets usually get cited in chemistry papers
Good! But without the algorithms to do something with them, the functionals or basis sets would not do anything.
Hence, in our opinion, the algorithm design and method developments papers are equally worthy of getting cited

  1. Neese,F.
     An improvement of the resolution of the identity approximation for the formation of the Coulomb matrix
     J. Comp. Chem., 2003 24(14)1740-1747
     doi.org/10.1002/jcc.10318
  2. Neese,F.; Wennmohs,F.; Hansen,A.; Becker,U.
     Efficient, approximate and parallel Hartree-Fock and hybrid DFT calculations. A 'chain-of-spheres' algorithm for the Hartree-Fock exchange
     Chem. Phys., 2009 356(1-3)98-109
     doi.org/10.1016/j.chemphys.2008.10.036
  3. Helmich-Paris,B.; de Souza,B.; Neese,F.; Izsák,R.
     An improved chain of spheres for exchange algorithm
     J. Chem. Phys., 2021 155 104109
     doi.org/doi: 10.1063/5.0058766.
  4. Neese,F.
     The SHARK Integral Generation and Digestion System
     J. Comp. Chem., 2022  1-16
     doi.org/10.1002/jcc.26942

List of suggested additional citations. These are papers that are important in the 'surrounding' of 
of this run, or papers that preceded the highly important papers. If you like your results we are grateful for a citation.

  1. Izsak,R.; Neese,F.
     An overlap fitted chain of spheres exchange method
     J. Chem. Phys., 2011 135 144105
     doi.org/10.1063/1.3646921
  2. Izsak,R.; Hansen,A.; Neese,F.
     The resolution of identity and chain of spheres approximations for the LPNO-CCSD singles Fock term
     Molec. Phys., 2012 110 2413-2417
     doi.org/10.1080/00268976.2012.687466
  3. Neese,F.
     The ORCA program system
     WIRES Comput. Molec. Sci., 2012 2(1)73-78
     doi.org/10.1002/wcms.81
  4. Izsak,R.; Neese,F.; Klopper,W.
     Robust fitting techniques in the chain of spheres approximation to the Fock exchange: The role of the complementary space
     J. Chem. Phys., 2013 139 
     doi.org/10.1063/1.4819264
  5. Neese,F.
     Software update: the ORCA program system, version 4.0
     WIRES Comput. Molec. Sci., 2018 8(1)1-6
     doi.org/10.1002/wcms.1327
  6. Neese,F.; Wennmohs,F.; Becker,U.; Riplinger,C.
     The ORCA quantum chemistry program package
     J. Chem. Phys., 2020 152 Art. No. L224108
     doi.org/10.1063/5.0004608

List of optional additional citations

  1. Neese,F.
     Approximate second-order SCF convergence for spin unrestricted wavefunctions
     Chem. Phys. Lett., 2000 325(1-3)93-98
     doi.org/10.1016/s0009-2614(00)00662-x

Timings for individual modules:

Sum of individual times          ...       41.211 sec (=   0.687 min)
Startup calculation              ...        0.611 sec (=   0.010 min)   1.5 %
SCF iterations                   ...       40.562 sec (=   0.676 min)  98.4 %
Property calculations            ...        0.038 sec (=   0.001 min)   0.1 %
                             ****ORCA TERMINATED NORMALLY****
TOTAL RUN TIME: 0 days 0 hours 0 minutes 41 seconds 255 msec
