22
 energy: -54.098727342205 gnorm: 0.025823530640 xtb: 6.7.1 (41059b4)
C            2.36278549005569       -1.39151773864249       -0.00003716224735
C            1.16653521550268       -0.69729411298382       -0.00007701780083
C            1.16653493208194        0.69729855355512       -0.00008018978196
C            2.36278480078850        1.39152277347952       -0.00003692253445
C            3.57067062714103        0.69776967661862        0.00000250160829
C            3.57067091401683       -0.69776398868980        0.00000034088345
Cl           5.05398497862633       -1.60262215586220        0.00004660569198
Cl           5.05398405796683        1.60262863696010        0.00005656895628
O           -0.00000031812043        1.43011072158899       -0.00013010758638
C           -1.16653533863268        0.69729808697959       -0.00008286192888
C           -2.36278550262698        1.39152180944501       -0.00004797526047
C           -3.57067097857817        0.69776814964452       -0.00000414285549
C           -3.57067070426690       -0.69776556718761        0.00000883109992
C           -2.36278498458912       -1.39151877630542       -0.00002488016936
C           -1.16653513888460       -0.69729455767951       -0.00007373918119
O            0.00000025241847       -1.43010681418137       -0.00011633650265
Cl          -5.05398431290346       -1.60262431348392        0.00006894422808
Cl          -5.05398492155905        1.60262643249579        0.00003634123498
H            2.34884425766404       -2.47458282326415       -0.00003671860156
H            2.34884296969436        2.47458784081511       -0.00003605038573
H           -2.34884431297621        2.47458684789941       -0.00005646172092
H           -2.34884323640416       -2.47458386793909       -0.00001529684070
22
 energy: -54.099632908414 gnorm: 0.014459762966 xtb: 6.7.1 (41059b4)
C            2.36242121641556       -1.38862237266971       -0.00003658356885
C            1.16381451200358       -0.69823758521304       -0.00007639508720
C            1.16381421943035        0.69824207291439       -0.00007959466170
C            2.36242056839367        1.38862743897974       -0.00003770324615
C            3.56595786477762        0.69441745986322        0.00000174129403
C            3.56595814546137       -0.69441178950747        0.00000046908731
Cl           5.05052008843818       -1.58058812813388        0.00004614470673
Cl           5.05051927896663        1.58059452014108        0.00005310921971
O           -0.00000033886983        1.42936618402544       -0.00012427254357
C           -1.16381461695938        0.69824159207052       -0.00008206189758
C           -2.36242126697509        1.38862644310019       -0.00004731588035
C           -3.56595823624924        0.69441590904803       -0.00000411039910
C           -3.56595796209662       -0.69441336319243        0.00000796788154
C           -2.36242071799773       -1.38862341311111       -0.00002583896950
C           -1.16381437280787       -0.69823805127127       -0.00007334200276
O            0.00000025595057       -1.42936220577436       -0.00011124671902
Cl          -5.05051949195714       -1.58059028245747        0.00006592861676
Cl          -5.05052011574912        1.58059230350897        0.00003558422280
H            2.35044274413465       -2.46696932534032       -0.00003642730948
H            2.35044153692442        2.46697438393197       -0.00003822503380
H           -2.35044281680885        2.46697338459277       -0.00005604698104
H           -2.35044174801078       -2.46697036224286       -0.00001751042373
22
 energy: -54.099840278229 gnorm: 0.006136863965 xtb: 6.7.1 (41059b4)
C            2.36191365123655       -1.38769936727041       -0.00003601753530
C            1.16192753482175       -0.69911505214288       -0.00007348585624
C            1.16192723436165        0.69911959149480       -0.00007700826572
C            2.36191303312097        1.38770445837445       -0.00003912949676
C            3.56439758331450        0.69393021784420       -0.00000128435650
C            3.56439787163609       -0.69392456678129       -0.00000116730741
Cl           5.04599325893409       -1.56981899832867        0.00004485558588
Cl           5.04599254137526        1.56982530541093        0.00004781896328
O           -0.00000036102207        1.42846200936885       -0.00011607924078
C           -1.16192763941488        0.69911909809027       -0.00007901180852
C           -2.36191374508755        1.38770343718870       -0.00004672628620
C           -3.56439797866516        0.69392865325683       -0.00000585709662
C           -3.56439769504851       -0.69392612959454        0.00000505383443
C           -2.36191316009566       -1.38770040014878       -0.00002732457618
C           -1.16192735392280       -0.69911554068248       -0.00007093906080
O            0.00000025609532       -1.42845796648028       -0.00010381517950
Cl          -5.04599269181625       -1.56982117252956        0.00006111288958
Cl          -5.04599334086603        1.56982309935189        0.00003383804670
H            2.34944735108189       -2.46404828986384       -0.00003527679141
H            2.34944621513529        2.46405337662737       -0.00004055770774
H           -2.34944744399844        2.46405236450404       -0.00005476826010
H           -2.34944637476104       -2.46404931442722       -0.00001996018903
22
 energy: -54.099864834330 gnorm: 0.002497219983 xtb: 6.7.1 (41059b4)
C            2.36174514481643       -1.38770543581596       -0.00003519856771
C            1.16170013172253       -0.69925812791312       -0.00007055273131
C            1.16169982988129        0.69926269071647       -0.00007441188213
C            2.36174453595954        1.38771053547120       -0.00003971341125
C            3.56501562359893        0.69464366928418       -0.00000343115196
C            3.56501591896599       -0.69463802802941       -0.00000232544558
Cl           5.04428899563373       -1.56959860584190        0.00004228687809
Cl           5.04428830279133        1.56960488445931        0.00004232480667
O           -0.00000036699811        1.42811764511578       -0.00011023336623
C           -1.16170024137950        0.69926219099299       -0.00007601449308
C           -2.36174525260154        1.38770950779348       -0.00004588858936
C           -3.56501603168031        0.69464210731726       -0.00000707594548
C           -3.56501573846725       -0.69463958761186        0.00000294248125
C           -2.36174465483483       -1.38770646574181       -0.00002793620982
C           -1.16169994358514       -0.69925862654589       -0.00006841242527
O            0.00000025304496       -1.42811358121005       -0.00009830877796
Cl          -5.04428842804487       -1.56960079576237        0.00005590471366
Cl          -5.04428909706850        1.56960268966885        0.00003100899314
H            2.34830805376601       -2.46435298793306       -0.00003402233357
H            2.34830694811361        2.46435808241970       -0.00004187466385
H           -2.34830815381270        2.46435706280565       -0.00005345914359
H           -2.34830708340664       -2.46435401037702       -0.00002133842963
22
 energy: -54.099869413010 gnorm: 0.000513891235 xtb: 6.7.1 (41059b4)
C            2.36173125416495       -1.38762708466459       -0.00003404197146
C            1.16179622198642       -0.69920319722126       -0.00006694691258
C            1.16179591929812        0.69920777206873       -0.00007117928857
C            2.36173064888506        1.38763218718810       -0.00003998117845
C            3.56571530531923        0.69515908156802       -0.00000601323331
C            3.56571560501238       -0.69515344900873       -0.00000392244931
Cl           5.04373181327687       -1.57044022485789        0.00003848247502
Cl           5.04373112965923        1.57044649510616        0.00003561592095
O           -0.00000036874955        1.42807713980280       -0.00010394581997
C           -1.16179633563401        0.69920726877041       -0.00007237156490
C           -2.36173136766281        1.38763115793018       -0.00004472127525
C           -3.56571572003792        0.69515752483978       -0.00000870225667
C           -3.56571541950227       -0.69515500502976        0.00000040025309
C           -2.36173076358112       -1.38762811283474       -0.00002821792822
C           -1.16179603210660       -0.69920370090529       -0.00006522338008
O            0.00000025276754       -1.42807306679651       -0.00009222648034
Cl          -5.04373124339241       -1.57044242224865        0.00004937422953
Cl          -5.04373192587488        1.57044430160337        0.00002702892581
H            2.34769518484039       -2.46471422664097       -0.00003234125443
H            2.34769409805579        2.46471932300986       -0.00004276950375
H           -2.34769529161664        2.46471830002786       -0.00005174642455
H           -2.34769421869281       -2.46471524844448       -0.00002228057748
22
 energy: -54.099869593151 gnorm: 0.000108248366 xtb: 6.7.1 (41059b4)
C            2.36177479582831       -1.38749567111671       -0.00003290421535
C            1.16186588945835       -0.69913926129567       -0.00006364105913
C            1.16186558605309        0.69914383888230       -0.00006816472561
C            2.36177419074118        1.38750077375183       -0.00003994117310
C            3.56590420862141        0.69522110680266       -0.00000825172732
C            3.56590451044383       -0.69521547702535       -0.00000542109554
Cl           5.04381266424286       -1.57068099327048        0.00003435951640
Cl           5.04381197897820        1.57068726534833        0.00002936329796
O           -0.00000036792510        1.42822481548371       -0.00009849059202
C           -1.16186600365297        0.69914333395433       -0.00006904966097
C           -2.36177490936040        1.38749974469440       -0.00004357825809
C           -3.56590462480971        0.69521955223763       -0.00001021121087
C           -3.56590432247382       -0.69521703155635       -0.00000182942987
C           -2.36177430517053       -1.38749669953766       -0.00002818401539
C           -1.16186569972174       -0.69913976649827       -0.00006222284501
O            0.00000025353124       -1.42822074295133       -0.00008683931082
Cl          -5.04381209322922       -1.57068319079131        0.00004318191264
Cl          -5.04381277781190        1.57068506886350        0.00002285002969
H            2.34769084043115       -2.46469451942322       -0.00003076263145
H            2.34768976049372        2.46469961586167       -0.00004315329679
H           -2.34769095070695        2.46469859270768       -0.00005015879664
H           -2.34768987754604       -2.46469554185931       -0.00002268040765
22
 energy: -54.099869612900 gnorm: 0.000033556792 xtb: 6.7.1 (41059b4)
C            2.36177765169167       -1.38746286508769       -0.00003189577803
C            1.16183475996135       -0.69913809571290       -0.00006066177127
C            1.16183445577730        0.69914267439384       -0.00006541387716
C            2.36177704674290        1.38746796790123       -0.00003979259929
C            3.56588322998270        0.69520269406896       -0.00001027830707
C            3.56588353247975       -0.69519706526404       -0.00000686920155
Cl           5.04383078989556       -1.57058350251389        0.00003040257233
Cl           5.04383010470484        1.57058977510655        0.00002380463760
O           -0.00000036800741        1.42829851308070       -0.00009356833105
C           -1.16183487396747        0.69914216870032       -0.00006606529304
C           -2.36177776530754        1.38746693879870       -0.00004256947541
C           -3.56588364649968        0.69520113989015       -0.00001166259750
C           -3.56588334394718       -0.69519861937983       -0.00000385066498
C           -2.36177716106826       -1.38746389400918       -0.00002803701389
C           -1.16183456964846       -0.69913860150571       -0.00005947824731
O            0.00000025407148       -1.42829444036549       -0.00008194197886
Cl          -5.04383021924769       -1.57058569998658        0.00003764059947
Cl          -5.04383090337495        1.57058757755573        0.00001887576732
H            2.34774720735800       -2.46462379286285       -0.00002939344118
H            2.34774613053934        2.46462888954505       -0.00004332830510
H           -2.34774731955481        2.46462786659065       -0.00004878617244
H           -2.34774624616647       -2.46462481568134       -0.00002286021654
