
                                 *****************
                                 * O   R   C   A *
                                 *****************

                                            #,                                       
                                            ###                                      
                                            ####                                     
                                            #####                                    
                                            ######                                   
                                           ########,                                 
                                     ,,################,,,,,                         
                               ,,#################################,,                 
                          ,,##########################################,,             
                       ,#########################################, ''#####,          
                    ,#############################################,,   '####,        
                  ,##################################################,,,,####,       
                ,###########''''           ''''###############################       
              ,#####''   ,,,,##########,,,,          '''####'''          '####       
            ,##' ,,,,###########################,,,                        '##       
           ' ,,###''''                  '''############,,,                           
         ,,##''                                '''############,,,,        ,,,,,,###''
      ,#''                                            '''#######################'''  
     '                                                          ''''####''''         
             ,#######,   #######,   ,#######,      ##                                
            ,#'     '#,  ##    ##  ,#'     '#,    #''#        ,####,   ,####,        
            ##       ##  ##   ,#'  ##            #'  '#       #'       #'  '#        
            ##       ##  #######   ##           ,######,      #####,   #    #        
            '#,     ,#'  ##    ##  '#,     ,#' ,#      #,     #,   #   #,  ,#        
             '#######'   ##     ##  '#######'  #'      '#     '####' # '####'        



                #########################################################
                #                        -***-                          #
                #          Department of theory and spectroscopy        #
                #                                                       #
                #                      Frank Neese                      #
                #                                                       #
                #     Directorship, Architecture, Infrastructure        #
                #                    SHARK, DRIVERS                     #
                #        Core code/Algorithms in most modules           #
                #                                                       #
                #        Max Planck Institute fuer Kohlenforschung      #
                #                Kaiser Wilhelm Platz 1                 #
                #                 D-45470 Muelheim/Ruhr                 #
                #                      Germany                          #
                #                                                       #
                #                  All rights reserved                  #
                #                        -***-                          #
                #########################################################


                         Program Version 6.0.1  -  RELEASE   -


 With contributions from (in alphabetic order):
[Max-Planck-Institut fuer Kohlenforschung]                               
  Daniel Aravena         : Magnetic Suceptibility                        
  Michael Atanasov       : Ab Initio Ligand Field Theory (pilot matlab implementation)
  Alexander A. Auer      : GIAO ZORA, VPT2 properties, NMR spectrum      
  Ute Becker             : All parallelization in ORCA, NUMFREQ, NUMCALC 
  Giovanni Bistoni       : ED, misc. LED, open-shell LED, HFLD           
  Martin Brehm           : Molecular dynamics                            
  Dmytro Bykov           : pre 5.0 version of the SCF Hessian            
  Marcos Casanova-Páez   : Triplet and SCS-CIS(D). UHF-(DLPNO)-IP/EA/STEOM-CCSD. UHF-CVS-IP/STEOM-CCSD   
  Vijay G. Chilkuri      : MRCI spin determinant printing, contributions to CSF-ICE 
  Pauline Colinet        : FMM embedding                                 
  Dipayan Datta          : RHF DLPNO-CCSD density                        
  Achintya Kumar Dutta   : EOM-CC, STEOM-CC                              
  Nicolas Foglia         : Exact transition moments, OPA infrastructure, MCD improvements    
  Dmitry Ganyushin       : Spin-Orbit,Spin-Spin,Magnetic field MRCI      
  Miquel Garcia-Rates    : C-PCM and meta-GGA Hessian, CCSD/C-PCM, Gaussian charge scheme 
  Tiago L. C. Gouveia    : GS-ROHF, GS-ROCIS                             
  Yang Guo               : DLPNO-NEVPT2, F12-NEVPT2, CIM, IAO-localization        
  Andreas Hansen         : Spin unrestricted coupled pair/coupled cluster methods 
  Ingolf Harden          : AUTO-CI MPn and infrastructure                
  Benjamin Helmich-Paris : MC-RPA, TRAH-(SCF,CASSCF), AVAS, COSX integrals, SCF dyn. polar. 
  Lee Huntington         : MR-EOM, pCC                                   
  Robert Izsak           : Overlap fitted RIJCOSX, COSX-SCS-MP3, EOM     
  Riya Kayal             : Wick's Theorem for AUTO-CI, AUTO-CI UHF-CCSDT 
  Emily Kempfer          : AUTO-CI, RHF CISDT and CCSDT                  
  Christian Kollmar      : KDIIS, OOCD, Brueckner-CCSD(T), CCSD density, CASPT2, CASPT2-K, improved NEVPT2 
  Axel Koslowski         : Symmetry handling                             
  Simone Kossmann        : meta-GGA functionals, TD-DFT gradient, OOMP2, (MP2 Hessian; deprecated post 5.0) 
  Lucas Lang             : DCDCAS                                        
  Marvin Lechner         : AUTO-CI (C++ implementation), FIC-MRCC        
  Spencer Leger          : CASSCF response                               
  Dagmar Lenk            : GEPOL surface, SMD, ORCA-2-JSON               
  Dimitrios Liakos       : Extrapolation schemes; Compound Job, initial MDCI parallelization 
  Dimitrios Manganas     : Further ROCIS development; embedding schemes. LFT, Crystal Embedding 
  Dimitrios Pantazis     : SARC Basis sets                               
  Anastasios Papadopoulos: AUTO-CI, single reference methods and gradients 
  Taras Petrenko         : pre 6.0 DFT Hessian and TD-DFT gradient, (ASA, deprecated), ECA, 1-Electron XAS/XES, NRVS 
  Peter Pinski           : DLPNO-MP2, DLPNO-MP2 Gradient                 
  Christoph Reimann      : Effective Core Potentials                     
  Marius Retegan         : Local ZFS, SOC                                
  Christoph Riplinger    : Optimizer, TS searches, QM/MM, DLPNO-CCSD(T), (RO)-DLPNO pert. Triples 
  Michael Roemelt        : Original ROCIS implementation                 
  Masaaki Saitow         : Open-shell DLPNO-CCSD energy and density      
  Barbara Sandhoefer     : DKH picture change effects                    
  Kantharuban Sivalingam : CASSCF convergence/infrastructure, NEVPT2 and variants, FIC-MRCI 
  Bernardo de Souza      : ESD, SOC TD-DFT                               
  Georgi L. Stoychev     : AutoAux, RI-MP2 NMR, DLPNO-MP2 response, X2C  
  Van Anh Tran           : RI-MP2 g-tensors                              
  Willem Van den Heuvel  : Paramagnetic NMR                              
  Zikuan Wang            : NOTCH, Electric field optimization            
  Frank Wennmohs         : Technical directorship and infrastructure     
  Hang Xu                : AUTO-CI-Response properties                   
                                                                         
[FACCTs GmbH]                                                            
  Markus Bursch, Miquel Garcia-Rates, Christoph Riplinger, Bernardo de Souza, Georgi L. Stoychev 
                                                                 
  APM, Basis sets (HGBS, AHGBS, def-TZVP (Ac-Lr), def2-XVPD (La-Lu)), CI-OPT, improved COSX, DLPNO-Multilevel,           
  DOCKER, DRACO, updates on ESD, GOAT, IRC, LR-CPCM, MBIS, meta-GGA TD-DFT gradient, ML-optimized integration grids, 
  MM, NACMEs, nearIR, NEB, NEB-TS, NL-DFT gradient (VV10), 2- and 3-layer-ONIOM, interface openCOSMO-RS, QMMM,   
  Crystal-QMMM, SF, symmetry and pop. for TD-DFT, r2SCAN hybrids, SOLVATOR                                   
                                                                         
[Other institutions]                                                     
  V. Asgeirsson          : NEB                                           
  Christoph Bannwarth    : sTDA-DFT, sTD-DFT, PBEh-3c, B97-3c, D3        
  Sebastian Ehlert       : rSCAN, r2SCAN, r2SCAN-3c, D4, dhf basis sets  
  Marvin Friede          : D4 for Fr, Ra, Ac-Lr                          
  Lars Goerigk           : TD-DFT with DH, B97 family of functionals     
  Stefan Grimme          : VdW corrections, initial TS optimization, DFT functionals, gCP, sTDA/sTD-DF 
  Waldemar Hujo          : DFT-NL                                        
  H. Jonsson             : NEB                                           
  Holger Kruse           : gCP                                           
  Marcel Mueller         : wB97X-3c, vDZP basis set                      
  Hagen Neugebauer       : wr2SCAN                                       
  Tobias Risthaus        : range-separated hybrid DFT                    
  Lukas Wittmann         : regularized MP2, r2SCAN double-hybrids, wr2SCAN        
                                                                         
We gratefully acknowledge several colleagues who have allowed us to      
interface, adapt or use parts of their codes:                            
  Ed Valeev, F. Pavosevic, A. Kumar             : LibInt (2-el integral package), F12 methods 
  Garnet Chan, S. Sharma, J. Yang, R. Olivares  : DMRG                   
  Ulf Ekstrom                                   : XCFun DFT Library      
  Mihaly Kallay                                 : mrcc  (arbitrary order and MRCC methods)
  Frank Weinhold                                : gennbo (NPA and NBO analysis)           
  Simon Mueller                                 : openCOSMO-RS                            
  Christopher J. Cramer and Donald G. Truhlar   : smd solvation model                     
  S Lehtola, MJT Oliveira, MAL Marques          : LibXC Library                           
  Liviu Ungur et al                             : ANISO software                          


 Your calculation uses the libint2 library for the computation of 2-el integrals
 For citations please refer to: http://libint.valeyev.net

 Your ORCA version has been built with support for libXC version: 6.2.2
 For citations please refer to: https://libxc.gitlab.io

 This ORCA versions uses:
   CBLAS   interface :  Fast vector & matrix operations
   LAPACKE interface :  Fast linear algebra routines
   SCALAPACK package :  Parallel linear algebra routines
   Shared memory     :  Shared parallel matrices
   BLAS/LAPACK       :  OpenBLAS 0.3.27  USE64BITINT DYNAMIC_ARCH NO_AFFINITY Zen SINGLE_THREADED
        Core in use  :  Zen
   Copyright (c) 2011-2014, The OpenBLAS Project


Your calculation utilizes the geometrical counterpoise correction gCP
Please cite in your paper:
H.Kruse, S. Grimme J.Chem.Phys., 136, (2012), 154101 
   

Your calculation utilizes the atom-pairwise dispersion correction
based on EEQ partial charges (D4)


================================================================================

----- Orbital basis set information -----
Your calculation utilizes the basis: def2-SV(P)
   F. Weigend and R. Ahlrichs, Phys. Chem. Chem. Phys. 7, 3297 (2005).

----- AuxJ basis set information -----
Your calculation utilizes the auxiliary basis: def2/J
   F. Weigend, Phys. Chem. Chem. Phys. 8, 1057 (2006).

================================================================================
                                        WARNINGS
                       Please study these warnings very carefully!
================================================================================

WARNING: Old DensityContainer found on disk!
         Will remove this file - 
         If you want to keep old densities, please start your calculation with a different basename. 


================================================================================
                                       INPUT FILE
================================================================================
NAME = sp.inp
|  1> ! pbe def2-sv(p) def2/J RI DEFGRID1 loosescf d4 GCP(DFT/SV(P)) printgap
|  2> %output
|  3>     printlevel normal
|  4> end
|  5> * xyz 0 1
|  6> C 0.8374098083 1.4054889308 -0.5654371009
|  7> C 1.588803122 0.1627642263 -0.065383174
|  8> H 2.5423707456 0.0876990079 -0.6105874192
|  9> C 0.7643969863 -1.1179687792 -0.3411477831
| 10> H 1.1999097038 -1.9522711546 0.2249928626
| 11> C -0.6847681386 -0.9087111481 0.143954537
| 12> H -1.3023801423 -1.7649385276 -0.1459909144
| 13> C -1.279036365 0.3832914032 -0.4637576443
| 14> H -1.3300182631 0.3255486938 -1.5647989726
| 15> O -0.4736217316 1.4825722245 -0.0738236679
| 16> O -2.5609866356 0.5928782377 -0.0181995004
| 17> O -0.7530348164 -0.8155361626 1.5430299157
| 18> O 0.8419961973 -1.5122237452 -1.6847898587
| 19> O 1.8180009449 0.3375681023 1.3163547662
| 20> H 0.8387161062 1.4124985785 -1.6666573863
| 21> H 1.3402751402 2.3005636245 -0.196841216
| 22> H -2.5574328673 0.4849654692 0.9455656308
| 23> H -0.1768246716 -0.0794873723 1.8120279967
| 24> H 0.4078031702 -0.8597151815 -2.2456452281
| 25> H 2.3181647269 -0.4128812546 1.6570491721
| 26> *
| 27> 
| 28>                          ****END OF INPUT****
================================================================================

                       ****************************
                       * Single Point Calculation *
                       ****************************

---------------------------------
CARTESIAN COORDINATES (ANGSTROEM)
---------------------------------
  C      0.837410    1.405489   -0.565437
  C      1.588803    0.162764   -0.065383
  H      2.542371    0.087699   -0.610587
  C      0.764397   -1.117969   -0.341148
  H      1.199910   -1.952271    0.224993
  C     -0.684768   -0.908711    0.143955
  H     -1.302380   -1.764939   -0.145991
  C     -1.279036    0.383291   -0.463758
  H     -1.330018    0.325549   -1.564799
  O     -0.473622    1.482572   -0.073824
  O     -2.560987    0.592878   -0.018200
  O     -0.753035   -0.815536    1.543030
  O      0.841996   -1.512224   -1.684790
  O      1.818001    0.337568    1.316355
  H      0.838716    1.412499   -1.666657
  H      1.340275    2.300564   -0.196841
  H     -2.557433    0.484965    0.945566
  H     -0.176825   -0.079487    1.812028
  H      0.407803   -0.859715   -2.245645
  H      2.318165   -0.412881    1.657049

----------------------------
CARTESIAN COORDINATES (A.U.)
----------------------------
  NO LB      ZA    FRAG     MASS         X           Y           Z
   0 C     6.0000    0    12.011    1.582475    2.655989   -1.068521
   1 C     6.0000    0    12.011    3.002403    0.307580   -0.123556
   2 H     1.0000    0     1.008    4.804384    0.165727   -1.153843
   3 C     6.0000    0    12.011    1.444501   -2.112655   -0.644676
   4 H     1.0000    0     1.008    2.267501   -3.689258    0.425175
   5 C     6.0000    0    12.011   -1.294024   -1.717215    0.272035
   6 H     1.0000    0     1.008   -2.461142   -3.335250   -0.275883
   7 C     6.0000    0    12.011   -2.417028    0.724316   -0.876375
   8 H     1.0000    0     1.008   -2.513370    0.615198   -2.957042
   9 O     8.0000    0    15.999   -0.895015    2.801655   -0.139507
  10 O     8.0000    0    15.999   -4.839563    1.120378   -0.034392
  11 O     8.0000    0    15.999   -1.423030   -1.541140    2.915904
  12 O     8.0000    0    15.999    1.591142   -2.857689   -3.183791
  13 O     8.0000    0    15.999    3.435524    0.637911    2.487550
  14 H     1.0000    0     1.008    1.584944    2.669235   -3.149526
  15 H     1.0000    0     1.008    2.532753    4.347435   -0.371976
  16 H     1.0000    0     1.008   -4.832848    0.916452    1.786860
  17 H     1.0000    0     1.008   -0.334150   -0.150209    3.424237
  18 H     1.0000    0     1.008    0.770636   -1.624626   -4.243654
  19 H     1.0000    0     1.008    4.380696   -0.780232    3.131369

--------------------------------
INTERNAL COORDINATES (ANGSTROEM)
--------------------------------
 C      0   0   0     0.000000000000     0.00000000     0.00000000
 C      1   0   0     1.535907071686     0.00000000     0.00000000
 H      2   1   0     1.100987587930   108.52113135     0.00000000
 C      2   1   3     1.547891671787   110.54268747   241.17322102
 H      4   2   1     1.098292771266   108.99570018   193.14076921
 C      4   2   1     1.542463152353   109.39661199   311.35051792
 H      6   4   2     1.094823400055   109.91403981   173.76834145
 C      6   4   2     1.546524947350   110.53453643    52.88019783
 H      8   6   4     1.103732477119   111.47151039    62.24559004
 O      1   2   3     1.402294298743   112.81246043   171.27749989
 O      8   6   4     1.373260789902   111.02145800   181.14717018
 O      6   4   2     1.403835400788   111.59994834   292.02055187
 O      4   2   1     1.402438106686   111.95123633    77.46017728
 O      2   1   3     1.411484244501   107.33450921   119.60898062
 H      1   2   3     1.101243369356   109.27719354    47.84924602
 H      1   2   3     1.090823164264   109.17030106   288.23841871
 H     11   8   6     0.969794319942   107.57970069    48.19065673
 H     12   6   4     0.972700323971   107.27913801    57.55822281
 H     13   4   2     0.963768517783   110.01614511   293.28625993
 H     14   2   1     0.964059502473   109.49893221   182.06129186

---------------------------
INTERNAL COORDINATES (A.U.)
---------------------------
 C      0   0   0     0.000000000000     0.00000000     0.00000000
 C      1   0   0     2.902443732640     0.00000000     0.00000000
 H      2   1   0     2.080565018034   108.52113135     0.00000000
 C      2   1   3     2.925091344656   110.54268747   241.17322102
 H      4   2   1     2.075472552559   108.99570018   193.14076921
 C      4   2   1     2.914832929612   109.39661199   311.35051792
 H      6   4   2     2.068916391112   109.91403981   173.76834145
 C      6   4   2     2.922508609768   110.53453643    52.88019783
 H      8   6   4     2.085752106870   111.47151039    62.24559004
 O      1   2   3     2.649952183783   112.81246043   171.27749989
 O      8   6   4     2.595086803367   111.02145800   181.14717018
 O      6   4   2     2.652864444593   111.59994834   292.02055187
 O      4   2   1     2.650223941412   111.95123633    77.46017728
 O      2   1   3     2.667318664452   107.33450921   119.60898062
 H      1   2   3     2.081048374880   109.27719354    47.84924602
 H      1   2   3     2.061357040996   109.17030106   288.23841871
 H     11   8   6     1.832645670922   107.57970069    48.19065673
 H     12   6   4     1.838137222683   107.27913801    57.55822281
 H     13   4   2     1.821258555104   110.01614511   293.28625993
 H     14   2   1     1.821808436478   109.49893221   182.06129186

---------------------
BASIS SET INFORMATION
---------------------
There are 3 groups of distinct atoms

 Group   1 Type C   : 7s4p1d contracted to 3s2p1d pattern {511/31/1}
 Group   2 Type H   : 4s contracted to 2s pattern {31}
 Group   3 Type O   : 7s4p1d contracted to 3s2p1d pattern {511/31/1}

Atom   0C    basis set group =>   1
Atom   1C    basis set group =>   1
Atom   2H    basis set group =>   2
Atom   3C    basis set group =>   1
Atom   4H    basis set group =>   2
Atom   5C    basis set group =>   1
Atom   6H    basis set group =>   2
Atom   7C    basis set group =>   1
Atom   8H    basis set group =>   2
Atom   9O    basis set group =>   3
Atom  10O    basis set group =>   3
Atom  11O    basis set group =>   3
Atom  12O    basis set group =>   3
Atom  13O    basis set group =>   3
Atom  14H    basis set group =>   2
Atom  15H    basis set group =>   2
Atom  16H    basis set group =>   2
Atom  17H    basis set group =>   2
Atom  18H    basis set group =>   2
Atom  19H    basis set group =>   2
---------------------------------
AUXILIARY/J BASIS SET INFORMATION
---------------------------------
There are 3 groups of distinct atoms

 Group   1 Type C   : 12s5p4d2f1g contracted to 6s4p3d1f1g pattern {711111/2111/211/2/1}
 Group   2 Type H   : 5s2p1d contracted to 3s1p1d pattern {311/2/1}
 Group   3 Type O   : 12s5p4d2f1g contracted to 6s4p3d1f1g pattern {711111/2111/211/2/1}

Atom   0C    basis set group =>   1
Atom   1C    basis set group =>   1
Atom   2H    basis set group =>   2
Atom   3C    basis set group =>   1
Atom   4H    basis set group =>   2
Atom   5C    basis set group =>   1
Atom   6H    basis set group =>   2
Atom   7C    basis set group =>   1
Atom   8H    basis set group =>   2
Atom   9O    basis set group =>   3
Atom  10O    basis set group =>   3
Atom  11O    basis set group =>   3
Atom  12O    basis set group =>   3
Atom  13O    basis set group =>   3
Atom  14H    basis set group =>   2
Atom  15H    basis set group =>   2
Atom  16H    basis set group =>   2
Atom  17H    basis set group =>   2
Atom  18H    basis set group =>   2
Atom  19H    basis set group =>   2

Checking for AutoStart:
The File: sp.gbw exists
Trying to determine its content:
     ... Fine, the file contains calculation information
     ... Fine, the calculation information was read
     ... Fine, the file contains a basis set
     ... Fine, the basis set was read
     ... Fine, the file contains a geometry
     ... Fine, the geometry was read
     ... Fine, the file contains a set of orbitals
     ... Fine, the orbitals can be read
     => possible old guess file was deleted
     => GBW file was renamed to GES file
     => GES file is set as startup file
     => Guess is set to MORead
     ... now leaving AutoStart

------------------------------------------------------------------------------
                             ORCA STARTUP CALCULATIONS
                           -- RI-GTO INTEGRALS CHOSEN --
------------------------------------------------------------------------------
------------------------------------------------------------------------------
                   ___                                                        
                  /   \      - P O W E R E D   B Y -                         
                 /     \                                                     
                 |  |  |   _    _      __       _____    __    __             
                 |  |  |  | |  | |    /  \     |  _  \  |  |  /  |          
                  \  \/   | |  | |   /    \    | | | |  |  | /  /          
                 / \  \   | |__| |  /  /\  \   | |_| |  |  |/  /          
                |  |  |   |  __  | /  /__\  \  |    /   |      \           
                |  |  |   | |  | | |   __   |  |    \   |  |\   \          
                \     /   | |  | | |  |  |  |  | |\  \  |  | \   \       
                 \___/    |_|  |_| |__|  |__|  |_| \__\ |__|  \__/        
                                                                              
                      - O R C A' S   B I G   F R I E N D -                    
                                      &                                       
                       - I N T E G R A L  F E E D E R -                       
                                                                              
 v1 FN, 2020, v2 2021, v3 2022-2024                                           
------------------------------------------------------------------------------


----------------------
SHARK INTEGRAL PACKAGE
----------------------

Number of atoms                             ...     20
Number of basis functions                   ...    160
Number of shells                            ...     80
Maximum angular momentum                    ...      2
Integral batch strategy                     ... SHARK/LIBINT Hybrid
RI-J (if used) integral strategy            ... SPLIT-RIJ (Revised 2003 algorithm where possible)
Printlevel                                  ...      1
Contraction scheme used                     ... SEGMENTED contraction
Prescreening option                         ... SCHWARTZ
   Thresh                                   ... 1.000e-09
   Tcut                                     ... 1.000e-10
   Tpresel                                  ... 1.000e-10 
Coulomb Range Separation                    ... NOT USED
Exchange Range Separation                   ... NOT USED
Multipole approximations                    ... NOT USED
Finite Nucleus Model                        ... NOT USED
CABS basis                                  ... NOT available
Auxiliary Coulomb fitting basis             ... AVAILABLE
   # of basis functions in Aux-J            ...    600
   # of shells in Aux-J                     ...    200
   Maximum angular momentum in Aux-J        ...      4
Auxiliary J/K fitting basis                 ... NOT available
Auxiliary Correlation fitting basis         ... NOT available
Auxiliary 'external' fitting basis          ... NOT available

Checking pre-screening integrals            ... done (  0.0 sec) Dimension = 80
Check shell pair data                       ... done (  0.0 sec)
Shell pair information
Shell pair cut-off parameter TPreSel        ...   1.0e-10
Total number of shell pairs                 ...      3240
Shell pairs after pre-screening             ...      3073
Total number of primitive shell pairs       ...     13040
Primitive shell pairs kept                  ...      8636
          la=0 lb=0:   1195 shell pairs
          la=1 lb=0:    963 shell pairs
          la=1 lb=1:    208 shell pairs
          la=2 lb=0:    460 shell pairs
          la=2 lb=1:    195 shell pairs
          la=2 lb=2:     52 shell pairs

Calculating one electron integrals          ... done (  0.0 sec)
Calculating RI/J V-Matrix + Cholesky decomp.... done (  0.0 sec)
Calculating Nuclear repulsion               ... done (  0.0 sec) ENN=    635.846304312481 Eh

Diagonalization of the overlap matrix:
Smallest eigenvalue                        ... 1.127e-03
Time for diagonalization                   ...    0.003 sec
Threshold for overlap eigenvalues          ... 1.000e-07
Number of eigenvalues below threshold      ... 0
Time for construction of square roots      ...    0.001 sec
Total time needed                          ...    0.005 sec

-------------------
DFT GRID GENERATION
-------------------

General Integration Accuracy     IntAcc      ... 4.159
Radial Grid Type                 RadialGrid  ... OptM3 with GC (2021)
Angular Grid (max. ang.)         AngularGrid ... 3 (Lebedev-194)
Angular grid pruning method      GridPruning ... 4 (adaptive)
Weight generation scheme         WeightScheme... mBecke (2022)
Basis function cutoff            BFCut       ... 1.0000e-10
Integration weight cutoff        WCut        ... 1.0000e-14
Partially contracted basis set               ... off
Rotationally invariant grid construction     ... off
Angular grids for H and He will be reduced by one unit

Total number of grid points                  ...    46448
Total number of batches                      ...      737
Average number of points per batch           ...       63
Average number of grid points per atom       ...     2322
Initializing property integral containers    ... done (  0.0 sec)

SHARK setup successfully completed in   0.5 seconds

Maximum memory used throughout the entire STARTUP-calculation: 23.9 MB
-------------------------------------------------------------------------------
                                 ORCA GUESS
                   Start orbitals & Density for SCF / CASSCF
-------------------------------------------------------------------------------

------------
SCF SETTINGS
------------
Hamiltonian:
 Density Functional     Method          .... DFT(GTOs)
 Exchange Functional    Exchange        .... PBE
   PBE kappa parameter   XKappa         ....  0.804000
   PBE mue parameter    XMuePBE         ....  0.219520
 Correlation Functional Correlation     .... PBE
   PBE beta parameter  CBetaPBE         ....  0.066725
 LDA part of GGA corr.  LDAOpt          .... PW91-LDA
 Gradients option       PostSCFGGA      .... off
   NL short-range parameter             ....  6.400000
 RI-approximation to the Coulomb term is turned on
   Number of AuxJ basis functions       .... 600


General Settings:
 Integral files         IntName         .... sp
 Hartree-Fock type      HFTyp           .... RHF
 Total Charge           Charge          ....    0
 Multiplicity           Mult            ....    1
 Number of Electrons    NEL             ....   80
 Basis Dimension        Dim             ....  160
 Nuclear Repulsion      ENuc            ....    635.8463043125 Eh

Convergence Acceleration:
 AO-DIIS                CNVDIIS         .... on
   Start iteration      DIISMaxIt       ....    12
   Startup error        DIISStart       ....  0.200000
   # of expansion vecs  DIISMaxEq       ....     5
   Bias factor          DIISBfac        ....   1.050
   Max. coefficient     DIISMaxC        ....  10.000
 MO-DIIS                CNVKDIIS        .... off
 Trust-Rad. Augm. Hess. CNVTRAH         .... auto
   Auto Start mean grad. ratio tolernc. ....  1.125000
   Auto Start start iteration           ....     1
   Auto Start num. interpolation iter.  ....    10
   Max. Number of Micro iterations      ....    24
   Max. Number of Macro iterations      .... Maxiter - #DIIS iter
   Number of Davidson start vectors     ....     2
   Converg. threshold    (grad. norm)   ....   1.000e-04
   Grad. Scal. Fac. for Micro threshold ....   0.100
   Minimum threshold for Micro iter.    ....   1.000e-02
   NR start threshold (gradient norm)   ....   1.000e-04
   Initial trust radius                 ....   0.400
   Minimum AH scaling param. (alpha)    ....   1.000
   Maximum AH scaling param. (alpha)    .... 1000.000
   Quad. conv. algorithm                .... NR
   White noise on init. David. guess    .... on
   Maximum white noise                  ....   0.010
   Pseudo random numbers                .... off
   Inactive MOs                         .... canonical
   Orbital update algorithm             .... Taylor
   Preconditioner                       .... Diag
   Full preconditioner red. dimension   ....   250
 SOSCF                  CNVSOSCF        .... on
   Start iteration      SOSCFMaxIt      ....   150
   Startup grad/error   SOSCFStart      ....  0.003300
   Hessian update       SOSCFHessUp     .... L-BFGS
 Level Shifting         CNVShift        .... on
   Level shift para.    LevelShift      ....    0.2500
   Turn off err/grad.   ShiftErr        ....    0.0010
 Zerner damping         CNVZerner       .... off
 Static damping         CNVDamp         .... on
   Fraction old density DampFac         ....    0.7000
   Max. Damping (<1)    DampMax         ....    0.9800
   Min. Damping (>=0)   DampMin         ....    0.0000
   Turn off err/grad.   DampErr         ....    0.1000

SCF Procedure:
 Maximum # iterations   MaxIter         ....   125
 SCF integral mode      SCFMode         .... Direct
   Integral package                     .... SHARK and LIBINT hybrid scheme
 Reset frequency        DirectResetFreq ....    20
 Integral Threshold     Thresh          ....  1.000e-09 Eh
 Primitive CutOff       TCut            ....  1.000e-10 Eh

Convergence Tolerance:
 Convergence Check Mode ConvCheckMode   .... Total+1el-Energy
 Convergence forced     ConvForced      .... 0
 Energy Change          TolE            ....  1.000e-05 Eh
 1-El. energy change                    ....  1.000e-02 Eh
 Orbital Gradient       TolG            ....  1.000e-04
 Orbital Rotation angle TolX            ....  1.000e-04
 DIIS Error             TolErr          ....  5.000e-04

---------------------
INITIAL GUESS: MOREAD
---------------------
Guess MOs are being read from file: sp.ges
Input Geometry matches current geometry (good)
Input basis set matches current basis set (good)
Occupation numbers will be reassigned to an Aufbau configuration
MOs were renormalized
MOs were reorthogonalized (Cholesky)
                      ------------------
                      INITIAL GUESS DONE (   0.0 sec)
                      ------------------
             **** ENERGY FILE WAS UPDATED (sp.en.tmp) ****
Finished Guess after   0.1 sec
Maximum memory used throughout the entire GUESS-calculation: 11.8 MB

-------------------------------------------------------------------------------------------
                                      ORCA LEAN-SCF
                              memory conserving SCF solver
-------------------------------------------------------------------------------------------

----------------------------------------D-I-I-S--------------------------------------------
Iteration    Energy (Eh)           Delta-E    RMSDP     MaxDP     DIISErr   Damp  Time(sec)
-------------------------------------------------------------------------------------------
               ***  Starting incremental Fock matrix formation  ***
                              *** Initializing SOSCF ***
---------------------------------------S-O-S-C-F--------------------------------------
Iteration    Energy (Eh)           Delta-E    RMSDP     MaxDP     MaxGrad    Time(sec)
--------------------------------------------------------------------------------------
    1    -571.5277429736161139     0.00e+00  2.09e-05  3.93e-04  2.46e-05     0.6
               *** Restarting incremental Fock matrix formation ***
    2    -571.5277430094504325    -3.58e-08  3.63e-05  8.35e-04  9.23e-05     0.7
    3    -571.5277414926979418     1.52e-06  2.46e-05  5.80e-04  1.94e-04     0.6
                 **** Energy Check signals convergence ****

               *****************************************************
               *                     SUCCESS                       *
               *           SCF CONVERGED AFTER   3 CYCLES          *
               *****************************************************

             **** ENERGY FILE WAS UPDATED (sp.en.tmp) ****

----------------
TOTAL SCF ENERGY
----------------

Total Energy       :       -571.52774149269794 Eh          -15552.06050 eV

Components:
Nuclear Repulsion  :        635.84630431248138 Eh           17302.25757 eV
Electronic Energy  :      -1207.37404580517932 Eh          -32854.31807 eV
One Electron Energy:      -2045.34040143400216 Eh          -55656.54185 eV
Two Electron Energy:        837.96635562882284 Eh           22802.22378 eV

Virial components:
Potential Energy   :      -1139.13388448102478 Eh          -30997.40887 eV
Kinetic Energy     :        567.60614298832672 Eh           15445.34838 eV
Virial Ratio       :          2.00690901349962

DFT components:
N(Alpha)           :       39.999819622424 electrons
N(Beta)            :       39.999819622424 electrons
N(Total)           :       79.999639244848 electrons
E(X)               :      -70.498814399056 Eh       
E(C)               :       -2.737045760460 Eh       
E(XC)              :      -73.235860159516 Eh       

---------------
SCF CONVERGENCE
---------------

  Last Energy change         ...   -1.5168e-06  Tolerance :   1.0000e-05
  Last MAX-Density change    ...    5.7965e-04  Tolerance :   1.0000e-03
  Last RMS-Density change    ...    2.4555e-05  Tolerance :   1.0000e-04
  Last DIIS Error            ...    3.1849e-04  Tolerance :   5.0000e-04
  Last Orbital Gradient      ...    1.9441e-04  Tolerance :   1.0000e-04
  Last Orbital Rotation      ...    1.0502e-04  Tolerance :   1.0000e-04


----------------
ORBITAL ENERGIES
----------------

  NO   OCC          E(Eh)            E(eV) 
   0   2.0000     -18.778132      -510.9790 
   1   2.0000     -18.773373      -510.8495 
   2   2.0000     -18.770232      -510.7640 
   3   2.0000     -18.758063      -510.4328 
   4   2.0000     -18.757741      -510.4241 
   5   2.0000      -9.989148      -271.8185 
   6   2.0000      -9.955815      -270.9115 
   7   2.0000      -9.951780      -270.8017 
   8   2.0000      -9.948872      -270.7226 
   9   2.0000      -9.941864      -270.5319 
  10   2.0000      -0.990312       -26.9478 
  11   2.0000      -0.956616       -26.0308 
  12   2.0000      -0.944662       -25.7056 
  13   2.0000      -0.931013       -25.3342 
  14   2.0000      -0.917769       -24.9738 
  15   2.0000      -0.702227       -19.1086 
  16   2.0000      -0.679864       -18.5000 
  17   2.0000      -0.603740       -16.4286 
  18   2.0000      -0.589919       -16.0525 
  19   2.0000      -0.541874       -14.7451 
  20   2.0000      -0.508108       -13.8263 
  21   2.0000      -0.500110       -13.6087 
  22   2.0000      -0.477635       -12.9971 
  23   2.0000      -0.452599       -12.3158 
  24   2.0000      -0.442435       -12.0393 
  25   2.0000      -0.424813       -11.5597 
  26   2.0000      -0.412546       -11.2260 
  27   2.0000      -0.378787       -10.3073 
  28   2.0000      -0.375402       -10.2152 
  29   2.0000      -0.363706        -9.8969 
  30   2.0000      -0.335999        -9.1430 
  31   2.0000      -0.330254        -8.9867 
  32   2.0000      -0.300667        -8.1816 
  33   2.0000      -0.290238        -7.8978 
  34   2.0000      -0.286010        -7.7827 
  35   2.0000      -0.264918        -7.2088 
  36   2.0000      -0.262185        -7.1344 
  37   2.0000      -0.245706        -6.6860 
  38   2.0000      -0.218865        -5.9556 
  39   2.0000      -0.208269        -5.6673 
  40   0.0000       0.003541         0.0964 
  41   0.0000       0.006983         0.1900 
  42   0.0000       0.045981         1.2512 
  43   0.0000       0.061597         1.6761 
  44   0.0000       0.070339         1.9140 
  45   0.0000       0.079769         2.1706 
  46   0.0000       0.086814         2.3623 
  47   0.0000       0.104590         2.8460 
  48   0.0000       0.109967         2.9924 
  49   0.0000       0.115840         3.1522 
  50   0.0000       0.120162         3.2698 
*Only the first 10 virtual orbitals were printed.

                    ********************************
                    * MULLIKEN POPULATION ANALYSIS *
                    ********************************

-----------------------
MULLIKEN ATOMIC CHARGES
-----------------------
   0 C :    0.051838
   1 C :   -0.013808
   2 H :    0.079691
   3 C :    0.037934
   4 H :    0.070822
   5 C :    0.055399
   6 H :    0.085890
   7 C :    0.133026
   8 H :    0.040175
   9 O :   -0.295163
  10 O :   -0.367066
  11 O :   -0.438232
  12 O :   -0.409105
  13 O :   -0.415529
  14 H :    0.063475
  15 H :    0.109466
  16 H :    0.302092
  17 H :    0.299627
  18 H :    0.299333
  19 H :    0.310135
Sum of atomic charges:   -0.0000000

--------------------------------
MULLIKEN REDUCED ORBITAL CHARGES
--------------------------------
  0 C s       :     3.020756  s :     3.020756
      pz      :     0.982024  p :     2.864427
      px      :     0.804634
      py      :     1.077769
      dz2     :     0.015742  d :     0.062979
      dxz     :     0.012799
      dyz     :     0.003502
      dx2y2   :     0.014734
      dxy     :     0.016201

  1 C s       :     3.077893  s :     3.077893
      pz      :     0.767379  p :     2.868934
      px      :     1.047507
      py      :     1.054047
      dz2     :     0.019748  d :     0.066982
      dxz     :     0.017558
      dyz     :     0.012715
      dx2y2   :     0.009236
      dxy     :     0.007725

  2 H s       :     0.920309  s :     0.920309

  3 C s       :     3.064309  s :     3.064309
      pz      :     0.791899  p :     2.829853
      px      :     1.022769
      py      :     1.015184
      dz2     :     0.017649  d :     0.067904
      dxz     :     0.015202
      dyz     :     0.016299
      dx2y2   :     0.008477
      dxy     :     0.010277

  4 H s       :     0.929178  s :     0.929178

  5 C s       :     3.058501  s :     3.058501
      pz      :     0.768212  p :     2.818979
      px      :     1.028234
      py      :     1.022532
      dz2     :     0.020593  d :     0.067122
      dxz     :     0.015254
      dyz     :     0.014885
      dx2y2   :     0.006334
      dxy     :     0.010056

  6 H s       :     0.914110  s :     0.914110

  7 C s       :     3.072803  s :     3.072803
      pz      :     1.022929  p :     2.692410
      px      :     0.792499
      py      :     0.876982
      dz2     :     0.021947  d :     0.101761
      dxz     :     0.015242
      dyz     :     0.010191
      dx2y2   :     0.024576
      dxy     :     0.029806

  8 H s       :     0.959825  s :     0.959825

  9 O s       :     3.761386  s :     3.761386
      pz      :     1.718327  p :     4.517982
      px      :     1.250631
      py      :     1.549024
      dz2     :     0.002170  d :     0.015796
      dxz     :     0.003350
      dyz     :     0.002501
      dx2y2   :     0.003996
      dxy     :     0.003779

 10 O s       :     3.763098  s :     3.763098
      pz      :     1.309983  p :     4.587851
      px      :     1.428628
      py      :     1.849240
      dz2     :     0.007530  d :     0.016118
      dxz     :     0.001951
      dyz     :     0.000705
      dx2y2   :     0.003540
      dxy     :     0.002391

 11 O s       :     3.794226  s :     3.794226
      pz      :     1.318606  p :     4.628354
      px      :     1.711281
      py      :     1.598467
      dz2     :     0.005330  d :     0.015653
      dxz     :     0.002360
      dyz     :     0.002329
      dx2y2   :     0.000938
      dxy     :     0.004695

 12 O s       :     3.782251  s :     3.782251
      pz      :     1.225178  p :     4.611041
      px      :     1.781174
      py      :     1.604689
      dz2     :     0.002278  d :     0.015813
      dxz     :     0.002707
      dyz     :     0.005805
      dx2y2   :     0.001668
      dxy     :     0.003354

 13 O s       :     3.788636  s :     3.788636
      pz      :     1.320082  p :     4.611576
      px      :     1.724013
      py      :     1.567480
      dz2     :     0.004259  d :     0.015318
      dxz     :     0.001863
      dyz     :     0.003560
      dx2y2   :     0.001540
      dxy     :     0.004095

 14 H s       :     0.936525  s :     0.936525

 15 H s       :     0.890534  s :     0.890534

 16 H s       :     0.697908  s :     0.697908

 17 H s       :     0.700373  s :     0.700373

 18 H s       :     0.700667  s :     0.700667

 19 H s       :     0.689865  s :     0.689865


------------------------
MULLIKEN OVERLAP CHARGES
------------------------
B(  0-C ,  1-C ) :   0.5612 B(  0-C ,  3-C ) :  -0.0509 B(  0-C ,  5-C ) :  -0.0910 
B(  0-C ,  9-O ) :   0.6832 B(  0-C , 13-O ) :  -0.0986 B(  0-C , 14-H ) :   0.6624 
B(  0-C , 15-H ) :   0.6777 B(  1-C ,  2-H ) :   0.6559 B(  1-C ,  3-C ) :   0.3487 
B(  1-C ,  4-H ) :  -0.1190 B(  1-C ,  5-C ) :   0.0615 B(  1-C ,  7-C ) :  -0.1187 
B(  1-C ,  9-O ) :  -0.0849 B(  1-C , 12-O ) :  -0.0943 B(  1-C , 13-O ) :   0.4856 
B(  1-C , 14-H ) :  -0.0845 B(  1-C , 19-H ) :  -0.0872 B(  2-H ,  3-C ) :  -0.1071 
B(  3-C ,  4-H ) :   0.6693 B(  3-C ,  5-C ) :   0.2464 B(  3-C ,  6-H ) :  -0.0666 
B(  3-C ,  9-O ) :  -0.0517 B(  3-C , 11-O ) :  -0.0579 B(  3-C , 12-O ) :   0.5723 
B(  3-C , 13-O ) :  -0.0590 B(  3-C , 18-H ) :  -0.1189 B(  4-H ,  5-C ) :  -0.0681 
B(  5-C ,  6-H ) :   0.6517 B(  5-C ,  7-C ) :   0.4162 B(  5-C ,  8-H ) :  -0.1618 
B(  5-C ,  9-O ) :  -0.0503 B(  5-C , 10-O ) :  -0.0579 B(  5-C , 11-O ) :   0.5152 
B(  5-C , 12-O ) :  -0.0713 B(  5-C , 16-H ) :  -0.0529 B(  5-C , 17-H ) :  -0.1274 
B(  6-H ,  7-C ) :  -0.0584 B(  6-H , 11-O ) :  -0.0555 B(  7-C ,  8-H ) :   0.6757 
B(  7-C ,  9-O ) :   0.4640 B(  7-C , 10-O ) :   0.7489 B(  7-C , 16-H ) :  -0.0857 
B(  8-H ,  9-O ) :  -0.0907 B(  8-H , 10-O ) :  -0.0711 B(  9-O , 10-O ) :  -0.1274 
B(  9-O , 14-H ) :  -0.0720 B( 10-O , 16-H ) :   0.5255 B( 11-O , 16-H ) :   0.0665 
B( 11-O , 17-H ) :   0.5341 B( 12-O , 18-H ) :   0.5558 B( 13-O , 17-H ) :   0.1040 
B( 13-O , 19-H ) :   0.5253 B( 14-H , 15-H ) :  -0.0545 


                     *******************************
                     * LOEWDIN POPULATION ANALYSIS *
                     *******************************

----------------------
LOEWDIN ATOMIC CHARGES
----------------------
   0 C :   -0.119102
   1 C :   -0.094132
   2 H :    0.108553
   3 C :   -0.083009
   4 H :    0.111891
   5 C :   -0.095767
   6 H :    0.120865
   7 C :   -0.011985
   8 H :    0.086394
   9 O :   -0.158807
  10 O :   -0.281950
  11 O :   -0.315501
  12 O :   -0.305255
  13 O :   -0.309063
  14 H :    0.098467
  15 H :    0.127947
  16 H :    0.282802
  17 H :    0.269160
  18 H :    0.277458
  19 H :    0.291036

-------------------------------
LOEWDIN REDUCED ORBITAL CHARGES
-------------------------------
  0 C s       :     2.920202  s :     2.920202
      pz      :     1.073106  p :     3.055408
      px      :     0.886700
      py      :     1.095602
      dz2     :     0.037624  d :     0.143493
      dxz     :     0.027675
      dyz     :     0.007770
      dx2y2   :     0.032286
      dxy     :     0.038138

  1 C s       :     2.903497  s :     2.903497
      pz      :     0.871854  p :     3.034631
      px      :     1.077011
      py      :     1.085765
      dz2     :     0.047025  d :     0.156004
      dxz     :     0.039062
      dyz     :     0.026943
      dx2y2   :     0.020126
      dxy     :     0.022847

  2 H s       :     0.891447  s :     0.891447

  3 C s       :     2.897708  s :     2.897708
      pz      :     0.888379  p :     3.025222
      px      :     1.077534
      py      :     1.059308
      dz2     :     0.041107  d :     0.160079
      dxz     :     0.034760
      dyz     :     0.037021
      dx2y2   :     0.021305
      dxy     :     0.025886

  4 H s       :     0.888109  s :     0.888109

  5 C s       :     2.903223  s :     2.903223
      pz      :     0.877754  p :     3.034118
      px      :     1.071978
      py      :     1.084387
      dz2     :     0.048246  d :     0.158425
      dxz     :     0.034604
      dyz     :     0.033066
      dx2y2   :     0.018552
      dxy     :     0.023957

  6 H s       :     0.879135  s :     0.879135

  7 C s       :     2.889479  s :     2.889479
      pz      :     1.062688  p :     2.895358
      px      :     0.872396
      py      :     0.960274
      dz2     :     0.050636  d :     0.227148
      dxz     :     0.031406
      dyz     :     0.023084
      dx2y2   :     0.053866
      dxy     :     0.068156

  8 H s       :     0.913606  s :     0.913606

  9 O s       :     3.481015  s :     3.481015
      pz      :     1.747592  p :     4.647435
      px      :     1.317824
      py      :     1.582019
      dz2     :     0.003739  d :     0.030357
      dxz     :     0.006534
      dyz     :     0.003620
      dx2y2   :     0.008239
      dxy     :     0.008226

 10 O s       :     3.521498  s :     3.521498
      pz      :     1.386164  p :     4.732066
      px      :     1.502921
      py      :     1.842982
      dz2     :     0.013540  d :     0.028386
      dxz     :     0.003924
      dyz     :     0.001210
      dx2y2   :     0.006207
      dxy     :     0.003505

 11 O s       :     3.531373  s :     3.531373
      pz      :     1.392462  p :     4.756931
      px      :     1.729452
      py      :     1.635016
      dz2     :     0.010797  d :     0.027198
      dxz     :     0.004064
      dyz     :     0.004098
      dx2y2   :     0.001165
      dxy     :     0.007074

 12 O s       :     3.528854  s :     3.528854
      pz      :     1.305392  p :     4.748609
      px      :     1.791916
      py      :     1.651301
      dz2     :     0.005548  d :     0.027793
      dxz     :     0.005113
      dyz     :     0.010653
      dx2y2   :     0.001891
      dxy     :     0.004588

 13 O s       :     3.535000  s :     3.535000
      pz      :     1.396333  p :     4.747063
      px      :     1.737687
      py      :     1.613043
      dz2     :     0.008723  d :     0.027000
      dxz     :     0.003557
      dyz     :     0.006376
      dx2y2   :     0.002025
      dxy     :     0.006319

 14 H s       :     0.901533  s :     0.901533

 15 H s       :     0.872053  s :     0.872053

 16 H s       :     0.717198  s :     0.717198

 17 H s       :     0.730840  s :     0.730840

 18 H s       :     0.722542  s :     0.722542

 19 H s       :     0.708964  s :     0.708964


---------------------------------
LOEWDIN BOND ORDERS (THRESH 0.050000)
---------------------------------
B(  0-C ,  1-C ) :   1.0628 B(  0-C ,  3-C ) :   0.0523 B(  0-C ,  7-C ) :   0.0704 
B(  0-C ,  9-O ) :   1.1839 B(  0-C , 13-O ) :   0.0582 B(  0-C , 14-H ) :   0.8926 
B(  0-C , 15-H ) :   0.9060 B(  1-C ,  2-H ) :   0.8720 B(  1-C ,  3-C ) :   1.0147 
B(  1-C ,  5-C ) :   0.0539 B(  1-C ,  9-O ) :   0.0657 B(  1-C , 12-O ) :   0.0836 
B(  1-C , 13-O ) :   1.1981 B(  3-C ,  4-H ) :   0.8711 B(  3-C ,  5-C ) :   1.0153 
B(  3-C ,  7-C ) :   0.0555 B(  3-C , 11-O ) :   0.0783 B(  3-C , 12-O ) :   1.2278 
B(  3-C , 13-O ) :   0.0777 B(  5-C ,  6-H ) :   0.8744 B(  5-C ,  7-C ) :   1.0110 
B(  5-C ,  9-O ) :   0.0669 B(  5-C , 10-O ) :   0.0775 B(  5-C , 11-O ) :   1.2241 
B(  5-C , 12-O ) :   0.0776 B(  7-C ,  8-H ) :   0.8693 B(  7-C ,  9-O ) :   1.1417 
B(  7-C , 10-O ) :   1.3312 B(  7-C , 11-O ) :   0.0796 B(  9-O , 10-O ) :   0.0799 
B( 10-O , 16-H ) :   0.8580 B( 11-O , 17-H ) :   0.8505 B( 12-O , 18-H ) :   0.8802 
B( 13-O , 17-H ) :   0.0744 B( 13-O , 19-H ) :   0.8795 

------------------------------------------
LOEWDIN REDUCED ORBITAL POPULATIONS PER MO
-------------------------------------------
THRESHOLD FOR PRINTING IS 0.1%%
                      0         1         2         3         4         5   
                 -18.77813 -18.77337 -18.77023 -18.75806 -18.75774  -9.98915
                   2.00000   2.00000   2.00000   2.00000   2.00000   2.00000
                  --------  --------  --------  --------  --------  --------
 7 C  s               0.0       0.0       0.0       0.0       0.0      99.6
 9 O  s               0.0      99.9       0.0       0.0       0.0       0.0
10 O  s               0.0       0.0       0.0       0.7      99.3       0.0
10 O  px              0.0       0.0       0.0       0.0       0.0       0.1
11 O  s               0.0       0.0       0.0      99.3       0.7       0.0
12 O  s               0.0       0.0      99.9       0.0       0.0       0.0
13 O  s              99.9       0.0       0.0       0.0       0.0       0.0

                      6         7         8         9        10        11   
                  -9.95582  -9.95178  -9.94887  -9.94186  -0.99031  -0.95662
                   2.00000   2.00000   2.00000   2.00000   2.00000   2.00000
                  --------  --------  --------  --------  --------  --------
 0 C  s               0.0       0.0      99.6       0.0       4.7       0.1
 0 C  pz              0.0       0.0       0.0       0.0       0.6       0.1
 0 C  px              0.0       0.0       0.0       0.0       3.0       1.0
 0 C  py              0.1       0.0       0.0       0.0       0.2       0.5
 0 C  dx2y2           0.0       0.0       0.0       0.0       0.2       0.0
 1 C  s              99.6       0.0       0.0       0.0       1.9       7.7
 1 C  pz              0.0       0.0       0.0       0.0       0.2       4.4
 1 C  px              0.0       0.0       0.0       0.0       0.4       0.1
 1 C  py              0.0       0.1       0.1       0.0       0.1       0.1
 1 C  dz2             0.0       0.0       0.0       0.0       0.0       0.4
 2 H  s               0.1       0.0       0.0       0.0       0.2       1.0
 3 C  s               0.0      99.6       0.0       0.0       1.4       4.3
 3 C  pz              0.0       0.0       0.0       0.0       0.0       0.8
 3 C  px              0.0       0.0       0.0       0.1       0.1       0.2
 3 C  py              0.1       0.0       0.0       0.0       0.3       0.1
 3 C  dz2             0.0       0.0       0.0       0.0       0.0       0.1
 4 H  s               0.0       0.1       0.0       0.0       0.2       0.7
 5 C  s               0.0       0.0       0.0      99.6       3.7       0.2
 5 C  pz              0.0       0.0       0.0       0.0       0.2       0.0
 5 C  px              0.0       0.1       0.0       0.0       0.0       0.9
 5 C  py              0.0       0.0       0.0       0.0       1.6       0.2
 6 H  s               0.0       0.0       0.0       0.1       0.5       0.0
 7 C  s               0.0       0.0       0.0       0.0      13.8       2.1
 7 C  pz              0.0       0.0       0.0       0.0       1.8       0.2
 7 C  px              0.0       0.0       0.0       0.0       0.0       0.7
 7 C  py              0.0       0.0       0.0       0.1       1.7       0.5
 7 C  dz2             0.0       0.0       0.0       0.0       0.1       0.0
 8 H  s               0.0       0.0       0.0       0.0       1.6       0.2
 9 O  s               0.0       0.0       0.0       0.0      25.8       2.0
 9 O  pz              0.0       0.0       0.0       0.0       0.5       0.0
 9 O  px              0.0       0.0       0.1       0.0       0.0       0.1
 9 O  py              0.0       0.0       0.0       0.0       1.5       0.1
10 O  s               0.0       0.0       0.0       0.0      14.7       6.9
10 O  px              0.0       0.0       0.0       0.0       1.7       0.5
11 O  s               0.0       0.0       0.0       0.0       4.7       0.5
11 O  pz              0.0       0.0       0.0       0.1       0.3       0.0
11 O  py              0.0       0.0       0.0       0.0       0.1       0.0
12 O  s               0.0       0.0       0.0       0.0       1.3      11.9
12 O  pz              0.0       0.1       0.0       0.0       0.1       0.2
12 O  px              0.0       0.0       0.0       0.0       0.0       0.1
12 O  py              0.0       0.0       0.0       0.0       0.1       0.5
13 O  s               0.0       0.0       0.0       0.0       3.0      36.0
13 O  pz              0.1       0.0       0.0       0.0       0.1       0.8
13 O  px              0.0       0.0       0.0       0.0       0.0       0.1
13 O  py              0.0       0.0       0.0       0.0       0.1       1.2
14 H  s               0.0       0.0       0.1       0.0       0.6       0.0
15 H  s               0.0       0.0       0.1       0.0       0.6       0.0
16 H  s               0.0       0.0       0.0       0.0       3.2       1.3
17 H  s               0.0       0.0       0.0       0.0       1.5       0.4
18 H  s               0.0       0.0       0.0       0.0       0.3       2.5
19 H  s               0.0       0.0       0.0       0.0       0.6       7.4

                     12        13        14        15        16        17   
                  -0.94466  -0.93101  -0.91777  -0.70223  -0.67986  -0.60374
                   2.00000   2.00000   2.00000   2.00000   2.00000   2.00000
                  --------  --------  --------  --------  --------  --------
 0 C  s               0.2       2.3       2.9       7.8      11.7       4.5
 0 C  pz              0.2       0.2       0.2       0.0       0.1       0.4
 0 C  px              0.0       1.4       2.5       2.7       0.4       2.1
 0 C  py              0.0       0.0       0.0       2.3       0.2       0.0
 0 C  dx2y2           0.0       0.1       0.2       0.1       0.0       0.1
 1 C  s               1.1       0.3       0.1      16.7       1.5       0.1
 1 C  pz              4.0       0.0       0.6       2.6       0.5       0.1
 1 C  px              0.4       0.0       0.4       1.8       0.0       0.1
 1 C  py              0.8       0.2       0.2       0.0       4.0       8.4
 1 C  dz2             0.3       0.0       0.1       0.2       0.0       0.0
 1 C  dxy             0.0       0.0       0.0       0.0       0.1       0.1
 2 H  s               0.1       0.0       0.0       3.3       0.5       0.0
 3 C  s               5.8       0.0       0.0      11.6       3.7      10.9
 3 C  pz              7.6       1.1       0.2       1.7       0.8       0.7
 3 C  px              0.1       0.7       0.2       0.0       2.9       2.4
 3 C  py              0.8       0.0       0.0       2.7       0.1       1.6
 3 C  dz2             0.6       0.0       0.0       0.2       0.0       0.0
 4 H  s               0.6       0.0       0.0       2.2       0.9       5.9
 5 C  s               0.7       6.6       0.6       3.8      12.2       2.3
 5 C  pz              0.1       8.4       1.3       1.0       3.4       0.6
 5 C  px              0.4       0.0       0.2       1.8       0.0       5.6
 5 C  py              0.0       0.0       0.0       0.0       0.3       1.1
 5 C  dz2             0.0       0.7       0.1       0.1       0.1       0.0
 6 H  s               0.1       0.8       0.0       0.7       2.7       1.1
 7 C  s               0.0       0.1       0.8       0.1      10.5       5.7
 7 C  pz              0.0       0.3       0.2       0.0       0.1       1.3
 7 C  px              0.0       0.8      12.7       0.1       1.9       0.1
 7 C  py              0.2       2.7       0.3       2.5       1.5       4.4
 7 C  dxz             0.0       0.0       0.4       0.0       0.1       0.0
 7 C  dx2y2           0.0       0.0       0.4       0.0       0.1       0.0
 7 C  dxy             0.0       0.2       0.3       0.1       0.0       0.1
 8 H  s               0.0       0.0       0.1       0.0       2.4       3.6
 9 O  s               0.3      11.1      14.7       3.3       0.0       3.6
 9 O  pz              0.0       0.2       0.3       0.0       0.0       0.4
 9 O  px              0.0       0.3       1.1       1.8       7.0       0.2
 9 O  py              0.0       0.2       0.2       0.0       2.6       0.4
10 O  s               0.0       0.7      36.0       0.1       3.1       0.9
10 O  pz              0.0       0.0       0.6       0.0       1.8       2.9
10 O  px              0.0       0.0       1.0       0.0       1.8       1.6
10 O  py              0.0       0.0       0.2       0.1       0.0       0.4
11 O  s               0.3      45.8       6.7       1.5       3.4       0.1
11 O  pz              0.0       1.3       0.1       0.7       2.6       1.0
11 O  px              0.0       0.6       0.1       0.0       0.2       0.5
11 O  py              0.0       0.8       0.1       0.2       0.5       0.1
12 O  s              42.6       1.5       0.7       4.1       1.1       0.4
12 O  pz              0.4       0.0       0.0       3.0       1.2      10.5
12 O  px              0.5       0.0       0.0       0.2       0.0       1.0
12 O  py              1.7       0.1       0.0       0.1       0.1       0.8
13 O  s              16.6       0.2       3.3       4.1       0.2       0.1
13 O  pz              0.2       0.0       0.0       4.1       0.6       0.2
13 O  px              0.1       0.0       0.0       0.9       0.2       0.0
13 O  py              0.5       0.0       0.1       0.6       0.4       0.8
14 H  s               0.0       0.3       0.3       1.7       2.3       2.3
15 H  s               0.1       0.3       0.3       1.5       3.3       1.7
16 H  s               0.0       0.4       6.5       0.0       1.8       1.5
17 H  s               0.0       8.5       1.3       0.7       1.6       0.4
18 H  s               8.8       0.3       0.1       1.9       0.6       4.0
19 H  s               3.3       0.0       0.7       2.7       0.4       0.1

                     18        19        20        21        22        23   
                  -0.58992  -0.54187  -0.50811  -0.50011  -0.47763  -0.45260
                   2.00000   2.00000   2.00000   2.00000   2.00000   2.00000
                  --------  --------  --------  --------  --------  --------
 0 C  s               3.2       4.2       0.0       0.1       0.3       1.2
 0 C  pz              0.0       4.0       3.0       5.3       0.0       5.7
 0 C  px              1.8       0.0       0.3       1.1       3.2       6.6
 0 C  py              4.2       1.6       3.1       0.2       0.1       0.1
 0 C  dz2             0.0       0.0       0.0       0.0       0.0       0.1
 0 C  dxz             0.1       0.0       0.0       0.0       0.0       0.3
 0 C  dx2y2           0.1       0.0       0.0       0.0       0.0       0.1
 1 C  s               7.4       1.9       0.2       1.4       0.3       0.9
 1 C  pz              0.3       2.2       2.8      10.3       0.1       0.6
 1 C  px              0.6       0.0       4.0       6.6       0.2       1.0
 1 C  py              0.4       0.1       1.2       0.9       6.7       4.4
 2 H  s               3.2       0.2       0.3       7.6       0.0       2.1
 3 C  s               0.1       1.3       0.1       0.4       0.5       0.3
 3 C  pz              0.1       0.6       0.4       0.4      10.6       2.3
 3 C  px              5.5       0.6       1.0       3.7       0.2       4.8
 3 C  py              2.3       1.8       8.3       0.1       2.3       2.3
 3 C  dz2             0.0       0.0       0.1       0.0       0.1       0.0
 3 C  dyz             0.0       0.0       0.0       0.0       0.2       0.0
 4 H  s               0.1       1.3       0.7       0.0       0.8       0.9
 5 C  s               7.7       1.7       0.1       0.1       0.0       0.0
 5 C  pz              0.1       0.6       2.1       4.1       1.6       0.7
 5 C  px              0.1       0.1       3.0       3.2       2.4       7.8
 5 C  py              3.4       0.0       4.8       0.5       3.3       3.3
 5 C  dz2             0.0       0.0       0.1       0.1       0.0       0.0
 5 C  dx2y2           0.0       0.0       0.0       0.0       0.2       0.0
 6 H  s               4.2       0.5       1.5       0.3       0.0       0.1
 7 C  s               3.7       2.2       0.0       0.1       0.5       0.1
 7 C  pz              0.4       6.9       0.0       1.6       3.8       0.0
 7 C  px              0.0       3.1       6.2       0.3       4.5       0.5
 7 C  py              4.1       0.0       0.7       1.4       1.0      13.0
 7 C  dyz             0.1       0.0       0.0       0.0       0.0       0.1
 7 C  dx2y2           0.0       0.1       0.0       0.1       0.1       0.0
 8 H  s               1.3       4.4       0.0       0.8       0.6       0.1
 9 O  s               0.0       1.3       1.2       0.2       0.4       0.3
 9 O  pz              0.0       2.4       0.3       0.2       0.8       0.8
 9 O  px             10.8       0.5       0.1       4.2       1.3      16.3
 9 O  py              3.2       0.5       2.8       0.2       3.7       1.8
10 O  s               0.7       0.0       0.1       0.3       1.1       0.1
10 O  pz              3.1      10.2       7.5       1.3       7.7       0.2
10 O  px              2.4       1.9       3.1       0.0       0.1       0.0
10 O  py              0.3       0.0       0.0       0.1       0.2       4.3
11 O  s               0.8       0.7       0.3       0.2       0.0       0.0
11 O  pz              4.5       4.2       2.3       5.5       0.9       0.4
11 O  px              0.6       0.8       1.7       4.0       0.4       1.2
11 O  py              2.3       0.6       3.8       3.9       3.4       1.4
12 O  s               0.0       0.1       0.9       0.0       0.3       0.0
12 O  pz              0.2       7.1       3.1       0.0      17.7       0.6
12 O  px              0.2       0.6       0.9       0.9       1.1       1.5
12 O  py              0.2       0.5       3.1       0.1       3.0       0.2
13 O  s               0.9       0.1       0.0       0.6       0.8       0.6
13 O  pz              5.0       8.5       8.4       3.0       0.1       0.0
13 O  px              0.8       1.8       0.4       9.2       0.0       0.9
13 O  py              0.4       1.8       3.4       4.0       3.1       1.8
14 H  s               0.7       4.4       1.1       1.9       0.1       5.3
15 H  s               1.7       1.8       0.9       0.0       0.6       1.2
16 H  s               1.6       3.1       3.0       0.2       1.8       0.0
17 H  s               2.2       1.5       1.9       4.2       0.7       0.1
18 H  s               0.1       2.1       1.8       0.0       6.2       0.3
19 H  s               1.9       3.5       3.0       4.0       0.1       0.4

                     24        25        26        27        28        29   
                  -0.44244  -0.42481  -0.41255  -0.37879  -0.37540  -0.36371
                   2.00000   2.00000   2.00000   2.00000   2.00000   2.00000
                  --------  --------  --------  --------  --------  --------
 0 C  s               0.6       0.1       0.4       0.0       0.3       0.1
 0 C  pz              2.6       0.6       2.9      16.2       0.0       4.8
 0 C  px              2.8       2.8       0.0       2.5       0.4       4.7
 0 C  py              0.5       6.8       8.4       0.1      15.1       1.0
 0 C  dz2             0.0       0.0       0.1       0.3       0.0       0.0
 0 C  dx2y2           0.2       0.0       0.0       0.0       0.0       0.3
 0 C  dxy             0.0       0.0       0.1       0.0       0.0       0.0
 1 C  s               0.1       0.3       0.5       0.0       0.2       0.0
 1 C  pz              0.8       0.5       4.8       1.8       0.8       0.2
 1 C  px              4.0      13.6       0.6       0.6       0.8       8.5
 1 C  py              0.0       0.0       3.5       4.0       2.5       0.5
 1 C  dz2             0.1       0.0       0.0       0.4       0.0       0.1
 1 C  dyz             0.0       0.0       0.0       0.0       0.2       0.0
 1 C  dx2y2           0.1       0.0       0.1       0.0       0.0       0.4
 1 C  dxy             0.0       0.0       0.0       0.1       0.3       0.0
 2 H  s               0.8       7.1       0.4       1.2       0.0       3.3
 3 C  s               0.2       0.1       0.1       0.0       0.5       0.4
 3 C  pz              0.6       1.2       6.7       1.2       4.4       0.1
 3 C  px              0.1       2.5       7.4       0.1       1.0       6.2
 3 C  py              0.7       1.2       3.6       2.1       7.6       0.8
 3 C  dz2             0.0       0.1       0.0       0.0       0.2       0.0
 3 C  dyz             0.0       0.1       0.0       0.0       0.1       0.1
 3 C  dx2y2           0.0       0.2       0.0       0.0       0.1       0.1
 3 C  dxy             0.0       0.0       0.1       0.1       0.0       0.0
 4 H  s               0.0       0.4       7.6       1.5       6.3       0.9
 5 C  s               0.0       1.1       0.1       0.1       0.1       0.6
 5 C  pz              1.0       9.0       0.6       2.0       1.1       0.4
 5 C  px              0.7       0.2       0.7       3.9       2.9       5.8
 5 C  py              4.0       1.8       7.6       1.9       4.5       2.4
 5 C  dz2             0.1       0.3       0.0       0.2       0.3       0.0
 5 C  dxz             0.0       0.0       0.1       0.0       0.1       0.0
 5 C  dxy             0.1       0.0       0.2       0.0       0.0       0.1
 6 H  s               1.7       3.1       2.3       4.4       5.4       2.6
 7 C  s               0.2       0.0       1.5       0.7       0.1       0.4
 7 C  pz             19.5       0.4       0.2       6.0       1.2       2.1
 7 C  px              3.1       0.0       1.4       1.6       0.2       0.2
 7 C  py              0.0       0.2       2.0       0.0       0.2       0.1
 7 C  dz2             0.1       0.0       0.1       0.2       0.1       0.2
 7 C  dxz             0.0       0.0       0.0       0.1       0.0       0.0
 7 C  dx2y2           0.1       0.2       0.0       0.0       0.0       0.3
 7 C  dxy             0.1       0.0       0.0       0.0       0.1       0.0
 8 H  s               8.9       0.1       0.4       5.1       1.2       2.8
 9 O  s               0.0       1.7       0.7       0.3       0.1       0.1
 9 O  pz             10.2       2.5       0.9       0.6       0.0       1.9
 9 O  px              0.1       1.8       0.0       1.1       1.6       3.3
 9 O  py              0.0       3.4       0.1       2.6       6.3       0.4
10 O  s               0.5       0.1       1.2       0.6       0.0       1.1
10 O  pz              3.5       0.5       4.4       0.1       0.2       3.5
10 O  px             11.9       0.0       0.3       5.6       0.6       0.1
10 O  py              0.1       0.0       1.3       0.3       0.7       0.0
10 O  dz2             0.2       0.0       0.0       0.0       0.0       0.0
11 O  s               1.5       0.2       0.5       0.0       0.0       1.4
11 O  pz              2.2       9.1       1.1       3.6       4.9       4.8
11 O  px              0.4       2.8       0.1       0.8       0.0       6.5
11 O  py              1.4       3.7       1.9       0.4       0.0       3.1
12 O  s               0.1       0.4       0.9       0.6       1.2       0.5
12 O  pz              0.6       2.2       4.3       0.9       6.1       0.3
12 O  px              0.1       2.8       1.8       0.2       0.6       0.6
12 O  py              0.1       0.0       2.5       3.3       9.8       3.4
13 O  s               0.0       1.0       0.4       0.3       0.0       0.1
13 O  pz              5.1       0.3       4.2       2.8       1.5       4.3
13 O  px              0.1       3.4       0.5       3.6       0.2       4.1
13 O  py              0.5       0.4       1.2       0.2       0.0       0.0
14 H  s               0.3       0.4       2.6       9.3       0.1       1.8
15 H  s               2.5       3.5       2.3       1.9       6.1       5.0
16 H  s               3.2       0.1       1.0       0.2       0.1       1.5
17 H  s               0.0       3.7       0.0       0.5       0.9       0.5
18 H  s               0.1       0.9       0.3       0.0       0.1       0.5
19 H  s               0.9       0.3       0.3       1.1       0.3       0.0

                     30        31        32        33        34        35   
                  -0.33600  -0.33025  -0.30067  -0.29024  -0.28601  -0.26492
                   2.00000   2.00000   2.00000   2.00000   2.00000   2.00000
                  --------  --------  --------  --------  --------  --------
 0 C  s               0.9       0.0       0.0       0.1       0.2       0.0
 0 C  pz              1.7       0.0       0.1       1.0       2.0       0.5
 0 C  px              0.2       1.2       0.2       1.5       0.1       0.4
 0 C  py              0.0       0.4       0.8       5.7       0.0       0.1
 0 C  dz2             0.0       0.0       0.0       0.2       0.0       0.1
 0 C  dxy             0.1       0.0       0.3       0.3       0.1       0.0
 1 C  s               0.2       0.4       0.7       0.1       0.0       0.4
 1 C  pz              3.8       0.2       0.4       0.0       0.1       0.3
 1 C  px              0.8       1.8       0.3       0.7       0.2       0.3
 1 C  py              0.2       0.8       0.3       2.9       0.3       0.5
 1 C  dxz             0.3       0.0       0.0       0.0       0.0       0.0
 1 C  dyz             0.2       0.1       0.0       0.2       0.0       0.0
 1 C  dxy             0.1       0.0       0.0       0.1       0.1       0.0
 2 H  s               2.8       0.3       0.2       0.8       0.0       0.0
 3 C  s               0.0       1.6       0.1       0.0       0.4       0.4
 3 C  pz              0.2       0.3       0.0       0.1       1.2       0.4
 3 C  px              1.9       0.1       1.9       0.0       1.8       0.0
 3 C  py              0.0       3.1       0.7       3.6       2.2       0.3
 3 C  dz2             0.0       0.0       0.0       0.0       0.2       0.2
 3 C  dxz             0.1       0.1       0.0       0.2       0.0       0.2
 3 C  dyz             0.1       0.5       0.2       0.0       0.1       0.0
 3 C  dx2y2           0.0       0.0       0.0       0.2       0.0       0.0
 4 H  s               0.3       5.5       2.0       2.1       0.5       0.1
 5 C  s               0.5       1.2       0.0       0.5       0.1       0.1
 5 C  pz              0.3       0.1       0.2       0.9       1.9       0.2
 5 C  px              0.2       0.6       1.9       0.9       2.6       0.6
 5 C  py              0.0       0.6       0.4       0.6       4.1       0.1
 5 C  dz2             0.0       0.0       0.0       0.1       0.0       0.0
 5 C  dxz             0.1       0.1       0.0       0.0       0.2       0.4
 5 C  dyz             0.0       0.1       0.0       0.1       0.3       0.4
 5 C  dxy             0.0       0.3       0.0       0.1       0.1       0.0
 6 H  s               0.3       4.0       0.3       0.5       3.8       0.3
 7 C  s               0.1       0.2       0.1       0.5       0.0       0.2
 7 C  pz              0.4       0.5       2.0       1.4       0.2       0.1
 7 C  px              0.1       0.6       3.4       0.5       0.1       0.0
 7 C  py              0.4       0.2       0.2       1.1       2.3       1.7
 7 C  dz2             0.0       0.0       0.5       0.3       0.1       0.0
 7 C  dxz             0.0       0.2       0.4       0.1       0.1       0.0
 7 C  dx2y2           0.1       0.1       0.0       0.1       0.0       0.1
 7 C  dxy             0.0       0.0       0.0       0.0       0.1       0.4
 8 H  s               0.2       0.0       3.3       2.9       0.4       0.1
 9 O  s               0.9       0.2       0.1       3.3       1.3       0.8
 9 O  pz              0.0       0.3       0.5      14.3       2.7       6.9
 9 O  px              0.5       2.2       0.1       1.9       1.4       0.1
 9 O  py              5.3       0.3      10.4       8.4       5.3       0.7
10 O  s               0.0       1.3       6.0       0.0       0.4       0.0
10 O  pz              0.0       1.9      16.7       0.2       1.9       0.2
10 O  px              1.5       8.5      23.9       3.2       2.7       0.2
10 O  py              0.1       2.2       0.3       1.7       1.0      22.0
11 O  s               2.4       1.5       0.1       0.2       3.4       0.0
11 O  pz              4.3       1.4       0.5       3.6       8.2       0.7
11 O  px              3.4       5.0       2.0       1.6       9.9      22.5
11 O  py              3.2       1.5       0.4       5.0       6.7      21.0
12 O  s               0.0       4.1       1.2       0.8       1.7       0.0
12 O  pz              0.8       0.3       0.1       1.4       2.4       0.4
12 O  px              5.1       8.6       0.0      11.8       0.6       6.3
12 O  py              0.5      10.6       9.2       0.1      14.7       5.5
13 O  s               6.2       1.2       0.0       0.4       0.4       0.1
13 O  pz             12.6       0.3       0.3       0.6       0.1       0.7
13 O  px              5.3       3.8       0.6       0.2       1.3       0.2
13 O  py             25.3      14.1       0.7       4.0       3.1       0.9
14 H  s               0.7       0.0       0.3       1.8       1.0       1.0
15 H  s               0.8       0.6       1.0       3.5       0.2       0.1
16 H  s               0.0       0.3       3.2       0.3       0.3       0.3
17 H  s               1.3       1.0       0.0       0.0       2.1       0.0
18 H  s               0.1       2.5       0.8       0.6       0.8       0.0
19 H  s               2.6       0.4       0.1       0.4       0.2       0.0

                     36        37        38        39        40        41   
                  -0.26218  -0.24571  -0.21886  -0.20827   0.00354   0.00698
                   2.00000   2.00000   2.00000   2.00000   0.00000   0.00000
                  --------  --------  --------  --------  --------  --------
 0 C  s               0.1       0.0       0.0       0.1       2.7       0.2
 0 C  pz              0.0       0.7       0.6       0.1       3.9       0.2
 0 C  px              0.1       0.8       0.2       0.1       0.9       0.8
 0 C  py              1.9       0.0       1.0       0.3       0.1       0.1
 0 C  dz2             0.0       0.4       0.2       0.1       0.0       0.2
 0 C  dxz             0.0       0.3       0.1       0.1       0.1       0.1
 0 C  dyz             0.0       0.0       0.0       0.0       0.1       0.1
 0 C  dx2y2           0.0       0.0       0.1       0.0       0.1       0.0
 0 C  dxy             0.1       0.0       0.4       0.1       0.0       0.0
 1 C  s               0.2       0.4       0.0       0.4       0.4       0.5
 1 C  pz              0.6       0.1       0.4       0.1       0.1       4.3
 1 C  px              2.1       1.9       0.5       1.4       0.7       0.8
 1 C  py              1.7       0.3       9.0       0.0       0.0       0.4
 1 C  dz2             0.0       0.1       0.1       0.0       0.0       0.6
 1 C  dxz             0.9       0.1       0.2       0.1       0.0       0.2
 1 C  dyz             0.0       0.0       0.1       0.0       0.2       0.1
 1 C  dx2y2           0.1       0.0       0.0       0.1       0.1       0.1
 2 H  s               5.6       1.3       0.7       1.6       1.9       5.2
 3 C  s               0.2       0.4       0.1       0.3       0.3       0.8
 3 C  pz              0.2       0.1       0.1       0.2       2.3       0.7
 3 C  px              0.1       0.0       2.3       6.1       0.0       0.5
 3 C  py              0.1       0.6       3.6       0.0       0.1       2.0
 3 C  dz2             0.0       0.0       0.0       0.0       0.5       0.5
 3 C  dxz             0.3       0.0       0.1       0.3       0.0       0.0
 3 C  dyz             0.1       0.0       0.2       0.0       0.0       0.1
 3 C  dx2y2           0.0       0.0       0.0       0.2       0.0       0.0
 3 C  dxy             0.1       0.0       0.4       0.0       0.1       0.1
 4 H  s               0.2       0.1       1.4       1.1       1.0       4.4
 5 C  s               0.4       0.1       0.9       0.0       0.2       0.0
 5 C  pz              0.1       0.2       1.0       0.3       0.1       0.7
 5 C  px              0.0       0.2       0.3       6.4       0.1       0.1
 5 C  py              0.2       0.3       2.7       4.2       0.2       0.3
 5 C  dz2             0.0       0.0       0.0       0.0       0.0       0.1
 5 C  dxz             0.0       0.0       0.0       0.5       0.1       0.0
 5 C  dyz             0.0       0.1       0.0       0.3       0.1       0.0
 5 C  dx2y2           0.0       0.1       0.0       0.1       0.1       0.0
 5 C  dxy             0.0       0.0       0.2       0.0       0.0       0.2
 6 H  s               0.4       0.2       2.1       0.0       0.6       0.4
 7 C  s               0.1       0.3       0.1       0.4       2.0       0.0
 7 C  pz              0.3       0.0       0.5       1.6       4.1       0.1
 7 C  px              0.2       0.3       0.2       0.7       0.9       0.1
 7 C  py              0.1       0.8       0.9       3.3       0.3       0.4
 7 C  dz2             0.0       0.3       0.3       0.1       0.0       0.0
 7 C  dxz             0.0       0.0       0.0       0.0       0.2       0.0
 7 C  dyz             0.0       0.2       0.2       0.1       0.0       0.1
 7 C  dx2y2           0.0       0.0       0.1       0.4       0.1       0.0
 7 C  dxy             0.2       1.2       0.2       0.2       0.0       0.0
 8 H  s               0.3       1.4       1.8       1.5       9.3       0.0
 9 O  s               0.1       0.2       0.0       0.0       0.4       0.4
 9 O  pz              0.9      21.6      13.1       4.9       0.3       0.0
 9 O  px              0.2       5.5       1.0       1.1       0.3       0.1
 9 O  py              2.6       0.7       8.6       6.6       0.2       0.1
[...]
11 O  dz2             0.0       0.1       0.7       0.2       1.4       0.0
11 O  dxz             0.2      13.2       6.9       4.8       0.4       0.4
11 O  dyz             2.7       4.7       1.7       3.6       1.3       0.0
11 O  dx2y2           1.0       0.3       1.1       0.1       0.2       0.0
11 O  dxy             3.5       0.4       9.4       0.0       0.0       0.0
12 O  s               0.4       0.0       0.0       0.0       0.0       1.0
12 O  pz              0.1       0.1       0.0       0.0       0.0       1.7
12 O  px              0.1       0.0       0.2       0.0       0.0       0.0
12 O  py              0.1       0.0       0.1       0.0       0.0       0.0
12 O  dz2             2.5       0.3       0.3       0.3       0.3      18.9
12 O  dxz             2.6       7.8      14.2       1.8       0.1       1.5
12 O  dyz            10.0       3.3       3.3       0.1       0.1       4.0
12 O  dx2y2           0.5       0.9       1.0       0.2       0.0       0.0
12 O  dxy             7.2       0.3       1.7       0.1       0.0       0.0
13 O  s               0.0       0.4       0.1       0.0       0.0       2.6
13 O  pz              0.0       0.0       0.0       0.0       0.0       2.8
13 O  px              0.1       0.0       0.3       0.0       0.0       0.2
13 O  py              0.0       0.1       0.0       0.0       0.0       0.2
13 O  dz2             0.4       0.1       0.0       0.0       0.2      38.9
13 O  dxz             0.9       4.1       0.1       0.1       0.3       1.9
13 O  dyz             1.0       1.4      10.8       1.0       0.2       1.1
13 O  dx2y2           0.6       0.3       0.2       0.0       0.0       0.2
13 O  dxy             1.4       2.1       5.8       0.9       0.1       0.2
16 H  s               1.4       2.1       0.2       0.0       0.7       0.0
17 H  s               0.7       0.1       1.7       0.0       0.0       0.0
18 H  s               2.0       0.8       0.0       0.0       0.0       0.3
19 H  s               0.1       0.5       0.9       0.2       0.0       0.5

                    156       157       158       159   
                   3.30543   3.31339   3.35285   3.41762
                   0.00000   0.00000   0.00000   0.00000
                  --------  --------  --------  --------
 0 C  s               0.1       0.2       0.2       1.2
 0 C  pz              0.0       0.1       0.0       0.2
 0 C  px              0.3       0.1       0.4       1.6
 0 C  dz2             0.0       0.0       0.1       0.4
 0 C  dxz             0.4       0.1       0.8       0.9
 0 C  dx2y2           0.5       0.1       0.8       2.3
 0 C  dxy             0.0       0.2       0.3       0.1
 1 C  s               0.0       0.5       0.1       0.0
 1 C  pz              0.0       1.3       0.3       0.0
 1 C  px              0.0       0.1       0.0       0.1
 1 C  dz2             0.1       3.6       1.1       0.0
 1 C  dyz             0.0       0.1       0.1       0.0
 3 C  s               0.2       1.0       0.7       0.0
 3 C  pz              0.1       1.2       1.2       0.0
 3 C  py              0.0       0.1       0.2       0.0
 3 C  dz2             0.7       3.4       2.8       0.1
 3 C  dxz             0.7       0.4       0.0       0.1
 3 C  dyz             0.1       0.4       0.5       0.0
 5 C  s               1.4       0.1       0.7       0.0
 5 C  pz              2.6       0.0       1.3       0.0
 5 C  py              0.0       0.0       0.2       0.1
 5 C  dz2             8.3       0.2       3.9       0.0
 5 C  dxz             0.5       0.1       0.1       0.1
 5 C  dyz             0.2       0.1       0.0       0.0
 7 C  s               0.8       1.1       1.0       0.1
 7 C  pz              0.1       0.1       0.1       0.0
 7 C  px              0.4       0.9       0.4       3.0
 7 C  py              0.4       0.0       0.1       0.7
 7 C  dz2             0.6       0.8       0.4       0.1
 7 C  dxz             0.4       0.6       0.2       2.3
 7 C  dyz             0.3       0.0       0.2       0.1
 7 C  dx2y2           1.6       2.3       3.0       1.8
 7 C  dxy             0.2       0.1       0.2       6.6
 9 O  s               0.1       0.2       0.1       0.0
 9 O  px              0.4       0.1       0.2       4.4
 9 O  py              0.1       0.0       0.2       1.0
 9 O  dz2             0.2       0.6       0.3       0.3
 9 O  dxz             1.7       0.4       1.6      11.9
 9 O  dyz             0.9       0.4       0.3       1.8
 9 O  dx2y2           4.1       3.9      10.2      17.6
 9 O  dxy             0.8       0.0       0.2      18.2
10 O  s               0.6       1.5       0.9       1.4
10 O  pz              0.3       0.4       0.3       0.2
10 O  px              0.5       1.0       0.6       1.0
10 O  dz2             1.9       2.9       1.3       2.8
10 O  dxz             4.0       5.5       3.5       3.5
10 O  dyz             0.4       0.3       0.3       0.0
10 O  dx2y2           5.0       8.3       3.9      11.7
10 O  dxy             0.9       4.0       4.5       0.1
11 O  s               2.9       0.1       1.9       0.0
11 O  pz              2.9       0.1       1.3       0.0
11 O  py              0.2       0.0       0.1       0.0
11 O  dz2            44.1       1.7      17.7       0.1
11 O  dxz             0.2       0.3       1.1       0.1
11 O  dyz             0.1       0.2       0.0       0.0
11 O  dxy             0.1       0.2       0.2       0.0
12 O  s               0.1       1.9       1.9       0.1
12 O  pz              0.3       1.4       1.3       0.1
12 O  dz2             2.6      13.2      10.7       0.4
12 O  dxz             0.3       0.0       0.9       0.0
12 O  dyz             1.2       7.6       5.3       0.3
12 O  dx2y2           0.0       0.3       0.1       0.0
12 O  dxy             0.2       0.0       0.1       0.0
13 O  s               0.0       1.7       0.4       0.1
13 O  pz              0.0       1.3       0.4       0.0
13 O  px              0.0       0.2       0.0       0.0
13 O  dz2             0.2      14.4       3.1       0.1
13 O  dxz             0.1       2.8       0.7       0.1
13 O  dyz             0.1       1.6       1.2       0.0
13 O  dxy             0.0       0.2       0.2       0.0
16 H  s               0.2       0.2       0.1       0.1
17 H  s               0.4       0.1       0.3       0.0
18 H  s               0.0       0.2       0.1       0.0
19 H  s               0.0       0.2       0.1       0.0


                      *****************************
                      * MAYER POPULATION ANALYSIS *
                      *****************************

  NA   - Mulliken gross atomic population
  ZA   - Total nuclear charge
  QA   - Mulliken gross atomic charge
  VA   - Mayer's total valence
  BVA  - Mayer's bonded valence
  FA   - Mayer's free valence

  ATOM       NA         ZA         QA         VA         BVA        FA
  0 C      5.9482     6.0000     0.0518     3.9999     3.9999     0.0000
  1 C      6.0138     6.0000    -0.0138     4.0277     4.0277    -0.0000
  2 H      0.9203     1.0000     0.0797     0.9616     0.9616    -0.0000
  3 C      5.9621     6.0000     0.0379     3.9926     3.9926     0.0000
  4 H      0.9292     1.0000     0.0708     0.9716     0.9716    -0.0000
  5 C      5.9446     6.0000     0.0554     3.9283     3.9283    -0.0000
  6 H      0.9141     1.0000     0.0859     0.9686     0.9686    -0.0000
  7 C      5.8670     6.0000     0.1330     4.1924     4.1924     0.0000
  8 H      0.9598     1.0000     0.0402     0.9769     0.9769     0.0000
  9 O      8.2952     8.0000    -0.2952     2.1481     2.1481    -0.0000
 10 O      8.3671     8.0000    -0.3671     2.0831     2.0831     0.0000
 11 O      8.4382     8.0000    -0.4382     2.0239     2.0239    -0.0000
 12 O      8.4091     8.0000    -0.4091     2.0221     2.0221    -0.0000
 13 O      8.4155     8.0000    -0.4155     2.0282     2.0282    -0.0000
 14 H      0.9365     1.0000     0.0635     0.9698     0.9698    -0.0000
 15 H      0.8905     1.0000     0.1095     0.9683     0.9683    -0.0000
 16 H      0.6979     1.0000     0.3021     0.9146     0.9146     0.0000
 17 H      0.7004     1.0000     0.2996     0.9448     0.9448     0.0000
 18 H      0.7007     1.0000     0.2993     0.8992     0.8992     0.0000
 19 H      0.6899     1.0000     0.3101     0.8815     0.8815     0.0000

  Mayer bond orders larger than 0.100000
B(  0-C ,  1-C ) :   1.0524 B(  0-C ,  9-O ) :   1.0406 B(  0-C , 14-H ) :   0.8990 
B(  0-C , 15-H ) :   0.9162 B(  1-C ,  2-H ) :   0.8951 B(  1-C ,  3-C ) :   0.9700 
B(  1-C , 13-O ) :   1.0182 B(  3-C ,  4-H ) :   0.8996 B(  3-C ,  5-C ) :   0.9657 
B(  3-C , 12-O ) :   1.0491 B(  5-C ,  6-H ) :   0.8924 B(  5-C ,  7-C ) :   0.9693 
B(  5-C , 11-O ) :   1.0222 B(  7-C ,  8-H ) :   0.8882 B(  7-C ,  9-O ) :   0.9877 
B(  7-C , 10-O ) :   1.1925 B( 10-O , 16-H ) :   0.8234 B( 11-O , 17-H ) :   0.8038 
B( 12-O , 18-H ) :   0.8405 B( 13-O , 19-H ) :   0.8404 

-------
TIMINGS
-------

Total SCF time: 0 days 0 hours 0 min 2 sec 

Total time                  ....       2.023 sec
Sum of individual times     ....       2.005 sec  ( 99.1%)

SCF preparation             ....       0.041 sec  (  2.0%)
Fock matrix formation       ....       1.845 sec  ( 91.2%)
  Startup                   ....       0.002 sec  (  0.1% of F)
  Split-RI-J                ....       0.923 sec  ( 50.0% of F)
  XC integration            ....       0.914 sec  ( 49.6% of F)
    Basis function eval.    ....       0.369 sec  ( 40.4% of XC)
    Density eval.           ....       0.223 sec  ( 24.3% of XC)
    XC-Functional eval.     ....       0.058 sec  (  6.3% of XC)
    XC-Potential eval.      ....       0.233 sec  ( 25.5% of XC)
Diagonalization             ....       0.000 sec  (  0.0%)
Density matrix formation    ....       0.003 sec  (  0.2%)
Total Energy calculation    ....       0.000 sec  (  0.0%)
Population analysis         ....       0.095 sec  (  4.7%)
Orbital Transformation      ....       0.005 sec  (  0.2%)
Orbital Orthonormalization  ....       0.000 sec  (  0.0%)
DIIS solution               ....       0.005 sec  (  0.2%)
  MO trafo                  ....       0.000 sec  (  0.0 % of DIIS)
  Orb grad                  ....       0.000 sec  (  0.0 % of DIIS)
  Energy W gradient         ....       0.000 sec  (  0.0 % of DIIS)
  DIIS error                ....       0.001 sec  ( 12.2 % of DIIS)
  DIIS work                 ....       0.004 sec  ( 86.5 % of DIIS)
  Form Q                    ....       0.000 sec  (  0.0 % of DIIS)
  Form QpQm                 ....       0.000 sec  (  0.0 % of DIIS)
  Exp/Cayley                ....       0.000 sec  (  0.0 % of DIIS)
  Orb update                ....       0.000 sec  (  0.0 % of DIIS)
  Wake-sleep                ....       0.000 sec  (  1.3 % of DIIS)
SOSCF solution              ....       0.012 sec  (  0.6%)
  MO trafo                  ....       0.006 sec  ( 52.9 % of SOSCF)
  Orb grad                  ....       0.000 sec  (  0.7 % of SOSCF)
  Rot update                ....       0.000 sec  (  2.1 % of SOSCF)
  Step                      ....       0.005 sec  ( 42.9 % of SOSCF)
Finished LeanSCF after   2.0 sec

Maximum memory used throughout the entire LEANSCF-calculation: 15.5 MB


-------------------------------------------------------------------------------
                          DFT DISPERSION CORRECTION                            
                                                                               
                                DFTD4 V3.4.0                                   
-------------------------------------------------------------------------------
The PBE functional is recognized
Active option DFTDOPT                   ...         5   

-------------------------   ----------------
Dispersion correction           -0.019968686
-------------------------   ----------------

------------------   -----------------
gCP correction             0.130469464
------------------   -----------------

-------------------------   --------------------
FINAL SINGLE POINT ENERGY      -571.417240715037
-------------------------   --------------------


------------------------------------------------------------------------------
                              ORCA PROPERTY CALCULATIONS
------------------------------------------------------------------------------

GBWName                                 ... sp.gbw
Number of atoms                         ...     20
Number of basis functions               ...    160
Max core memory                         ...   1024 MB

Electric properties:
Dipole moment                           ... YES
Quadrupole moment                       ...  NO
Static polarizability (Dipole/Dipole)   ...  NO
Static polarizability (Dipole/Quad.)    ...  NO
Static polarizability (Quad./Quad.)     ...  NO
Static polarizability (Velocity)        ...  NO

Atomic electric properties:
Dipole moment                           ...  NO
Quadrupole moment                       ...  NO
Static polarizability                   ...  NO

Choice of electric origin               ... Center of mass
Position of electric origin             ...     0.000010    -0.000001    -0.000008

General magnetic properties:
Magnetizability                         ...  NO

EPR properties:
g-Tensor (aka g-matrix)                 ...  NO
Zero-Field splitting spin-orbit         ...  NO
Zero-field splitting spin-spin          ...  NO
Hyperfine couplings                     ...  NO (   0 nuclei)
Quadrupole couplings                    ...  NO (   0 nuclei)
Contact density                         ...  NO (   0 nuclei)

NMR properties:
Chemical shifts                         ...  NO (   0 nuclei)
Spin-rotation constants                 ...  NO (   0 nuclei)
Spin-spin couplings                     ...  NO (   0 nuclei,    0 pairs)

Choice of magnetic origin               ... GIAO
Position of magnetic origin             ...     0.000000     0.000000     0.000000

Properties with geometric perturbations:
SCF Hessian                             ...  NO
IR spectrum                             ...  NO
VCD spectrum                            ...  NO
X-ray spectroscopy properties:
SCF XES/XAS/RIXS spectra                ...  NO


-------------
DIPOLE MOMENT
-------------

Method             : SCF
Type of density    : Electron Density
Multiplicity       :   1
Irrep              :   0
Energy             :  -571.5277414926979418 Eh
Relativity type    : 
Basis              : AO
                                X                 Y                 Z
Electronic contribution:     -2.076007848       0.354996446       1.526310731
Nuclear contribution   :      3.061040046      -0.428435847      -1.664117488
                        -----------------------------------------
Total Dipole Moment    :      0.985032199      -0.073439400      -0.137806757
                        -----------------------------------------
Magnitude (a.u.)       :      0.997332683
Magnitude (Debye)      :      2.535018219



--------------------
Rotational spectrum 
--------------------
 
Rotational constants in cm-1:             0.058632             0.040762             0.037977 
Rotational constants in MHz :          1757.756524          1222.003720          1138.512174 

Dipole components along the rotational axes: 
x,y,z [a.u.] :     0.985697     0.073178    -0.133115 
x,y,z [Debye]:     2.505442     0.186004    -0.338352 

 

Dipole moment calculation done in   0.0 sec 

Maximum memory used throughout the entire PROP-calculation: 10.2 MB

--------------------------------
SUGGESTED CITATIONS FOR THIS RUN
--------------------------------

Below you find a list of papers that are relevant to this ORCA run
We neither can nor want to force you to cite these papers, but we appreciate if you do
You receive ORCA, which is the product of decades of hard work by many enthusiastic individuals, for free
The only thing we kindly ask in return is that you cite our papers,
We deeply appreciate it, if you show your appreciation for ORCA by not just citing the generic ORCA reference.

Please note that relegating all ORCA citations to the supporting information does *not* help us.
SI sections are not indexed - citations you put there will not count into any citation statistics
But we need these citations in order to attract the funding resources that allow us to do what we are doing

Therefore, if you are a happy ORCA user, please consider citing a few of the papers listed below in the main body of your paper

In addition to the list printed below, the program has created the file sp.bibtex that contains the list in bibtex format
You can import this file easily into all common literature databanks and citation aid programs


List of essential papers. We consider these as the minimum necessary citations

  1. Neese,F.
     Software update: the ORCA program system, version 5.0
     WIRES Comput. Molec. Sci., 2022 12(1)e1606
     doi.org/10.1002/wcms.1606

List of papers to cite with high priority. The work reported in these papers was absolutely
necessary for this run to complete.
Our perspective: the developers of density functionals and basis sets usually get cited in chemistry papers
Good! But without the algorithms to do something with them, the functionals or basis sets would not do anything.
Hence, in our opinion, the algorithm design and method developments papers are equally worthy of getting cited

  1. Neese,F.
     An improvement of the resolution of the identity approximation for the formation of the Coulomb matrix
     J. Comp. Chem., 2003 24(14)1740-1747
     doi.org/10.1002/jcc.10318
  2. Neese,F.
     The SHARK Integral Generation and Digestion System
     J. Comp. Chem., 2022  1-16
     doi.org/10.1002/jcc.26942
  3. Caldeweyher,E.; Bannwarth,C.; Grimme,S.
     Extension of the D3 dispersion coefficient model
     J. Chem. Phys., 2017 147 034112
     doi.org/10.1063/1.4993215
  4. Caldeweyher,E.; Ehlert,S.; Hansen,A.; Neugebauer,H.; Spicher,S.; Bannwarth,C.; Grimme,S.
     A generally applicable atomic-charge dependent London dispersion correction
     J. Chem. Phys., 2019 150 154122
     doi.org/10.1063/1.5090222
  5. Caldeweyher,E.; Mewes,J.; Ehlert,S.; Grimme,S.
     Extension and evaluation of the D4 London-dispersion model for periodic systems
     Phys. Chem. Chem. Phys., 2020 22(16)8499-8512
     doi.org/10.1039/D0CP00502A
  6. Wittmann,L.; Gordiy,I.; Friede,M.; Helmich-Paris,B.; Grimme,S.; Hansen,A.; Bursch,M.
     Extension of the D3 and D4 London Dispersion Corrections to the full Actinides Series
     Phys. Chem. Chem. Phys., 2024 26(32)21379-21394
     doi.org/https://doi.org/10.1039/D4CP01514B 

List of suggested additional citations. These are papers that are important in the 'surrounding' of 
of this run, or papers that preceded the highly important papers. If you like your results we are grateful for a citation.

  1. Neese,F.
     The ORCA program system
     WIRES Comput. Molec. Sci., 2012 2(1)73-78
     doi.org/10.1002/wcms.81
  2. Neese,F.
     Software update: the ORCA program system, version 4.0
     WIRES Comput. Molec. Sci., 2018 8(1)1-6
     doi.org/10.1002/wcms.1327
  3. Neese,F.; Wennmohs,F.; Becker,U.; Riplinger,C.
     The ORCA quantum chemistry program package
     J. Chem. Phys., 2020 152 Art. No. L224108
     doi.org/10.1063/5.0004608

List of optional additional citations

  1. Neese,F.
     Approximate second-order SCF convergence for spin unrestricted wavefunctions
     Chem. Phys. Lett., 2000 325(1-3)93-98
     doi.org/10.1016/s0009-2614(00)00662-x

Timings for individual modules:

Sum of individual times          ...        2.681 sec (=   0.045 min)
Startup calculation              ...        0.496 sec (=   0.008 min)  18.5 %
SCF iterations                   ...        2.123 sec (=   0.035 min)  79.2 %
Property calculations            ...        0.062 sec (=   0.001 min)   2.3 %
                             ****ORCA TERMINATED NORMALLY****
TOTAL RUN TIME: 0 days 0 hours 0 minutes 2 seconds 816 msec
