3
 energy: -4.256057941380 gnorm: 0.013226137431 xtb: 6.7.1 (41059b4)
S            0.00000000361185       -0.06161448278553       -0.00000000000235
H           -0.97025887368122        0.86785477796261       -0.00000000175428
H            0.97025977045290        0.86785385132306        0.00000000040252
3
 energy: -4.256232958360 gnorm: 0.006400900666 xtb: 6.7.1 (41059b4)
S            0.00000000593283       -0.06007725108137       -0.00000000000346
H           -0.95947851938130        0.86708615772204       -0.00000000174174
H            0.95947941383201        0.86708523985947        0.00000000039109
3
 energy: -4.256277093871 gnorm: 0.000996672093 xtb: 6.7.1 (41059b4)
S            0.00000001030597       -0.05270712198437       -0.00000000000880
H           -0.95865479069183        0.86340109318557       -0.00000000173816
H            0.95865568076940        0.86340017529894        0.00000000039285
3
 energy: -4.256278211039 gnorm: 0.000517938501 xtb: 6.7.1 (41059b4)
S            0.00000000715806       -0.05539210132009       -0.00000000000686
H           -0.95651610085740        0.86474358093979       -0.00000000173675
H            0.95651699408287        0.86474266688044        0.00000000038950
3
 energy: -4.256278827436 gnorm: 0.000046816439 xtb: 6.7.1 (41059b4)
S            0.00000000762166       -0.05437214491408       -0.00000000000760
H           -0.95754047735056        0.86423360321422       -0.00000000173752
H            0.95754137011243        0.86423268819999        0.00000000039101
3
 energy: -4.256278829792 gnorm: 0.000034801647 xtb: 6.7.1 (41059b4)
S            0.00000000758016       -0.05437519273252       -0.00000000000760
H           -0.95739275530553        0.86423512703372       -0.00000000173736
H            0.95739364810890        0.86423421219893        0.00000000039084
