18
 energy: -25.473695413069 gnorm: 0.015927752014 xtb: 6.7.1 (41059b4)
C           -2.42537232989024       -0.70580592749577        0.00000024441613
C           -2.42537174482841        0.70580962288874       -0.00000376555698
C           -1.23964132243206        1.39917788439364       -0.00000221286831
C            0.00000030046364        0.71542984199365        0.00000003923297
C            1.23964237781191        1.39917672579304       -0.00000468005453
C            2.42537238728587        0.70580750282664       -0.00000136134000
C            2.42537193119400       -0.70580789607154        0.00000821397149
C            1.23964133989445       -1.39917626045216        0.00001131730295
C           -0.00000023834280       -0.71542819498596        0.00000543264401
C           -1.23964245967659       -1.39917527078595        0.00000439057943
H           -3.36920962158827       -1.24163305064244       -0.00000560015146
H           -3.36920859773106        1.24163744575923       -0.00000348626568
H           -1.23673281088775        2.48563259740802       -0.00000216514620
H            1.23673535750882        2.48563143856167       -0.00001200847192
H            3.36920938804220        1.24163508174335       -0.00000797333368
H            3.36920860224893       -1.24163609115475        0.00001262353221
H            1.23673319135205       -2.48563108209629        0.00001952096013
H           -1.23673521126705       -2.48563009809186        0.00000445480282
18
 energy: -25.474366524595 gnorm: 0.003141539179 xtb: 6.7.1 (41059b4)
C           -2.41612191832048       -0.70224193256472       -0.00000110071622
C           -2.41612136043973        0.70224555589421       -0.00000247343573
C           -1.23556712487784        1.39245989831288       -0.00000243252535
C            0.00000031235681        0.71123561090174       -0.00000042741318
C            1.23556823951706        1.39245880064292       -0.00000443207502
C            2.41612200590277        0.70224347644222       -0.00000138138001
C            2.41612146572747       -0.70224390860259        0.00000770086532
C            1.23556712764046       -1.39245826806730        0.00001068982685
C           -0.00000024557563       -0.71123400189568        0.00000505203186
C           -1.23556824191926       -1.39245727454681        0.00000358348000
H           -3.35774832551849       -1.23392811686055       -0.00000233833045
H           -3.35774735178473        1.23393246011730       -0.00000476295914
H           -1.23243131867744        2.47462190473447       -0.00000501035086
H            1.23243368454054        2.47462081223815       -0.00001014853343
H            3.35774826182374        1.23392991734678       -0.00000531455467
H            3.35774732057254       -1.23393106282592        0.00001209131416
H            1.23243152979803       -2.47462029537180        0.00001685989140
H           -1.23243352160819       -2.47461930630406        0.00000682911787
18
 energy: -25.474384743794 gnorm: 0.001131477751 xtb: 6.7.1 (41059b4)
C           -2.41445297861491       -0.70178012932574        0.00000045213008
C           -2.41445241144139        0.70178373263792       -0.00000342633438
C           -1.23474524557310        1.39158852205808       -0.00000398834017
C            0.00000032107689        0.71016427127330       -0.00000089901592
C            1.23474640817616        1.39158746021952       -0.00000364576477
C            2.41445305865352        0.70178168365312       -0.00000022512317
C            2.41445248898571       -0.70178211791820        0.00000720835748
C            1.23474526765266       -1.39158690883484        0.00000949123564
C           -0.00000025420745       -0.71016267968503        0.00000465113605
C           -1.23474637977369       -1.39158590209613        0.00000479630878
H           -3.35585737215036       -1.23199219774508       -0.00000079258773
H           -3.35585638160604        1.23199655125166       -0.00000543144259
H           -1.23071057105690        2.47273167573431       -0.00000632760873
H            1.23071281899415        2.47273061953048       -0.00000921167768
H            3.35585737543262        1.23199388851826       -0.00000358997993
H            3.35585638032767       -1.23199507654438        0.00001114956650
H            1.23071070489928       -2.47273006319187        0.00001535320866
H           -1.23071269061717       -2.47272905994413        0.00000742018528
18
 energy: -25.474385969176 gnorm: 0.000344291971 xtb: 6.7.1 (41059b4)
C           -2.41425613475837       -0.70189164666663        0.00000059490105
C           -2.41425555391848        0.70189524477147       -0.00000336591674
C           -1.23468323979907        1.39182378311434       -0.00000441740277
C            0.00000032602933        0.70987868441034       -0.00000117803740
C            1.23468444041197        1.39182274485731       -0.00000343541095
C            2.41425620099654        0.70189321999261        0.00000021691982
C            2.41425561933409       -0.70189364796061        0.00000690985346
C            1.23468328579112       -1.39182218871427        0.00000880675572
C           -0.00000026181342       -0.70987709956885        0.00000427259025
C           -1.23468439398145       -1.39182116818771        0.00000469476138
H           -3.35594262222484       -1.23136460455473        0.00000136121934
H           -3.35594160578414        1.23136897817465       -0.00000634769277
H           -1.22994231834215        2.47279878529768       -0.00000846394749
H            1.22994447888819        2.47279775174502       -0.00000787983132
H            3.35594266257092        1.23136622541469       -0.00000153181776
H            3.35594164388084       -1.23136742998209        0.00001035217569
H            1.22994240438674       -2.47279718981585        0.00001342646043
H           -1.22994439251019       -2.47279617273609        0.00000896867345
18
 energy: -25.474386112365 gnorm: 0.000060041029 xtb: 6.7.1 (41059b4)
C           -2.41425648439896       -0.70196921828657        0.00000186169491
C           -2.41425589893235        0.70197281536071       -0.00000420999598
C           -1.23476180809160        1.39197346931908       -0.00000559772851
C            0.00000032648338        0.70984889023684       -0.00000148047572
C            1.23476302548329        1.39197243994708       -0.00000274822062
C            2.41425654451868        0.70197080224086        0.00000111550343
C            2.41425595963078       -0.70197122734030        0.00000648612719
C            1.23476186590873       -1.39197188317619        0.00000796116237
C           -0.00000026535140       -0.70984730506106        0.00000411130559
C           -1.23476296868297       -1.39197085542364        0.00000575260401
H           -3.35618265954388       -1.23118191386442        0.00000207712423
H           -3.35618163288527        1.23118629600940       -0.00000674907367
H           -1.22978352309959        2.47300489865799       -0.00000888457136
H            1.22978564617279        2.47300387334075       -0.00000756273073
H            3.35618271612218        1.23118350418138       -0.00000071503693
H            3.35618169033364       -1.23118471421952        0.00000981463169
H            1.22978358733903       -2.47300331299820        0.00001275207846
H           -1.22978558184883       -2.47300228933294        0.00000899985504
18
 energy: -25.474386118066 gnorm: 0.000019267932 xtb: 6.7.1 (41059b4)
C           -2.41422508603531       -0.70196026304195        0.00000106557479
C           -2.41422450094997        0.70196385966847       -0.00000359867709
C           -1.23475130335695        1.39194174156408       -0.00000497715680
C            0.00000032598741        0.70983715251608       -0.00000139429401
C            1.23475252230231        1.39194071291341       -0.00000314332732
C            2.41422514600104        0.70196184801768        0.00000069309163
C            2.41422456097492       -0.70196227336606        0.00000667807023
C            1.23475136252443       -1.39194015592352        0.00000822621286
C           -0.00000026564210       -0.70983556695007        0.00000403720649
C           -1.23475246343642       -1.39193912761308        0.00000497887422
H           -3.35615386922365       -1.23114262364515        0.00000269771357
H           -3.35615284322364        1.23114700509498       -0.00000699925983
H           -1.22975836659786        2.47296088898044       -0.00000974422525
H            1.22976048697057        2.47295986445749       -0.00000703327256
H            3.35615392836921        1.23114421014862       -0.00000018903471
H            3.35615290203425       -1.23114542101045        0.00000969345396
H            1.22975842773107       -2.47295930317898        0.00001216415858
H           -1.22976042527169       -2.47295827904072        0.00000982914463
