14
 energy: -307.632681751764 gnorm: 0.005653413026 xtb: 6.7.1 (41059b4)
C           -2.24931320399357        0.25804025382237       -0.62887787673789
C           -1.30057961869390        0.54582026928980        0.54327184493652
C            0.01971767987035       -0.15130918867803        0.32754876437831
O            0.22070628138482       -1.33160855680209        0.50852483552800
O            0.95724982604459        0.70710686662977       -0.14135593782435
C            2.24687075855309        0.12639006763450       -0.40984600022082
H           -3.22126703604718        0.72681748220690       -0.45187334379622
H           -1.84559313959854        0.65421333704979       -1.56487659202699
H           -2.40040188092140       -0.81807307403668       -0.74470657285533
H           -1.72702673364189        0.15448280065392        1.47127653721976
H           -1.13881088255066        1.62100394549186        0.65121667019036
H            2.77509504719503       -0.05524179886330        0.52601855452317
H            2.78237337453732        0.85972935029964       -1.00900878018875
H            2.14622921615591       -0.81571010152800       -0.95121763199039
14
 energy: -307.632742404586 gnorm: 0.001908969784 xtb: 6.7.1 (41059b4)
C           -2.24849027658417        0.25625527888561       -0.62913721185169
C           -1.30110445293385        0.54701552391017        0.54321816414879
C            0.02047488646409       -0.14814222045057        0.33134032341478
O            0.22234772733715       -1.32644479051276        0.51503794796495
O            0.95777625990856        0.70966845389510       -0.14111431908066
C            2.24720581477044        0.12540591299561       -0.41226234563855
H           -3.22102640714532        0.72397318534374       -0.45399042915140
H           -1.84358838538871        0.65195230001356       -1.56500739558789
H           -2.39802362800716       -0.82041922381310       -0.74358323203146
H           -1.72784597306239        0.15592062529577        1.47120447805925
H           -1.14238393287655        1.62280174662422        0.65059689979068
H            2.77352662458987       -0.06853289425626        0.52611905447947
H            2.78735968675961        0.86426435313394       -1.00402131057336
H            2.13902197965703       -0.81205671634508       -0.96230802323684
14
 energy: -307.632806689120 gnorm: 0.006600328692 xtb: 6.7.1 (41059b4)
C           -2.24383047273565        0.24951271781807       -0.62976025378511
C           -1.30291821604486        0.55294066118227        0.54455405974176
C            0.02175610022998       -0.13738559039382        0.34082173063208
O            0.22931317082069       -1.31019932976835        0.54024018792911
O            0.95796357580373        0.71930941373298       -0.14153282114235
C            2.24522745213375        0.12199115800727       -0.41986733906435
H           -3.21900023290799        0.71327283227803       -0.46152409487091
H           -1.83643693317438        0.64165971522029       -1.56636505841629
H           -2.38758778577662       -0.82895182232105       -0.73820575533869
H           -1.73013608878221        0.16392723591261        1.47332325441488
H           -1.15331715815614        1.63073031781895        0.64750408678198
H            2.76074858812147       -0.11890013317421        0.52125927624368
H            2.80371064213471        0.87810458263741       -0.97872730807835
H            2.11975810778816       -0.79435087880726       -1.00563443395276
14
 energy: -307.632848948847 gnorm: 0.005129346642 xtb: 6.7.1 (41059b4)
C           -2.24208111511080        0.24845172850846       -0.62996671435074
C           -1.30317843875340        0.55411842733924        0.54549306905104
C            0.02274153535122       -0.13501148965614        0.34560993012509
O            0.23121745717327       -1.30777647053222        0.54669335586375
O            0.95721061671523        0.72030386600460       -0.14254929767378
C            2.24340834914879        0.12128797935783       -0.42175502687905
H           -3.21827548901137        0.71119478267361       -0.46423362404365
H           -1.83362976187526        0.63965556247935       -1.56643682791949
H           -2.38431989789051       -0.83026196007334       -0.73716583667061
H           -1.73175152843299        0.16586227096593        1.47392000971549
H           -1.15455914163390        1.63212484212581        0.64705274286547
H            2.75473946807227       -0.12876310653264        0.51750620141209
H            2.80544750957119        0.87943991059632       -0.97234558634121
H            2.11828140674432       -0.78896551099217       -1.01573859254300
14
 energy: -307.632978301126 gnorm: 0.002526630244 xtb: 6.7.1 (41059b4)
C           -2.23208469302896        0.24136375034650       -0.63002994172706
C           -1.30427451936531        0.56161439283187        0.55095339644536
C            0.02449664798353       -0.12438196390895        0.35951801435079
O            0.24251148861662       -1.29304435601260        0.58609108510874
O            0.95152986029176        0.72429432824733       -0.15282265218335
C            2.23325427380178        0.11810803516239       -0.43102289551239
H           -3.21300835118462        0.69944312361386       -0.47668557709807
H           -1.81844300950451        0.62677727696410       -1.56639245018684
H           -2.36659603069368       -0.83882279376195       -0.72943201711782
H           -1.73790582561268        0.17945292600093        1.47941158176380
H           -1.15961840248909        1.64091712215253        0.64269158122434
H            2.71690200580502       -0.18844077149917        0.50053406215670
H            2.81808612717735        0.89081158142723       -0.93089330204183
H            2.11040246873788       -0.75643263139982       -1.07584662708749
14
 energy: -307.633004840504 gnorm: 0.002993321258 xtb: 6.7.1 (41059b4)
C           -2.22644082233009        0.23631684938728       -0.63002314712522
C           -1.30484319099653        0.56651064912919        0.55348851241049
C            0.02600407461532       -0.11729875007019        0.37035836016889
O            0.24854334978438       -1.28213451241035        0.61110069868047
O            0.94794103002946        0.72576987447954       -0.15951844561889
C            2.22747855540267        0.11666824713270       -0.43790594879897
H           -3.20964377353436        0.69195471842380       -0.48445173697539
H           -1.80909298753956        0.61703425653326       -1.56668629721927
H           -2.35676729222093       -0.84507374602580       -0.72294890549852
H           -1.74123694512623        0.18885175768025        1.48231126980751
H           -1.16282912314732        1.64681246275266        0.63870879251716
H            2.69281578490370       -0.23043487857603        0.49049588866459
H            2.82841814394582        0.90095371253243       -0.90253830320728
H            2.10490596341104       -0.73427124880441       -1.11632282138578
14
 energy: -307.633019004955 gnorm: 0.000747188240 xtb: 6.7.1 (41059b4)
C           -2.22563047793773        0.23568982399277       -0.62961029458116
C           -1.30469555606582        0.56701920167301        0.55386585593930
C            0.02535557886498       -0.11778685073479        0.37047126980729
O            0.24883908995436       -1.28047124708363        0.61709607788075
O            0.94563729934710        0.72262659904553       -0.16415214360429
C            2.22608480573833        0.11716173655146       -0.43922867584712
H           -3.20837687483846        0.69192457709006       -0.48515580529371
H           -1.80702097642885        0.61504988498391       -1.56625432351942
H           -2.35644354728027       -0.84576169555541       -0.72096365658515
H           -1.74131977320561        0.19103623151063        1.48311171042310
H           -1.16157329177078        1.64729421315797        0.63738814746857
H            2.68542533165028       -0.23690586762924        0.48709375795178
H            2.82996019893097        0.90234621084929       -0.89453090288064
H            2.10901102865300       -0.72756365827994       -1.12306396999923
14
 energy: -307.633022464672 gnorm: 0.000569232078 xtb: 6.7.1 (41059b4)
C           -2.22575497755699        0.23455043999764       -0.62927549808431
C           -1.30453091983309        0.56798125764095        0.55324868504290
C            0.02576630206990       -0.11710104646459        0.37210583940206
O            0.25045359040931       -1.27810991451039        0.62474727862526
O            0.94483127719962        0.72180241517930       -0.16688535480561
C            2.22569112671852        0.11661806458967       -0.44060889545820
H           -3.20823412956970        0.69167314265884       -0.48626111947977
H           -1.80670888878535        0.61132808180152       -1.56676714980263
H           -2.35727840853656       -0.84705718616787       -0.71815109136775
H           -1.74100348446001        0.19387186341212        1.48332961466119
H           -1.16197215057532        1.64853348720761        0.63473169641502
H            2.67997195333906       -0.24809181761942        0.48452304911532
H            2.83306033969857        0.90608015101064       -0.88383213328476
H            2.11096136293082       -0.72042008544167       -1.13483923458782
14
 energy: -307.633022464672 gnorm: 0.000569232078 xtb: 6.7.1 (41059b4)
C           -2.22575497755699        0.23455043999764       -0.62927549808431
C           -1.30453091983309        0.56798125764095        0.55324868504290
C            0.02576630206990       -0.11710104646459        0.37210583940206
O            0.25045359040931       -1.27810991451039        0.62474727862526
O            0.94483127719962        0.72180241517930       -0.16688535480561
C            2.22569112671852        0.11661806458967       -0.44060889545820
H           -3.20823412956970        0.69167314265884       -0.48626111947977
H           -1.80670888878535        0.61132808180152       -1.56676714980263
H           -2.35727840853656       -0.84705718616787       -0.71815109136775
H           -1.74100348446001        0.19387186341212        1.48332961466119
H           -1.16197215057532        1.64853348720761        0.63473169641502
H            2.67997195333906       -0.24809181761942        0.48452304911532
H            2.83306033969857        0.90608015101064       -0.88383213328476
H            2.11096136293082       -0.72042008544167       -1.13483923458782
