 Entering Gaussian System
 *********************************************
 Gaussian 98:
 frequency output generated by the xtb code
 *********************************************
                         Standard orientation:
 --------------------------------------------------------------------
  Center     Atomic     Atomic              Coordinates (Angstroms)
  Number     Number      Type              X           Y           Z
 --------------------------------------------------------------------
    1          6             0        1.738186   -0.319050    0.219699
    2          6             0        0.566804    0.588132   -0.155738
    3          6             0       -0.678514   -0.206680   -0.388047
    4          6             0       -1.804035   -0.052666    0.282574
    5          1             0        2.641099    0.267755    0.371981
    6          1             0        1.927143   -1.044539   -0.568676
    7          1             0        1.517597   -0.859605    1.137504
    8          1             0        0.818507    1.131589   -1.071519
    9          1             0        0.397016    1.319423    0.636698
   10          1             0       -0.604403   -0.959918   -1.162476
   11          1             0       -2.676343   -0.652077    0.083907
   12          1             0       -1.903118    0.687717    1.059902
 --------------------------------------------------------------------
     1 basis functions        1 primitive gaussians
     1 alpha electrons        1 beta electrons

 Harmonic frequencies (cm**-1), IR intensities (km*mol⁻¹),
 Raman scattering activities (A**4/amu), Raman depolarization ratios,
 reduced masses (AMU), force constants (mDyne/A) and normal coordinates:
                      1                      2                      3
                        a                      a                      a 
 Frequencies --    81.4956               213.9688               312.5189
 Red. masses --     2.2599                 1.0728                 1.8641
 Frc consts  --     0.0000                 0.0000                 0.0000
 IR Inten    --     0.0910                 0.0418                 0.6013
 Raman Activ --     0.0000                 0.0000                 0.0000
 Depolar     --     0.0000                 0.0000                 0.0000
 Atom AN      X      Y      Z        X      Y      Z        X      Y      Z
   1   6    -0.25  -0.07   0.27     0.04  -0.02  -0.04    -0.36  -0.18  -0.12
   2   6     0.05   0.10  -0.28     0.02   0.03   0.17     0.08   0.39  -0.05
   3   6    -0.04   0.25  -0.32     0.01   0.09   0.01     0.26   0.08   0.24
   4   6     0.26  -0.25   0.28    -0.08  -0.09  -0.10     0.06  -0.16  -0.06
   5   1    -0.04  -0.07   0.08     0.15  -0.08  -0.55     0.00  -0.22   0.01
   6   1    -0.07  -0.11   0.16    -0.37  -0.33   0.20    -0.22  -0.05  -0.07
   7   1    -0.18   0.08   0.11     0.26   0.37   0.27    -0.22  -0.06  -0.07
   8   1     0.11  -0.06  -0.10    -0.01   0.03   0.06     0.03   0.07  -0.04
   9   1     0.00   0.09  -0.14     0.02  -0.01   0.07     0.07   0.14  -0.03
  10   1    -0.09   0.20  -0.23     0.02   0.08  -0.05     0.22  -0.15   0.25
  11   1     0.06  -0.05   0.09    -0.01  -0.02  -0.11     0.15  -0.26   0.05
  12   1     0.16  -0.21   0.22    -0.06  -0.09   0.02    -0.18   0.10  -0.19
                      4                      5                      6
                        a                      a                      a 
 Frequencies --   429.6493               636.7900               824.5622
 Red. masses --     2.0772                 1.5864                 1.1649
 Frc consts  --     0.0000                 0.0000                 0.0000
 IR Inten    --     0.2246                 1.4205                 8.9697
 Raman Activ --     0.0000                 0.0000                 0.0000
 Depolar     --     0.0000                 0.0000                 0.0000
 Atom AN      X      Y      Z        X      Y      Z        X      Y      Z
   1   6     0.26  -0.05   0.02     0.19  -0.09   0.06    -0.05  -0.01   0.11
   2   6     0.25  -0.03  -0.17     0.03  -0.09   0.00    -0.13  -0.02   0.29
   3   6    -0.13   0.32   0.29    -0.26   0.34  -0.36    -0.02   0.08  -0.13
   4   6    -0.41  -0.17  -0.02    -0.06  -0.10   0.14     0.07  -0.06  -0.02
   5   1     0.04   0.02   0.08    -0.00   0.08  -0.02    -0.01   0.04  -0.17
   6   1     0.16   0.01   0.00     0.12  -0.04   0.05    -0.20   0.23  -0.24
   7   1     0.03  -0.04  -0.02     0.12   0.00   0.05     0.34  -0.26  -0.05
   8   1     0.06  -0.20  -0.17     0.14   0.11   0.12     0.17  -0.44  -0.13
   9   1     0.21   0.15  -0.17    -0.01  -0.14   0.10    -0.05   0.36  -0.27
  10   1    -0.06   0.15   0.01     0.02  -0.18   0.18     0.11  -0.00   0.00
  11   1    -0.02  -0.12  -0.23     0.12  -0.33   0.34    -0.02   0.03   0.07
  12   1    -0.32  -0.18   0.09    -0.17   0.28  -0.27     0.10   0.07  -0.08
                      7                      8                      9
                        a                      a                      a 
 Frequencies --   893.8941               900.4502               980.7857
 Red. masses --     1.4974                 1.5620                 1.1832
 Frc consts  --     0.0000                 0.0000                 0.0000
 IR Inten    --     9.4270                 7.1826                 5.6711
 Raman Activ --     0.0000                 0.0000                 0.0000
 Depolar     --     0.0000                 0.0000                 0.0000
 Atom AN      X      Y      Z        X      Y      Z        X      Y      Z
   1   6    -0.20   0.02  -0.07    -0.24  -0.02  -0.05     0.16   0.10   0.16
   2   6    -0.10  -0.24  -0.01    -0.15  -0.28  -0.00     0.01   0.02  -0.12
   3   6     0.09   0.25  -0.04     0.21   0.10   0.16    -0.04  -0.13  -0.10
   4   6     0.29  -0.15   0.27     0.14   0.31  -0.16     0.10   0.18   0.13
   5   1    -0.16   0.18  -0.04    -0.23   0.27  -0.09     0.24  -0.27  -0.01
   6   1     0.09  -0.01   0.03     0.11   0.02   0.01    -0.29   0.12  -0.13
   7   1     0.02   0.05   0.02     0.13   0.00   0.04     0.02  -0.14  -0.06
   8   1    -0.04  -0.04   0.00     0.02  -0.09   0.01     0.12   0.09   0.06
   9   1    -0.00  -0.08   0.02    -0.02  -0.08   0.01    -0.38  -0.05  -0.06
  10   1     0.06  -0.12   0.18    -0.06   0.13  -0.07    -0.32  -0.15   0.06
  11   1    -0.01   0.30  -0.57     0.36  -0.43   0.09     0.20  -0.12  -0.26
  12   1    -0.24   0.14  -0.15    -0.15  -0.18   0.18    -0.35  -0.10   0.12
                     10                     11                     12
                        a                      a                      a 
 Frequencies --  1023.1854              1069.5184              1086.7821
 Red. masses --     1.0753                 1.7805                 2.2464
 Frc consts  --     0.0000                 0.0000                 0.0000
 IR Inten    --    13.3080                 0.8535                 2.7832
 Raman Activ --     0.0000                 0.0000                 0.0000
 Depolar     --     0.0000                 0.0000                 0.0000
 Atom AN      X      Y      Z        X      Y      Z        X      Y      Z
   1   6    -0.05  -0.03   0.00    -0.36   0.16   0.03    -0.12   0.44  -0.15
   2   6     0.05   0.03  -0.03     0.48  -0.04  -0.12     0.28  -0.44   0.26
   3   6    -0.07   0.12  -0.13    -0.01  -0.17   0.07    -0.06   0.11  -0.12
   4   6    -0.09   0.07  -0.10    -0.15  -0.08   0.03     0.00   0.01  -0.03
   5   1    -0.05   0.07  -0.03    -0.16   0.18  -0.14     0.14  -0.19   0.10
   6   1     0.04   0.01  -0.00    -0.10   0.16  -0.11    -0.23   0.04  -0.02
   7   1     0.06  -0.01   0.02     0.15  -0.05   0.00    -0.36   0.15  -0.09
   8   1     0.12   0.05   0.05     0.49   0.13   0.16    -0.12  -0.21  -0.04
   9   1    -0.00  -0.01   0.01     0.07  -0.14   0.08     0.17  -0.02   0.00
  10   1     0.22  -0.47   0.48    -0.18   0.02  -0.07     0.02  -0.06   0.06
  11   1    -0.06   0.07  -0.02    -0.13   0.09   0.05     0.05  -0.09   0.08
  12   1     0.21  -0.41   0.42    -0.01   0.06  -0.06     0.02  -0.02   0.02
                     13                     14                     15
                        a                      a                      a 
 Frequencies --  1180.9406              1243.3089              1281.9899
 Red. masses --     2.0570                 1.2043                 1.2227
 Frc consts  --     0.0000                 0.0000                 0.0000
 IR Inten    --     0.8709                 0.6806                 2.5726
 Raman Activ --     0.0000                 0.0000                 0.0000
 Depolar     --     0.0000                 0.0000                 0.0000
 Atom AN      X      Y      Z        X      Y      Z        X      Y      Z
   1   6    -0.04  -0.08  -0.19    -0.09   0.01   0.31     0.04   0.10   0.02
   2   6     0.11   0.30   0.33     0.11   0.04  -0.15    -0.18  -0.08  -0.14
   3   6    -0.19  -0.37  -0.28    -0.10  -0.08  -0.11    -0.10  -0.18  -0.07
   4   6     0.07   0.15   0.12     0.05   0.05   0.02    -0.07   0.17   0.20
   5   1    -0.10   0.10   0.05     0.01   0.01  -0.12     0.09  -0.10   0.01
   6   1     0.21  -0.12   0.10    -0.14   0.19  -0.13    -0.05   0.00   0.00
   7   1    -0.05   0.13   0.04     0.24  -0.20   0.02    -0.02  -0.03  -0.04
   8   1     0.10  -0.13  -0.02    -0.54   0.13  -0.12     0.32   0.01   0.09
   9   1     0.30   0.25  -0.02     0.52  -0.09   0.16     0.17  -0.07   0.06
  10   1    -0.17  -0.13  -0.06     0.02  -0.04  -0.01     0.73   0.18  -0.16
  11   1     0.12  -0.08  -0.13     0.07  -0.05  -0.06     0.04  -0.02  -0.08
  12   1    -0.24  -0.04   0.06    -0.04  -0.01   0.02    -0.19  -0.01   0.08
                     16                     17                     18
                        a                      a                      a 
 Frequencies --  1325.4401              1410.1666              1419.4059
 Red. masses --     1.3718                 1.2106                 1.1439
 Frc consts  --     0.0000                 0.0000                 0.0000
 IR Inten    --     0.0394                 0.5120                 1.7605
 Raman Activ --     0.0000                 0.0000                 0.0000
 Depolar     --     0.0000                 0.0000                 0.0000
 Atom AN      X      Y      Z        X      Y      Z        X      Y      Z
   1   6    -0.10  -0.12  -0.02     0.33  -0.24   0.11    -0.06   0.01  -0.03
   2   6     0.46  -0.00   0.09    -0.03  -0.01  -0.01     0.15  -0.01   0.02
   3   6    -0.02  -0.06  -0.12    -0.03  -0.02   0.01    -0.27  -0.03   0.09
   4   6    -0.09   0.08   0.11    -0.01   0.01   0.02    -0.11   0.03   0.08
   5   1    -0.12   0.13  -0.05    -0.25   0.44  -0.11     0.01  -0.04   0.01
   6   1     0.06   0.02  -0.03    -0.40   0.18  -0.27     0.07  -0.01   0.03
   7   1     0.02   0.04   0.04    -0.47   0.21   0.02     0.06  -0.00   0.01
   8   1    -0.40   0.06  -0.09     0.04   0.05   0.04    -0.02   0.10   0.04
   9   1    -0.52   0.05  -0.16     0.06   0.04  -0.03    -0.13   0.07  -0.09
  10   1     0.34   0.08  -0.09     0.02   0.00  -0.00     0.09   0.04  -0.01
  11   1    -0.06   0.03   0.11     0.04  -0.04  -0.07     0.33  -0.32  -0.46
  12   1    -0.22  -0.03   0.06     0.07   0.02  -0.01     0.59   0.18  -0.09
                     19                     20                     21
                        a                      a                      a 
 Frequencies --  1479.6300              1501.4580              1505.8651
 Red. masses --     1.0997                 1.0547                 1.0603
 Frc consts  --     0.0000                 0.0000                 0.0000
 IR Inten    --     0.3590                 2.4584                 2.1300
 Raman Activ --     0.0000                 0.0000                 0.0000
 Depolar     --     0.0000                 0.0000                 0.0000
 Atom AN      X      Y      Z        X      Y      Z        X      Y      Z
   1   6     0.01  -0.03   0.00     0.08   0.02  -0.20     0.10   0.18   0.06
   2   6     0.06   0.29  -0.02     0.03   0.02  -0.04     0.05   0.07   0.02
   3   6    -0.04  -0.00  -0.01    -0.01  -0.00  -0.00    -0.01  -0.01  -0.01
   4   6    -0.03   0.01   0.02    -0.01   0.00   0.01    -0.01   0.00   0.01
   5   1     0.00   0.00  -0.01    -0.20   0.15   0.65    -0.11   0.25  -0.25
   6   1     0.01   0.07  -0.06    -0.51  -0.24   0.08    -0.12  -0.41   0.36
   7   1    -0.03   0.08   0.04     0.38  -0.01   0.07    -0.19  -0.55  -0.38
   8   1     0.05  -0.56  -0.33    -0.03  -0.01  -0.03    -0.02  -0.05  -0.04
   9   1    -0.16  -0.49   0.43     0.00  -0.04   0.02    -0.05  -0.04   0.04
  10   1     0.03  -0.01   0.01     0.02   0.00  -0.00    -0.00  -0.01  -0.00
  11   1     0.04  -0.04  -0.06     0.00  -0.00  -0.01     0.01  -0.01  -0.02
  12   1     0.08   0.02  -0.00     0.00   0.00   0.00     0.02   0.01  -0.00
                     22                     23                     24
                        a                      a                      a 
 Frequencies --  1722.5599              2947.3969              2985.7584
 Red. masses --     6.7063                 1.0779                 1.0653
 Frc consts  --     0.0000                 0.0000                 0.0000
 IR Inten    --    12.4099                40.5961                27.0356
 Raman Activ --     0.0000                 0.0000                 0.0000
 Depolar     --     0.0000                 0.0000                 0.0000
 Atom AN      X      Y      Z        X      Y      Z        X      Y      Z
   1   6    -0.01  -0.00   0.00     0.01   0.00  -0.01     0.01   0.02   0.03
   2   6    -0.09  -0.03   0.02    -0.06  -0.10   0.24     0.03  -0.18  -0.15
   3   6     0.65  -0.01  -0.31    -0.01  -0.01   0.00    -0.00   0.01   0.01
   4   6    -0.55   0.07   0.32     0.00  -0.00  -0.00     0.00   0.01   0.00
   5   1     0.00  -0.01   0.00    -0.02  -0.01  -0.01    -0.04  -0.03  -0.00
   6   1     0.00   0.00  -0.00    -0.00   0.02   0.02     0.02  -0.08  -0.09
   7   1     0.01   0.00   0.00    -0.01  -0.04   0.06     0.00   0.01  -0.01
   8   1    -0.05  -0.02  -0.02     0.22   0.47  -0.80     0.04   0.04  -0.14
   9   1     0.06   0.01  -0.00     0.01  -0.10  -0.06    -0.15   0.62   0.70
  10   1    -0.08  -0.09  -0.05    -0.00   0.02   0.02     0.00  -0.05  -0.05
  11   1    -0.03  -0.11  -0.09     0.00   0.00  -0.00    -0.00  -0.00  -0.00
  12   1     0.11   0.11   0.05     0.00   0.00   0.00    -0.00  -0.01  -0.01
                     25                     26                     27
                        a                      a                      a 
 Frequencies --  3031.5843              3033.5202              3038.6921
 Red. masses --     1.0922                 1.0923                 1.0318
 Frc consts  --     0.0000                 0.0000                 0.0000
 IR Inten    --    34.8407                45.5959                25.5493
 Raman Activ --     0.0000                 0.0000                 0.0000
 Depolar     --     0.0000                 0.0000                 0.0000
 Atom AN      X      Y      Z        X      Y      Z        X      Y      Z
   1   6    -0.03  -0.17  -0.22    -0.20  -0.16   0.14    -0.09   0.08  -0.10
   2   6     0.01  -0.02  -0.03    -0.01  -0.01   0.02    -0.00   0.01  -0.01
   3   6    -0.00   0.03   0.03    -0.00   0.01   0.00     0.00  -0.01  -0.01
   4   6     0.00   0.00   0.00     0.00  -0.00  -0.00     0.00   0.00   0.00
   5   1     0.30   0.18   0.02     0.59   0.40   0.12     0.43   0.30   0.06
   6   1    -0.15   0.56   0.61    -0.00  -0.13  -0.10     0.06  -0.26  -0.31
   7   1    -0.06  -0.14   0.16     0.11   0.29  -0.52    -0.17  -0.35   0.61
   8   1    -0.00  -0.01   0.01     0.02   0.03  -0.05    -0.01  -0.01   0.03
   9   1    -0.02   0.08   0.09    -0.00  -0.00   0.00    -0.00   0.00  -0.00
  10   1     0.01  -0.10  -0.11     0.00  -0.02  -0.02    -0.00   0.04   0.04
  11   1     0.01   0.00   0.00     0.00   0.00   0.00    -0.00  -0.00  -0.00
  12   1    -0.00  -0.00  -0.00    -0.00   0.00   0.00     0.00  -0.00  -0.00
                     28                     29                     30
                        a                      a                      a 
 Frequencies --  3050.6658              3096.4403              3121.7213
 Red. masses --     1.0806                 1.0551                 1.1063
 Frc consts  --     0.0000                 0.0000                 0.0000
 IR Inten    --    57.5924                24.8057                61.4206
 Raman Activ --     0.0000                 0.0000                 0.0000
 Depolar     --     0.0000                 0.0000                 0.0000
 Atom AN      X      Y      Z        X      Y      Z        X      Y      Z
   1   6    -0.00  -0.03  -0.02    -0.00   0.00   0.00    -0.00  -0.00  -0.00
   2   6     0.01  -0.02  -0.02     0.00   0.00   0.00     0.00  -0.00  -0.00
   3   6     0.03  -0.18  -0.19     0.01   0.01  -0.00     0.00  -0.03  -0.03
   4   6     0.01   0.03   0.02    -0.15   0.08   0.14    -0.17  -0.22  -0.14
   5   1     0.03   0.02   0.00    -0.00  -0.00  -0.00     0.00   0.00   0.00
   6   1    -0.03   0.09   0.10     0.00  -0.00  -0.00    -0.00   0.01   0.01
   7   1     0.00   0.01  -0.03     0.00   0.00  -0.00    -0.00  -0.00   0.00
   8   1    -0.00  -0.01   0.01    -0.00   0.00   0.00    -0.00  -0.00   0.00
   9   1    -0.01   0.06   0.06     0.00  -0.01  -0.01    -0.00   0.02   0.02
  10   1    -0.07   0.65   0.67     0.00  -0.02  -0.02    -0.01   0.08   0.08
  11   1    -0.08  -0.05  -0.01     0.41   0.30   0.12     0.66   0.44   0.14
  12   1     0.01  -0.06  -0.06     0.06  -0.57  -0.59    -0.07   0.33   0.36
