 Entering Gaussian System
 *********************************************
 Gaussian 98:
 frequency output generated by the xtb code
 *********************************************
                         Standard orientation:
 --------------------------------------------------------------------
  Center     Atomic     Atomic              Coordinates (Angstroms)
  Number     Number      Type              X           Y           Z
 --------------------------------------------------------------------
    1          6             0       -1.240164   -0.960275    1.255573
    2          6             0       -1.012622   -0.111604    0.000155
    3          6             0       -1.943886    1.099413    0.000885
    4          6             0       -1.240225   -0.958797   -1.256248
    5          6             0        0.433108    0.372609    0.000561
    6          8             0        0.784162    1.522693    0.001499
    7          8             0        1.296451   -0.652913   -0.000498
    8          6             0        2.673147   -0.307200   -0.000261
    9          1             0       -1.062042   -0.370113    2.152064
   10          1             0       -2.267001   -1.318358    1.276738
   11          1             0       -0.570430   -1.816249    1.262652
   12          1             0       -1.766542    1.712931    0.880381
   13          1             0       -2.981090    0.773886    0.000681
   14          1             0       -1.766533    1.714017   -0.877852
   15          1             0       -2.267043   -1.316909   -1.277783
   16          1             0       -1.062193   -0.367572   -2.152053
   17          1             0       -0.570458   -1.814729   -1.264401
   18          1             0        2.917059    0.278570    0.888404
   19          1             0        2.916081    0.283795   -0.885725
   20          1             0        3.223433   -1.244630   -0.003270
 --------------------------------------------------------------------
     1 basis functions        1 primitive gaussians
     1 alpha electrons        1 beta electrons

 Harmonic frequencies (cm**-1), IR intensities (km*mol⁻¹),
 Raman scattering activities (A**4/amu), Raman depolarization ratios,
 reduced masses (AMU), force constants (mDyne/A) and normal coordinates:
                      1                      2                      3
                        a                      a                      a 
 Frequencies --    30.8019                60.7370               126.8446
 Red. masses --     3.5641                 1.1502                 2.5430
 Frc consts  --     0.0000                 0.0000                 0.0000
 IR Inten    --     1.3040                 0.1916                 1.9682
 Raman Activ --     0.0000                 0.0000                 0.0000
 Depolar     --     0.0000                 0.0000                 0.0000
 Atom AN      X      Y      Z        X      Y      Z        X      Y      Z
   1   6    -0.06   0.23   0.11     0.02  -0.03  -0.01     0.31   0.06  -0.01
   2   6     0.00   0.00  -0.04     0.00   0.00   0.01    -0.00   0.00  -0.12
   3   6     0.00   0.00  -0.29    -0.00  -0.00   0.06    -0.00  -0.00   0.06
   4   6     0.06  -0.23   0.11    -0.02   0.03  -0.01    -0.31  -0.06  -0.01
   5   6     0.00  -0.00   0.07    -0.00   0.00  -0.04    -0.00   0.00  -0.22
   6   8    -0.00  -0.00   0.61    -0.00   0.00  -0.30     0.00  -0.00   0.05
   7   8    -0.00   0.00  -0.38    -0.00   0.00   0.15    -0.00   0.00  -0.38
   8   6     0.00   0.00  -0.18     0.00  -0.00   0.11    -0.00  -0.00   0.49
   9   1    -0.03   0.11   0.00     0.01  -0.02   0.00     0.21   0.02  -0.03
  10   1    -0.02   0.06   0.04     0.01  -0.01   0.00     0.08   0.07   0.11
  11   1    -0.01   0.07   0.09     0.01  -0.01  -0.01     0.05  -0.01  -0.07
  12   1     0.01   0.06  -0.12    -0.00  -0.01   0.02     0.07   0.01  -0.01
  13   1     0.00   0.00  -0.06    -0.00  -0.00   0.01    -0.00  -0.00   0.10
  14   1    -0.01  -0.06  -0.12     0.00   0.01   0.02    -0.07  -0.01  -0.01
  15   1     0.02  -0.06   0.04    -0.01   0.01   0.00    -0.08  -0.07   0.11
  16   1     0.03  -0.11   0.00    -0.01   0.02   0.00    -0.21  -0.02  -0.03
  17   1     0.01  -0.07   0.09    -0.01   0.01  -0.01    -0.05   0.01  -0.07
  18   1     0.02  -0.17   0.06     0.11  -0.45   0.30    -0.16  -0.02   0.20
  19   1    -0.02   0.17   0.06    -0.11   0.45   0.30     0.16   0.02   0.20
  20   1    -0.00   0.00  -0.24    -0.00   0.00  -0.50     0.00  -0.00   0.22
                      4                      5                      6
                        a                      a                      a 
 Frequencies --   166.3413               180.3775               217.9562
 Red. masses --     1.0223                 2.8792                 1.1815
 Frc consts  --     0.0000                 0.0000                 0.0000
 IR Inten    --     0.1380                 1.3577                 1.1287
 Raman Activ --     0.0000                 0.0000                 0.0000
 Depolar     --     0.0000                 0.0000                 0.0000
 Atom AN      X      Y      Z        X      Y      Z        X      Y      Z
   1   6    -0.01  -0.05  -0.03    -0.28  -0.06  -0.02     0.02  -0.00  -0.08
   2   6     0.00   0.00   0.00    -0.02  -0.11  -0.00    -0.00   0.00  -0.08
   3   6    -0.00  -0.00   0.07     0.33   0.18   0.00     0.00   0.00  -0.08
   4   6     0.01   0.05  -0.03    -0.28  -0.06   0.02    -0.02   0.00  -0.08
   5   6    -0.00   0.00  -0.01     0.02  -0.23  -0.00     0.00  -0.00   0.07
   6   8     0.00   0.00  -0.03    -0.08  -0.23  -0.00     0.00  -0.00   0.11
   7   8    -0.00   0.00  -0.02     0.23  -0.09   0.00     0.00  -0.00   0.32
   8   6    -0.00  -0.00   0.05     0.09   0.46   0.00     0.00   0.00  -0.12
   9   1    -0.24   0.04  -0.00    -0.03  -0.04   0.00     0.28  -0.08  -0.03
  10   1     0.06  -0.21  -0.14    -0.11   0.07  -0.01    -0.07   0.23   0.13
  11   1     0.16   0.11   0.10    -0.15  -0.08  -0.01    -0.19  -0.15  -0.17
  12   1     0.32   0.23  -0.20     0.16   0.03  -0.00     0.22   0.17  -0.19
  13   1    -0.00  -0.00   0.48     0.07   0.15   0.00     0.00  -0.00   0.30
  14   1    -0.32  -0.23  -0.20     0.15   0.03   0.00    -0.22  -0.17  -0.19
  15   1    -0.06   0.21  -0.14    -0.11   0.07   0.01     0.07  -0.23   0.13
  16   1     0.24  -0.05  -0.00    -0.03  -0.04  -0.00    -0.29   0.08  -0.03
  17   1    -0.16  -0.12   0.10    -0.15  -0.08   0.01     0.19   0.15  -0.17
  18   1    -0.01  -0.00   0.02    -0.05   0.16  -0.00     0.08   0.01  -0.06
  19   1     0.01   0.00   0.02    -0.05   0.16   0.00    -0.08  -0.01  -0.06
  20   1    -0.00  -0.00   0.02     0.14   0.20  -0.00    -0.00   0.00  -0.07
                      7                      8                      9
                        a                      a                      a 
 Frequencies --   234.6296               269.2533               295.7029
 Red. masses --     1.0460                 2.6399                 3.2873
 Frc consts  --     0.0000                 0.0000                 0.0000
 IR Inten    --     0.0777                 4.4960                10.5798
 Raman Activ --     0.0000                 0.0000                 0.0000
 Depolar     --     0.0000                 0.0000                 0.0000
 Atom AN      X      Y      Z        X      Y      Z        X      Y      Z
   1   6    -0.09  -0.01  -0.04     0.40   0.01  -0.09     0.10   0.22   0.14
   2   6    -0.00   0.02   0.00    -0.00   0.00  -0.17    -0.04   0.05   0.00
   3   6     0.05   0.07   0.00     0.00   0.00  -0.21    -0.27  -0.13  -0.00
   4   6    -0.09  -0.01   0.04    -0.40  -0.01  -0.09     0.10   0.22  -0.14
   5   6     0.02  -0.03  -0.00    -0.00  -0.00   0.04     0.00  -0.18  -0.00
   6   8     0.06  -0.04  -0.00    -0.00  -0.00   0.22     0.37  -0.33  -0.00
   7   8     0.05  -0.03  -0.00     0.00  -0.00   0.44    -0.05  -0.29  -0.00
   8   6     0.03   0.02   0.00    -0.00   0.00  -0.10    -0.19   0.30   0.00
   9   1    -0.42   0.09   0.00     0.05   0.05  -0.05     0.04   0.13  -0.00
  10   1     0.08  -0.32  -0.24     0.17  -0.15   0.00     0.04   0.04   0.10
  11   1     0.23   0.20   0.18     0.25   0.10  -0.02     0.05   0.08   0.08
  12   1     0.02   0.02  -0.00    -0.07  -0.03  -0.03    -0.13  -0.02   0.00
  13   1     0.01   0.03  -0.00     0.00   0.00  -0.15    -0.05  -0.12  -0.00
  14   1     0.02   0.02   0.00     0.07   0.03  -0.03    -0.13  -0.02  -0.00
  15   1     0.08  -0.32   0.23    -0.17   0.15   0.00     0.04   0.04  -0.10
  16   1    -0.42   0.09  -0.00    -0.05  -0.05  -0.05     0.04   0.13   0.00
  17   1     0.23   0.20  -0.18    -0.25  -0.10  -0.02     0.05   0.08  -0.08
  18   1     0.00   0.01   0.00     0.10   0.01  -0.07    -0.14   0.13  -0.00
  19   1     0.00   0.01   0.00    -0.10  -0.01  -0.07    -0.14   0.13   0.00
  20   1     0.02   0.01   0.00    -0.00   0.00  -0.08     0.07   0.16  -0.00
                     10                     11                     12
                        a                      a                      a 
 Frequencies --   326.6985               345.1334               375.6074
 Red. masses --     2.8525                 3.1578                 2.4390
 Frc consts  --     0.0000                 0.0000                 0.0000
 IR Inten    --     0.1854                 6.7526                 0.8403
 Raman Activ --     0.0000                 0.0000                 0.0000
 Depolar     --     0.0000                 0.0000                 0.0000
 Atom AN      X      Y      Z        X      Y      Z        X      Y      Z
   1   6    -0.30   0.09  -0.01    -0.05  -0.23  -0.29     0.07  -0.32   0.17
   2   6     0.05   0.02  -0.00     0.01   0.19   0.00     0.00  -0.00   0.35
   3   6    -0.34  -0.26  -0.00    -0.14   0.08  -0.00     0.00   0.00  -0.43
   4   6    -0.30   0.09   0.01    -0.05  -0.23   0.29    -0.07   0.32   0.17
   5   6     0.17   0.03  -0.00     0.05   0.15   0.00     0.00  -0.00   0.13
   6   8     0.16   0.05   0.00     0.55   0.04  -0.00     0.00   0.00  -0.10
   7   8     0.33   0.10   0.00    -0.14   0.01   0.00     0.00   0.00  -0.17
   8   6     0.37  -0.08  -0.00    -0.17   0.14   0.00     0.00  -0.00   0.03
   9   1    -0.10   0.02   0.00    -0.01  -0.21   0.01     0.04  -0.18   0.10
  10   1    -0.11   0.10  -0.06    -0.02  -0.05  -0.15     0.03  -0.11   0.04
  11   1    -0.15  -0.02   0.05    -0.03  -0.08  -0.20     0.03  -0.09  -0.06
  12   1    -0.19  -0.05   0.00    -0.06   0.03   0.00    -0.09   0.17  -0.22
  13   1    -0.05  -0.22  -0.00    -0.03  -0.01  -0.00     0.00   0.00  -0.18
  14   1    -0.19  -0.05  -0.00    -0.06   0.03  -0.00     0.09  -0.17  -0.22
  15   1    -0.11   0.10   0.06    -0.02  -0.05   0.15    -0.03   0.11   0.04
  16   1    -0.10   0.02  -0.00    -0.01  -0.21  -0.01    -0.04   0.18   0.10
  17   1    -0.15  -0.02  -0.05    -0.03  -0.08   0.20    -0.03   0.09  -0.06
  18   1     0.14  -0.04   0.00    -0.07   0.05  -0.00    -0.04  -0.01   0.02
  19   1     0.14  -0.04  -0.00    -0.07   0.05   0.00     0.04   0.01   0.02
  20   1     0.06  -0.05   0.00    -0.01   0.06  -0.00     0.00  -0.00   0.03
                     13                     14                     15
                        a                      a                      a 
 Frequencies --   482.6923               596.9773               721.6618
 Red. masses --     3.7000                 3.4569                 7.6421
 Frc consts  --     0.0000                 0.0000                 0.0000
 IR Inten    --     1.1441                 2.2575                28.6078
 Raman Activ --     0.0000                 0.0000                 0.0000
 Depolar     --     0.0000                 0.0000                 0.0000
 Atom AN      X      Y      Z        X      Y      Z        X      Y      Z
   1   6    -0.11  -0.01   0.16     0.06   0.17  -0.26    -0.04  -0.10   0.13
   2   6     0.23  -0.27  -0.00     0.42   0.19   0.00     0.00  -0.00   0.07
   3   6     0.32  -0.36  -0.00     0.12  -0.17  -0.00     0.00  -0.00  -0.01
   4   6    -0.11  -0.01  -0.16     0.06   0.17   0.26     0.04   0.10   0.13
   5   6     0.05   0.23   0.00     0.15  -0.08  -0.00    -0.00   0.00  -0.88
   6   8     0.29   0.22   0.00    -0.39   0.06   0.00     0.00  -0.00   0.25
   7   8    -0.26   0.15   0.00    -0.05  -0.30  -0.00    -0.00  -0.00   0.21
   8   6    -0.28   0.03   0.00    -0.18  -0.02  -0.00     0.00  -0.00   0.01
   9   1    -0.08   0.07   0.01    -0.05  -0.01  -0.02    -0.05  -0.07   0.07
  10   1    -0.06   0.08  -0.01    -0.01   0.12  -0.21    -0.03   0.01  -0.05
  11   1    -0.10  -0.05   0.19    -0.05   0.00  -0.05    -0.05  -0.05   0.05
  12   1     0.11  -0.10  -0.00    -0.07  -0.02   0.00    -0.02   0.03  -0.02
  13   1     0.08  -0.07  -0.00     0.09  -0.23  -0.00     0.00   0.00  -0.03
  14   1     0.11  -0.10   0.00    -0.07  -0.02  -0.00     0.02  -0.03  -0.02
  15   1    -0.06   0.08   0.01    -0.01   0.12   0.21     0.03  -0.01  -0.05
  16   1    -0.08   0.07  -0.01    -0.05  -0.01   0.02     0.05   0.07   0.07
  17   1    -0.10  -0.05  -0.19    -0.05   0.00   0.05     0.05   0.05   0.05
  18   1    -0.08   0.01  -0.00    -0.11   0.02  -0.00     0.05   0.01  -0.01
  19   1    -0.08   0.01   0.00    -0.11   0.02   0.00    -0.05  -0.01  -0.01
  20   1    -0.08   0.01  -0.00     0.05   0.06   0.00    -0.00   0.00  -0.03
                     16                     17                     18
                        a                      a                      a 
 Frequencies --   804.2811               900.2209               968.2783
 Red. masses --     4.3390                 2.3720                 1.1935
 Frc consts  --     0.0000                 0.0000                 0.0000
 IR Inten    --     7.4902                20.5526                 0.0321
 Raman Activ --     0.0000                 0.0000                 0.0000
 Depolar     --     0.0000                 0.0000                 0.0000
 Atom AN      X      Y      Z        X      Y      Z        X      Y      Z
   1   6     0.04   0.17  -0.27    -0.08   0.12  -0.25    -0.05   0.22   0.11
   2   6    -0.06  -0.03  -0.00    -0.36  -0.13  -0.00     0.00  -0.00   0.03
   3   6     0.17  -0.25  -0.00     0.04  -0.31  -0.00    -0.00   0.00  -0.20
   4   6     0.04   0.17   0.27    -0.08   0.12   0.25     0.05  -0.22   0.11
   5   6    -0.33  -0.15  -0.00     0.07   0.16   0.00    -0.00   0.00  -0.00
   6   8     0.09  -0.41  -0.00     0.05   0.28   0.00     0.00  -0.00   0.00
   7   8    -0.07   0.45   0.00     0.01  -0.30  -0.00     0.00  -0.00   0.00
   8   6     0.04   0.07   0.00     0.13  -0.05  -0.00     0.00  -0.00   0.00
   9   1     0.02   0.06  -0.09     0.08   0.11  -0.14    -0.02  -0.29   0.25
  10   1     0.01   0.04  -0.06     0.02  -0.07   0.13     0.04  -0.09  -0.10
  11   1     0.02   0.06  -0.08     0.08   0.11  -0.12     0.06   0.11  -0.36
  12   1     0.07  -0.08  -0.00     0.18  -0.12  -0.01     0.17  -0.25   0.09
  13   1     0.04  -0.05  -0.00    -0.07   0.18   0.00    -0.00   0.00   0.12
  14   1     0.07  -0.08   0.00     0.18  -0.12   0.01    -0.17   0.25   0.09
  15   1     0.01   0.04   0.06     0.02  -0.07  -0.13    -0.04   0.09  -0.10
  16   1     0.02   0.06   0.09     0.08   0.11   0.14     0.02   0.29   0.25
  17   1     0.02   0.06   0.08     0.08   0.11   0.12    -0.06  -0.11  -0.36
  18   1     0.13  -0.04   0.01    -0.07   0.04  -0.00     0.00   0.00  -0.00
  19   1     0.13  -0.04  -0.01    -0.07   0.04   0.00    -0.00  -0.00  -0.00
  20   1    -0.21  -0.11  -0.00     0.20   0.09   0.00    -0.00   0.00  -0.00
                     19                     20                     21
                        a                      a                      a 
 Frequencies --   969.0252               969.8410              1011.8317
 Red. masses --     1.5410                 1.4835                 3.1046
 Frc consts  --     0.0000                 0.0000                 0.0000
 IR Inten    --     1.8905                 3.6760                14.4053
 Raman Activ --     0.0000                 0.0000                 0.0000
 Depolar     --     0.0000                 0.0000                 0.0000
 Atom AN      X      Y      Z        X      Y      Z        X      Y      Z
   1   6    -0.18  -0.25   0.14     0.18  -0.06  -0.18    -0.10  -0.05  -0.14
   2   6     0.00  -0.00  -0.28     0.09  -0.24   0.00    -0.02  -0.13  -0.00
   3   6    -0.00   0.00  -0.25    -0.36   0.12   0.00    -0.03   0.12  -0.00
   4   6     0.18   0.25   0.14     0.18  -0.06   0.18    -0.10  -0.05   0.14
   5   6    -0.00   0.00  -0.03    -0.01  -0.00   0.00     0.40  -0.13  -0.00
   6   8     0.00  -0.00  -0.00     0.00  -0.01  -0.00    -0.03   0.02   0.00
   7   8     0.00  -0.00  -0.00     0.01  -0.00   0.00     0.39   0.20   0.00
   8   6    -0.00  -0.00   0.00    -0.01  -0.00   0.00    -0.52  -0.04   0.00
   9   1     0.10   0.11  -0.11    -0.06   0.16  -0.14     0.08   0.13  -0.15
  10   1    -0.01  -0.16   0.34    -0.03   0.19  -0.16     0.00  -0.08   0.18
  11   1     0.06   0.02   0.09    -0.10  -0.13   0.26     0.05   0.05   0.01
  12   1     0.19  -0.27   0.09     0.12   0.01  -0.02    -0.08   0.04   0.00
  13   1    -0.00   0.00   0.12    -0.21   0.40  -0.00     0.02  -0.06  -0.00
  14   1    -0.19   0.27   0.09     0.13   0.00   0.02    -0.08   0.04  -0.00
  15   1     0.01   0.17   0.34    -0.03   0.19   0.16     0.00  -0.08  -0.18
  16   1    -0.10  -0.11  -0.10    -0.06   0.16   0.14     0.08   0.13   0.15
  17   1    -0.07  -0.02   0.09    -0.10  -0.13  -0.26     0.05   0.05  -0.01
  18   1     0.00   0.00  -0.00     0.00  -0.00  -0.00    -0.03  -0.04  -0.00
  19   1    -0.00  -0.00  -0.00     0.00  -0.00   0.00    -0.03  -0.04   0.00
  20   1     0.00   0.00  -0.00    -0.00  -0.00  -0.00    -0.23  -0.07  -0.00
                     22                     23                     24
                        a                      a                      a 
 Frequencies --  1035.3811              1043.8195              1123.7788
 Red. masses --     1.3765                 1.6070                 1.2922
 Frc consts  --     0.0000                 0.0000                 0.0000
 IR Inten    --     2.0431                 3.4997                 1.5338
 Raman Activ --     0.0000                 0.0000                 0.0000
 Depolar     --     0.0000                 0.0000                 0.0000
 Atom AN      X      Y      Z        X      Y      Z        X      Y      Z
   1   6    -0.26   0.11  -0.12     0.03   0.14   0.17     0.00   0.00  -0.00
   2   6     0.00  -0.00   0.20    -0.05   0.13   0.00     0.00   0.00   0.01
   3   6     0.00   0.00   0.22    -0.16  -0.26  -0.00    -0.00  -0.00  -0.01
   4   6     0.26  -0.11  -0.12     0.03   0.14  -0.17    -0.00  -0.00  -0.00
   5   6    -0.00   0.00  -0.13     0.14  -0.07  -0.00     0.00  -0.00  -0.02
   6   8     0.00  -0.00   0.03    -0.04  -0.02   0.00    -0.00  -0.00   0.01
   7   8    -0.00   0.00   0.02     0.29   0.05  -0.00    -0.00   0.00   0.23
   8   6     0.00  -0.00  -0.00    -0.28  -0.01   0.00     0.00   0.00  -0.43
   9   1     0.14   0.04  -0.08    -0.06  -0.22   0.22    -0.00   0.00  -0.00
  10   1     0.03  -0.21   0.28     0.01   0.00  -0.15    -0.00   0.00  -0.00
  11   1     0.16   0.20  -0.26    -0.01   0.02  -0.16    -0.00  -0.00   0.00
  12   1    -0.14   0.21  -0.06     0.23  -0.11  -0.02     0.01  -0.01   0.00
  13   1     0.00  -0.00  -0.08    -0.16   0.34   0.00    -0.00   0.00   0.00
  14   1     0.14  -0.21  -0.06     0.23  -0.11   0.02    -0.00   0.01   0.00
  15   1    -0.03   0.21   0.28     0.01   0.00   0.15     0.00  -0.00  -0.00
  16   1    -0.14  -0.04  -0.08    -0.06  -0.22  -0.22     0.00  -0.00  -0.00
  17   1    -0.16  -0.20  -0.26    -0.01   0.02   0.16     0.00   0.00   0.00
  18   1    -0.00  -0.00   0.00     0.01  -0.03   0.00    -0.54  -0.18   0.17
  19   1     0.00   0.00   0.00     0.01  -0.03  -0.00     0.54   0.18   0.17
  20   1     0.00   0.00   0.00    -0.14  -0.05  -0.00     0.00  -0.00   0.24
                     25                     26                     27
                        a                      a                      a 
 Frequencies --  1139.6684              1159.1617              1232.7223
 Red. masses --     3.2119                 2.2952                 3.1736
 Frc consts  --     0.0000                 0.0000                 0.0000
 IR Inten    --   217.1339               129.0190                 5.7003
 Raman Activ --     0.0000                 0.0000                 0.0000
 Depolar     --     0.0000                 0.0000                 0.0000
 Atom AN      X      Y      Z        X      Y      Z        X      Y      Z
   1   6    -0.06  -0.01  -0.00    -0.03   0.04   0.01     0.05   0.02  -0.24
   2   6     0.10   0.05   0.00     0.08  -0.04   0.00    -0.00  -0.00   0.74
   3   6    -0.10  -0.04  -0.00    -0.09   0.00  -0.00     0.00   0.00  -0.25
   4   6    -0.06  -0.01   0.00    -0.03   0.04  -0.01    -0.05  -0.02  -0.24
   5   6     0.50  -0.19  -0.00     0.33  -0.20  -0.00     0.00   0.00  -0.08
   6   8    -0.08   0.01  -0.00    -0.05  -0.16  -0.00     0.00   0.00   0.02
   7   8    -0.50  -0.07  -0.00    -0.26   0.48   0.00    -0.00  -0.00   0.00
   8   6     0.23   0.33   0.00     0.12  -0.31   0.00    -0.00   0.00   0.01
   9   1     0.03   0.00  -0.01     0.01  -0.03   0.02     0.03   0.14  -0.15
  10   1     0.01  -0.06   0.08     0.01  -0.04   0.02    -0.01   0.08  -0.00
  11   1     0.02   0.03  -0.02     0.01   0.02  -0.05     0.02   0.02   0.05
  12   1     0.06  -0.02  -0.01     0.03  -0.00  -0.01     0.11  -0.21   0.08
  13   1    -0.06   0.11   0.00    -0.05   0.08   0.00     0.00  -0.00   0.15
  14   1     0.06  -0.02   0.01     0.03  -0.00   0.01    -0.11   0.21   0.08
  15   1     0.01  -0.06  -0.08     0.01  -0.04  -0.02     0.01  -0.08  -0.00
  16   1     0.03   0.00   0.01     0.01  -0.03  -0.02    -0.03  -0.14  -0.15
  17   1     0.02   0.03   0.02     0.01   0.02   0.05    -0.02  -0.02   0.05
  18   1     0.18  -0.05   0.04    -0.27   0.11  -0.04     0.01   0.00  -0.00
  19   1     0.18  -0.05  -0.04    -0.27   0.11   0.04    -0.01  -0.00  -0.00
  20   1    -0.33  -0.14  -0.00     0.41   0.16  -0.00    -0.00  -0.00  -0.01
                     28                     29                     30
                        a                      a                      a 
 Frequencies --  1251.6049              1271.4380              1387.6910
 Red. masses --     3.1281                 3.3232                 1.1478
 Frc consts  --     0.0000                 0.0000                 0.0000
 IR Inten    --    14.8704                 7.8836                 4.6655
 Raman Activ --     0.0000                 0.0000                 0.0000
 Depolar     --     0.0000                 0.0000                 0.0000
 Atom AN      X      Y      Z        X      Y      Z        X      Y      Z
   1   6     0.09   0.22  -0.01    -0.19   0.08   0.01    -0.01  -0.03   0.03
   2   6    -0.23  -0.70  -0.00     0.66  -0.31  -0.00     0.01   0.01   0.00
   3   6     0.05   0.21   0.00    -0.20   0.09   0.00     0.01  -0.02  -0.00
   4   6     0.09   0.22   0.01    -0.19   0.08  -0.01    -0.01  -0.03  -0.03
   5   6     0.14  -0.01   0.00    -0.29   0.13   0.00    -0.06   0.00  -0.00
   6   8     0.04   0.09   0.00     0.02  -0.04  -0.00     0.01   0.04   0.00
   7   8    -0.07  -0.02  -0.00     0.03  -0.07  -0.00     0.13  -0.01  -0.00
   8   6     0.02   0.05   0.00     0.00   0.01  -0.00     0.33   0.01  -0.00
   9   1    -0.05  -0.11   0.11     0.12  -0.03  -0.00     0.01   0.04  -0.03
  10   1     0.03   0.01  -0.19     0.02  -0.13   0.08    -0.01   0.03  -0.04
  11   1    -0.04  -0.00  -0.15     0.10   0.13  -0.16     0.03   0.02  -0.04
  12   1    -0.16   0.06   0.03     0.02   0.05  -0.03    -0.02   0.01  -0.01
  13   1     0.05  -0.11  -0.00    -0.10   0.19   0.00    -0.01   0.02   0.00
  14   1    -0.16   0.06  -0.03     0.02   0.05   0.03    -0.02   0.01   0.01
  15   1     0.03   0.01   0.19     0.02  -0.13  -0.08    -0.01   0.03   0.04
  16   1    -0.05  -0.11  -0.11     0.12  -0.03   0.00     0.01   0.04   0.03
  17   1    -0.04  -0.00   0.15     0.10   0.13   0.16     0.03   0.02   0.04
  18   1     0.01  -0.01   0.01     0.03  -0.01   0.00    -0.50   0.09   0.09
  19   1     0.01  -0.01  -0.01     0.03  -0.01  -0.00    -0.50   0.09  -0.09
  20   1    -0.05  -0.02  -0.00     0.02   0.01   0.00    -0.48  -0.31   0.00
                     31                     32                     33
                        a                      a                      a 
 Frequencies --  1397.1255              1403.1025              1423.4749
 Red. masses --     1.2177                 1.2352                 1.2074
 Frc consts  --     0.0000                 0.0000                 0.0000
 IR Inten    --     4.2184                 4.2224                 4.1984
 Raman Activ --     0.0000                 0.0000                 0.0000
 Depolar     --     0.0000                 0.0000                 0.0000
 Atom AN      X      Y      Z        X      Y      Z        X      Y      Z
   1   6     0.04   0.17  -0.25     0.02   0.13  -0.16     0.03   0.12  -0.17
   2   6     0.00  -0.00   0.03     0.05  -0.04  -0.00     0.01   0.02   0.00
   3   6    -0.00   0.00  -0.02    -0.21   0.25   0.00     0.19  -0.22  -0.00
   4   6    -0.04  -0.17  -0.25     0.02   0.13   0.16     0.03   0.12   0.17
   5   6    -0.00   0.00  -0.01    -0.05   0.01   0.00    -0.03   0.02   0.00
   6   8     0.00   0.00   0.00     0.01   0.01   0.00    -0.00  -0.01  -0.00
   7   8     0.00  -0.00   0.00     0.03  -0.02  -0.00     0.02  -0.01  -0.00
   8   6     0.00  -0.00   0.00     0.04  -0.00  -0.00     0.02  -0.00  -0.00
   9   1    -0.07  -0.30   0.20    -0.03  -0.20   0.13    -0.05  -0.21   0.14
  10   1     0.08  -0.18   0.31     0.06  -0.14   0.20     0.06  -0.13   0.23
  11   1    -0.15  -0.10   0.33    -0.11  -0.07   0.21    -0.11  -0.08   0.24
  12   1    -0.01  -0.00   0.00     0.28  -0.22   0.11    -0.27   0.19  -0.09
  13   1     0.00  -0.00   0.02     0.10  -0.37  -0.00    -0.10   0.36   0.00
  14   1     0.01   0.00   0.00     0.28  -0.22  -0.11    -0.27   0.19   0.09
  15   1    -0.08   0.18   0.31     0.06  -0.14  -0.20     0.06  -0.13  -0.23
  16   1     0.07   0.30   0.20    -0.03  -0.20  -0.13    -0.05  -0.21  -0.14
  17   1     0.15   0.10   0.33    -0.11  -0.07  -0.21    -0.11  -0.08  -0.24
  18   1    -0.00   0.00  -0.00    -0.06   0.01   0.01    -0.03   0.01   0.00
  19   1     0.00  -0.00  -0.00    -0.06   0.01  -0.01    -0.03   0.01  -0.00
  20   1    -0.00  -0.00  -0.01    -0.06  -0.04   0.00    -0.03  -0.02   0.00
                     34                     35                     36
                        a                      a                      a 
 Frequencies --  1442.8969              1465.7278              1478.9578
 Red. masses --     1.0528                 1.0574                 1.0598
 Frc consts  --     0.0000                 0.0000                 0.0000
 IR Inten    --     6.6463                 3.5782                 0.0065
 Raman Activ --     0.0000                 0.0000                 0.0000
 Depolar     --     0.0000                 0.0000                 0.0000
 Atom AN      X      Y      Z        X      Y      Z        X      Y      Z
   1   6    -0.00   0.00  -0.00     0.01  -0.00  -0.00     0.02  -0.08  -0.07
   2   6    -0.00  -0.00   0.00    -0.00   0.00   0.00    -0.00  -0.00   0.02
   3   6    -0.00   0.00  -0.00    -0.00  -0.00  -0.00     0.00  -0.00   0.16
   4   6     0.00  -0.00  -0.00     0.01  -0.00   0.00    -0.02   0.08  -0.07
   5   6     0.00  -0.00  -0.00     0.01   0.02  -0.00     0.00   0.00  -0.00
   6   8     0.00   0.00   0.00    -0.00  -0.03  -0.00    -0.00  -0.00  -0.00
   7   8    -0.00   0.00  -0.04     0.02   0.06   0.00     0.00   0.00  -0.00
   8   6    -0.00   0.00  -0.21     0.01   0.21   0.00    -0.00   0.00  -0.00
   9   1     0.00  -0.00  -0.00    -0.02   0.00   0.00    -0.17  -0.09   0.08
  10   1     0.00  -0.01  -0.00    -0.00   0.01   0.01    -0.09   0.28   0.17
  11   1    -0.00  -0.00   0.00    -0.00  -0.00  -0.01     0.19   0.14   0.01
  12   1     0.00  -0.00   0.00     0.00   0.01  -0.01     0.34   0.01  -0.06
  13   1     0.00  -0.00  -0.00     0.00  -0.00  -0.00    -0.00   0.00  -0.53
  14   1    -0.00   0.00   0.00     0.00   0.01   0.01    -0.34  -0.01  -0.06
  15   1    -0.00   0.01  -0.00    -0.00   0.01  -0.01     0.09  -0.28   0.17
  16   1    -0.00   0.00  -0.00    -0.02   0.00  -0.00     0.17   0.09   0.08
  17   1     0.00   0.00   0.00    -0.00  -0.00   0.01    -0.19  -0.14   0.01
  18   1     0.36  -0.29   0.08    -0.16  -0.52   0.39     0.00  -0.00   0.00
  19   1    -0.35   0.29   0.08    -0.16  -0.52  -0.39    -0.00   0.00   0.00
  20   1     0.00  -0.00   0.72     0.20   0.14   0.00     0.00   0.00   0.00
                     37                     38                     39
                        a                      a                      a 
 Frequencies --  1490.9631              1490.9800              1493.4754
 Red. masses --     1.0593                 1.0585                 1.0572
 Frc consts  --     0.0000                 0.0000                 0.0000
 IR Inten    --     0.3570                 0.3200                 4.4205
 Raman Activ --     0.0000                 0.0000                 0.0000
 Depolar     --     0.0000                 0.0000                 0.0000
 Atom AN      X      Y      Z        X      Y      Z        X      Y      Z
   1   6    -0.16  -0.01  -0.03     0.07   0.04   0.04     0.01  -0.10  -0.05
   2   6    -0.00   0.00  -0.01     0.01  -0.01  -0.00    -0.00   0.00  -0.09
   3   6     0.00   0.00   0.00    -0.13  -0.13  -0.00     0.00   0.00  -0.13
   4   6     0.16   0.01  -0.03     0.07   0.04  -0.04    -0.01   0.10  -0.05
   5   6     0.00   0.00   0.01    -0.02  -0.01   0.00     0.00  -0.00   0.00
   6   8    -0.00  -0.00  -0.00     0.01   0.02  -0.00    -0.00  -0.00  -0.00
   7   8    -0.00   0.00  -0.00     0.01  -0.01  -0.00     0.00   0.00  -0.00
   8   6    -0.00   0.00  -0.00     0.00  -0.00  -0.00    -0.00   0.00  -0.00
   9   1     0.43  -0.20   0.04    -0.14   0.14  -0.06    -0.17  -0.10   0.10
  10   1    -0.04   0.05  -0.24     0.06  -0.16   0.05    -0.11   0.31   0.16
  11   1     0.22   0.18   0.32    -0.20  -0.16  -0.16     0.22   0.16  -0.00
  12   1     0.01  -0.00  -0.00     0.22   0.36  -0.31    -0.31   0.01   0.05
  13   1    -0.00   0.00  -0.01     0.06  -0.23  -0.00    -0.00  -0.00   0.47
  14   1    -0.01  -0.00  -0.01     0.22   0.36   0.31     0.31  -0.01   0.05
  15   1     0.03  -0.05  -0.24     0.06  -0.16  -0.06     0.11  -0.31   0.16
  16   1    -0.43   0.20   0.04    -0.15   0.14   0.06     0.17   0.10   0.10
  17   1    -0.22  -0.18   0.31    -0.20  -0.16   0.17    -0.22  -0.16  -0.00
  18   1    -0.00   0.00   0.00     0.00   0.01  -0.01     0.00  -0.00   0.00
  19   1     0.00  -0.00   0.00     0.00   0.01   0.01    -0.00   0.00   0.00
  20   1     0.00   0.00  -0.00    -0.01  -0.00   0.00     0.00   0.00   0.01
                     40                     41                     42
                        a                      a                      a 
 Frequencies --  1498.1097              1509.5805              1774.3478
 Red. masses --     1.0609                 1.0614                12.5983
 Frc consts  --     0.0000                 0.0000                 0.0000
 IR Inten    --     4.7765                10.2650               395.5506
 Raman Activ --     0.0000                 0.0000                 0.0000
 Depolar     --     0.0000                 0.0000                 0.0000
 Atom AN      X      Y      Z        X      Y      Z        X      Y      Z
   1   6     0.06  -0.10  -0.09     0.11   0.01   0.04    -0.00  -0.01   0.00
   2   6     0.03  -0.10  -0.00     0.11   0.03   0.00    -0.06  -0.03  -0.00
   3   6    -0.05  -0.01  -0.00     0.07   0.09   0.00     0.00   0.00   0.00
   4   6     0.06  -0.10   0.09     0.11   0.01  -0.04    -0.00  -0.01  -0.00
   5   6     0.00   0.00   0.00    -0.03   0.03   0.00     0.27   0.75   0.00
   6   8     0.00   0.00   0.00    -0.01  -0.03  -0.00    -0.18  -0.57  -0.00
   7   8    -0.01  -0.00  -0.00     0.00  -0.00  -0.00     0.01  -0.05  -0.00
   8   6    -0.00  -0.00  -0.00     0.01  -0.00  -0.00     0.01   0.01  -0.00
   9   1    -0.33  -0.10   0.12    -0.32   0.18  -0.05     0.00   0.00  -0.00
  10   1    -0.12   0.38   0.28     0.04  -0.09   0.19    -0.00   0.00  -0.01
  11   1     0.22   0.16  -0.08    -0.19  -0.16  -0.27    -0.00  -0.00   0.00
  12   1     0.06   0.09  -0.07    -0.14  -0.26   0.21     0.01   0.01  -0.01
  13   1     0.02  -0.07   0.00    -0.05   0.18   0.00     0.01  -0.03  -0.00
  14   1     0.06   0.09   0.07    -0.14  -0.26  -0.21     0.01   0.01   0.01
  15   1    -0.12   0.38  -0.28     0.04  -0.09  -0.19    -0.00   0.00   0.01
  16   1    -0.33  -0.10  -0.12    -0.32   0.18   0.05     0.00   0.00   0.00
  17   1     0.22   0.16   0.08    -0.19  -0.16   0.27    -0.00  -0.00  -0.00
  18   1     0.01   0.01  -0.01    -0.00   0.01  -0.01    -0.01   0.02  -0.01
  19   1     0.01   0.01   0.01    -0.00   0.01   0.01    -0.01   0.02   0.01
  20   1    -0.00  -0.00   0.00    -0.01  -0.00   0.00    -0.03  -0.01   0.00
                     43                     44                     45
                        a                      a                      a 
 Frequencies --  2975.2398              2987.6505              3028.0234
 Red. masses --     1.0940                 1.0423                 1.0933
 Frc consts  --     0.0000                 0.0000                 0.0000
 IR Inten    --    15.2678                17.9620                 8.2972
 Raman Activ --     0.0000                 0.0000                 0.0000
 Depolar     --     0.0000                 0.0000                 0.0000
 Atom AN      X      Y      Z        X      Y      Z        X      Y      Z
   1   6     0.00   0.00   0.00    -0.00   0.00   0.00    -0.15  -0.11  -0.09
   2   6    -0.00  -0.00  -0.00     0.00  -0.00   0.00    -0.00  -0.00  -0.00
   3   6     0.00   0.00   0.00     0.00   0.00  -0.00     0.00   0.00   0.01
   4   6    -0.00  -0.00   0.00    -0.00   0.00  -0.00     0.15   0.11  -0.09
   5   6     0.00  -0.00   0.00     0.00  -0.00  -0.00     0.00  -0.00   0.00
   6   8     0.00   0.00  -0.00     0.00   0.00   0.00     0.00   0.00   0.00
   7   8    -0.00   0.00  -0.00    -0.02  -0.00   0.00     0.00   0.00   0.00
   8   6    -0.00   0.00  -0.29    -0.07  -0.17   0.00    -0.00   0.00  -0.00
   9   1    -0.00  -0.00  -0.01    -0.00  -0.00  -0.00     0.05   0.22   0.33
  10   1    -0.00  -0.00   0.00     0.00   0.00   0.00     0.52   0.17  -0.01
  11   1    -0.00   0.00   0.00     0.00  -0.00  -0.00    -0.05   0.02  -0.01
  12   1    -0.00  -0.00  -0.00    -0.00  -0.00  -0.00    -0.01  -0.01  -0.02
  13   1     0.00   0.00   0.00    -0.00  -0.00  -0.00    -0.00  -0.00   0.00
  14   1     0.00   0.00  -0.00    -0.00  -0.00   0.00     0.01   0.01  -0.02
  15   1     0.00   0.00   0.00     0.00   0.00  -0.00    -0.52  -0.17  -0.01
  16   1     0.00   0.00  -0.01    -0.00  -0.00   0.00    -0.05  -0.22   0.33
  17   1     0.00  -0.00   0.00     0.00  -0.00   0.00     0.05  -0.02  -0.01
  18   1     0.15   0.38   0.54     0.14   0.35   0.58     0.00   0.00   0.01
  19   1    -0.15  -0.38   0.53     0.14   0.35  -0.58    -0.00  -0.00   0.01
  20   1    -0.00   0.00  -0.04     0.03  -0.08  -0.00     0.00  -0.00  -0.00
                     46                     47                     48
                        a                      a                      a 
 Frequencies --  3032.1902              3033.6677              3034.1360
 Red. masses --     1.0910                 1.0698                 1.0632
 Frc consts  --     0.0000                 0.0000                 0.0000
 IR Inten    --    29.7381                14.5786                 6.6496
 Raman Activ --     0.0000                 0.0000                 0.0000
 Depolar     --     0.0000                 0.0000                 0.0000
 Atom AN      X      Y      Z        X      Y      Z        X      Y      Z
   1   6     0.16   0.08   0.07     0.10  -0.08  -0.11    -0.05   0.08   0.12
   2   6     0.01   0.00   0.00     0.00  -0.00  -0.01    -0.00   0.00  -0.00
   3   6    -0.08  -0.04  -0.00    -0.00  -0.00   0.09     0.08   0.02   0.00
   4   6     0.16   0.08  -0.07    -0.10   0.07  -0.10    -0.05   0.08  -0.13
   5   6    -0.00  -0.00   0.00    -0.00  -0.00  -0.00     0.00   0.00  -0.00
   6   8     0.00   0.00   0.00     0.00   0.00   0.00    -0.00  -0.00   0.00
   7   8    -0.00   0.00   0.00     0.00   0.00   0.00    -0.00  -0.00   0.00
   8   6     0.00  -0.00  -0.00    -0.00   0.00  -0.00     0.00  -0.00  -0.00
   9   1    -0.03  -0.18  -0.27     0.10   0.28   0.42    -0.11  -0.32  -0.47
  10   1    -0.52  -0.17   0.01    -0.37  -0.14  -0.01     0.22   0.09   0.02
  11   1    -0.02   0.06   0.01    -0.10   0.13  -0.01     0.04  -0.05   0.02
  12   1    -0.00   0.02   0.04    -0.04  -0.12  -0.16     0.01   0.01   0.00
  13   1     0.30   0.10   0.00     0.01   0.00   0.01    -0.31  -0.10   0.00
  14   1    -0.00   0.02  -0.04     0.04   0.12  -0.16     0.01   0.01  -0.01
  15   1    -0.52  -0.17  -0.01     0.36   0.14  -0.01     0.24   0.10  -0.02
  16   1    -0.03  -0.18   0.26    -0.10  -0.27   0.39    -0.11  -0.33   0.49
  17   1    -0.02   0.06  -0.01     0.09  -0.12  -0.01     0.05  -0.06  -0.02
  18   1     0.00   0.00   0.00     0.00   0.00   0.00    -0.00  -0.00  -0.00
  19   1     0.00   0.00  -0.00    -0.00  -0.00   0.00    -0.00  -0.00   0.00
  20   1    -0.00   0.00   0.00     0.00  -0.00  -0.00    -0.01   0.01   0.00
                     49                     50                     51
                        a                      a                      a 
 Frequencies --  3041.1374              3042.2465              3045.7633
 Red. masses --     1.0731                 1.0759                 1.0701
 Frc consts  --     0.0000                 0.0000                 0.0000
 IR Inten    --    71.6520                 9.8402                47.6504
 Raman Activ --     0.0000                 0.0000                 0.0000
 Depolar     --     0.0000                 0.0000                 0.0000
 Atom AN      X      Y      Z        X      Y      Z        X      Y      Z
   1   6     0.07   0.01  -0.02     0.01   0.01  -0.00    -0.03   0.05  -0.05
   2   6     0.01   0.00  -0.00     0.00   0.00  -0.00    -0.00   0.00  -0.01
   3   6     0.21   0.09  -0.00     0.03   0.01  -0.00    -0.00   0.00  -0.23
   4   6     0.07   0.01   0.02     0.01   0.01   0.00     0.03  -0.04  -0.05
   5   6    -0.00   0.00  -0.00     0.00   0.00   0.00    -0.00   0.00  -0.00
   6   8    -0.00   0.00   0.00    -0.00  -0.00  -0.00    -0.00  -0.00   0.00
   7   8     0.00  -0.00  -0.00    -0.01   0.00   0.00     0.00  -0.00   0.00
   8   6     0.02  -0.04  -0.00    -0.12   0.23   0.00     0.00  -0.00  -0.00
   9   1     0.03   0.06   0.09     0.00   0.01   0.01     0.04   0.14   0.19
  10   1    -0.29  -0.10   0.00    -0.05  -0.02   0.00    -0.13  -0.04  -0.01
  11   1     0.02  -0.01  -0.00     0.01  -0.01  -0.00     0.21  -0.26  -0.01
  12   1     0.02  -0.03  -0.07     0.00   0.00  -0.00     0.10   0.31   0.42
  13   1    -0.79  -0.26  -0.00    -0.13  -0.04  -0.00     0.00   0.00  -0.03
  14   1     0.02  -0.03   0.07     0.00   0.00   0.00    -0.10  -0.31   0.42
  15   1    -0.29  -0.10  -0.00    -0.05  -0.02  -0.00     0.13   0.04  -0.01
  16   1     0.03   0.06  -0.09     0.00   0.01  -0.01    -0.04  -0.14   0.19
  17   1     0.02  -0.01   0.00     0.01  -0.01   0.00    -0.21   0.26  -0.01
  18   1     0.00  -0.00   0.01    -0.02   0.01  -0.04     0.00   0.00   0.00
  19   1     0.00  -0.00  -0.01    -0.02   0.01   0.04    -0.00  -0.00   0.00
  20   1    -0.07   0.13   0.00     0.48  -0.82  -0.00    -0.00   0.00  -0.00
                     52                     53                     54
                        a                      a                      a 
 Frequencies --  3046.5390              3049.7419              3053.0369
 Red. masses --     1.0748                 1.0623                 1.0442
 Frc consts  --     0.0000                 0.0000                 0.0000
 IR Inten    --     2.9834                24.8783                34.2081
 Raman Activ --     0.0000                 0.0000                 0.0000
 Depolar     --     0.0000                 0.0000                 0.0000
 Atom AN      X      Y      Z        X      Y      Z        X      Y      Z
   1   6    -0.09   0.11  -0.01     0.09  -0.13   0.01    -0.03   0.04   0.01
   2   6    -0.00   0.00   0.00     0.01  -0.01  -0.00    -0.00   0.01   0.00
   3   6    -0.00  -0.00   0.16     0.03   0.06   0.00     0.03   0.18   0.00
   4   6     0.09  -0.11  -0.01     0.09  -0.13  -0.01    -0.03   0.05  -0.01
   5   6    -0.00   0.00  -0.00     0.00  -0.00  -0.00    -0.00   0.00   0.00
   6   8    -0.00   0.00  -0.00     0.00   0.00   0.00    -0.00  -0.00  -0.00
   7   8     0.00  -0.00   0.00    -0.00   0.00   0.00     0.00  -0.00  -0.00
   8   6     0.00  -0.00  -0.00    -0.00   0.00  -0.00    -0.00   0.00   0.00
   9   1    -0.01   0.04   0.03     0.00  -0.04  -0.04    -0.01  -0.01  -0.03
  10   1    -0.02   0.01   0.00     0.08   0.00  -0.00    -0.02  -0.00   0.00
  11   1     0.36  -0.45  -0.01    -0.40   0.50   0.00     0.12  -0.15  -0.00
  12   1    -0.07  -0.21  -0.29    -0.03  -0.11  -0.17    -0.11  -0.35  -0.55
  13   1     0.00   0.00   0.02    -0.05  -0.01   0.00     0.14   0.06   0.00
  14   1     0.07   0.22  -0.29    -0.03  -0.10   0.16    -0.11  -0.35   0.54
  15   1     0.02  -0.01   0.00     0.08   0.00   0.00    -0.02  -0.00  -0.00
  16   1     0.01  -0.04   0.03     0.00  -0.04   0.04    -0.01  -0.01   0.03
  17   1    -0.35   0.45  -0.00    -0.41   0.51  -0.00     0.12  -0.15   0.00
  18   1     0.00   0.00   0.00     0.00   0.00   0.00    -0.00  -0.00  -0.00
  19   1    -0.00  -0.00   0.00     0.00   0.00  -0.00    -0.00  -0.00   0.00
  20   1    -0.00   0.00  -0.00     0.01  -0.02  -0.00     0.00  -0.01  -0.00
