
                                 *****************
                                 * O   R   C   A *
                                 *****************

                                            #,                                       
                                            ###                                      
                                            ####                                     
                                            #####                                    
                                            ######                                   
                                           ########,                                 
                                     ,,################,,,,,                         
                               ,,#################################,,                 
                          ,,##########################################,,             
                       ,#########################################, ''#####,          
                    ,#############################################,,   '####,        
                  ,##################################################,,,,####,       
                ,###########''''           ''''###############################       
              ,#####''   ,,,,##########,,,,          '''####'''          '####       
            ,##' ,,,,###########################,,,                        '##       
           ' ,,###''''                  '''############,,,                           
         ,,##''                                '''############,,,,        ,,,,,,###''
      ,#''                                            '''#######################'''  
     '                                                          ''''####''''         
             ,#######,   #######,   ,#######,      ##                                
            ,#'     '#,  ##    ##  ,#'     '#,    #''#        ,####,   ,####,        
            ##       ##  ##   ,#'  ##            #'  '#       #'       #'  '#        
            ##       ##  #######   ##           ,######,      #####,   #    #        
            '#,     ,#'  ##    ##  '#,     ,#' ,#      #,     #,   #   #,  ,#        
             '#######'   ##     ##  '#######'  #'      '#     '####' # '####'        



                #########################################################
                #                        -***-                          #
                #          Department of theory and spectroscopy        #
                #                                                       #
                #                      Frank Neese                      #
                #                                                       #
                #     Directorship, Architecture, Infrastructure        #
                #                    SHARK, DRIVERS                     #
                #        Core code/Algorithms in most modules           #
                #                                                       #
                #        Max Planck Institute fuer Kohlenforschung      #
                #                Kaiser Wilhelm Platz 1                 #
                #                 D-45470 Muelheim/Ruhr                 #
                #                      Germany                          #
                #                                                       #
                #                  All rights reserved                  #
                #                        -***-                          #
                #########################################################


                         Program Version 6.0.1  -  RELEASE   -


 With contributions from (in alphabetic order):
[Max-Planck-Institut fuer Kohlenforschung]                               
  Daniel Aravena         : Magnetic Suceptibility                        
  Michael Atanasov       : Ab Initio Ligand Field Theory (pilot matlab implementation)
  Alexander A. Auer      : GIAO ZORA, VPT2 properties, NMR spectrum      
  Ute Becker             : All parallelization in ORCA, NUMFREQ, NUMCALC 
  Giovanni Bistoni       : ED, misc. LED, open-shell LED, HFLD           
  Martin Brehm           : Molecular dynamics                            
  Dmytro Bykov           : pre 5.0 version of the SCF Hessian            
  Marcos Casanova-Páez   : Triplet and SCS-CIS(D). UHF-(DLPNO)-IP/EA/STEOM-CCSD. UHF-CVS-IP/STEOM-CCSD   
  Vijay G. Chilkuri      : MRCI spin determinant printing, contributions to CSF-ICE 
  Pauline Colinet        : FMM embedding                                 
  Dipayan Datta          : RHF DLPNO-CCSD density                        
  Achintya Kumar Dutta   : EOM-CC, STEOM-CC                              
  Nicolas Foglia         : Exact transition moments, OPA infrastructure, MCD improvements    
  Dmitry Ganyushin       : Spin-Orbit,Spin-Spin,Magnetic field MRCI      
  Miquel Garcia-Rates    : C-PCM and meta-GGA Hessian, CCSD/C-PCM, Gaussian charge scheme 
  Tiago L. C. Gouveia    : GS-ROHF, GS-ROCIS                             
  Yang Guo               : DLPNO-NEVPT2, F12-NEVPT2, CIM, IAO-localization        
  Andreas Hansen         : Spin unrestricted coupled pair/coupled cluster methods 
  Ingolf Harden          : AUTO-CI MPn and infrastructure                
  Benjamin Helmich-Paris : MC-RPA, TRAH-(SCF,CASSCF), AVAS, COSX integrals, SCF dyn. polar. 
  Lee Huntington         : MR-EOM, pCC                                   
  Robert Izsak           : Overlap fitted RIJCOSX, COSX-SCS-MP3, EOM     
  Riya Kayal             : Wick's Theorem for AUTO-CI, AUTO-CI UHF-CCSDT 
  Emily Kempfer          : AUTO-CI, RHF CISDT and CCSDT                  
  Christian Kollmar      : KDIIS, OOCD, Brueckner-CCSD(T), CCSD density, CASPT2, CASPT2-K, improved NEVPT2 
  Axel Koslowski         : Symmetry handling                             
  Simone Kossmann        : meta-GGA functionals, TD-DFT gradient, OOMP2, (MP2 Hessian; deprecated post 5.0) 
  Lucas Lang             : DCDCAS                                        
  Marvin Lechner         : AUTO-CI (C++ implementation), FIC-MRCC        
  Spencer Leger          : CASSCF response                               
  Dagmar Lenk            : GEPOL surface, SMD, ORCA-2-JSON               
  Dimitrios Liakos       : Extrapolation schemes; Compound Job, initial MDCI parallelization 
  Dimitrios Manganas     : Further ROCIS development; embedding schemes. LFT, Crystal Embedding 
  Dimitrios Pantazis     : SARC Basis sets                               
  Anastasios Papadopoulos: AUTO-CI, single reference methods and gradients 
  Taras Petrenko         : pre 6.0 DFT Hessian and TD-DFT gradient, (ASA, deprecated), ECA, 1-Electron XAS/XES, NRVS 
  Peter Pinski           : DLPNO-MP2, DLPNO-MP2 Gradient                 
  Christoph Reimann      : Effective Core Potentials                     
  Marius Retegan         : Local ZFS, SOC                                
  Christoph Riplinger    : Optimizer, TS searches, QM/MM, DLPNO-CCSD(T), (RO)-DLPNO pert. Triples 
  Michael Roemelt        : Original ROCIS implementation                 
  Masaaki Saitow         : Open-shell DLPNO-CCSD energy and density      
  Barbara Sandhoefer     : DKH picture change effects                    
  Kantharuban Sivalingam : CASSCF convergence/infrastructure, NEVPT2 and variants, FIC-MRCI 
  Bernardo de Souza      : ESD, SOC TD-DFT                               
  Georgi L. Stoychev     : AutoAux, RI-MP2 NMR, DLPNO-MP2 response, X2C  
  Van Anh Tran           : RI-MP2 g-tensors                              
  Willem Van den Heuvel  : Paramagnetic NMR                              
  Zikuan Wang            : NOTCH, Electric field optimization            
  Frank Wennmohs         : Technical directorship and infrastructure     
  Hang Xu                : AUTO-CI-Response properties                   
                                                                         
[FACCTs GmbH]                                                            
  Markus Bursch, Miquel Garcia-Rates, Christoph Riplinger, Bernardo de Souza, Georgi L. Stoychev 
                                                                 
  APM, Basis sets (HGBS, AHGBS, def-TZVP (Ac-Lr), def2-XVPD (La-Lu)), CI-OPT, improved COSX, DLPNO-Multilevel,           
  DOCKER, DRACO, updates on ESD, GOAT, IRC, LR-CPCM, MBIS, meta-GGA TD-DFT gradient, ML-optimized integration grids, 
  MM, NACMEs, nearIR, NEB, NEB-TS, NL-DFT gradient (VV10), 2- and 3-layer-ONIOM, interface openCOSMO-RS, QMMM,   
  Crystal-QMMM, SF, symmetry and pop. for TD-DFT, r2SCAN hybrids, SOLVATOR                                   
                                                                         
[Other institutions]                                                     
  V. Asgeirsson          : NEB                                           
  Christoph Bannwarth    : sTDA-DFT, sTD-DFT, PBEh-3c, B97-3c, D3        
  Sebastian Ehlert       : rSCAN, r2SCAN, r2SCAN-3c, D4, dhf basis sets  
  Marvin Friede          : D4 for Fr, Ra, Ac-Lr                          
  Lars Goerigk           : TD-DFT with DH, B97 family of functionals     
  Stefan Grimme          : VdW corrections, initial TS optimization, DFT functionals, gCP, sTDA/sTD-DF 
  Waldemar Hujo          : DFT-NL                                        
  H. Jonsson             : NEB                                           
  Holger Kruse           : gCP                                           
  Marcel Mueller         : wB97X-3c, vDZP basis set                      
  Hagen Neugebauer       : wr2SCAN                                       
  Tobias Risthaus        : range-separated hybrid DFT                    
  Lukas Wittmann         : regularized MP2, r2SCAN double-hybrids, wr2SCAN        
                                                                         
We gratefully acknowledge several colleagues who have allowed us to      
interface, adapt or use parts of their codes:                            
  Ed Valeev, F. Pavosevic, A. Kumar             : LibInt (2-el integral package), F12 methods 
  Garnet Chan, S. Sharma, J. Yang, R. Olivares  : DMRG                   
  Ulf Ekstrom                                   : XCFun DFT Library      
  Mihaly Kallay                                 : mrcc  (arbitrary order and MRCC methods)
  Frank Weinhold                                : gennbo (NPA and NBO analysis)           
  Simon Mueller                                 : openCOSMO-RS                            
  Christopher J. Cramer and Donald G. Truhlar   : smd solvation model                     
  S Lehtola, MJT Oliveira, MAL Marques          : LibXC Library                           
  Liviu Ungur et al                             : ANISO software                          


 Your calculation uses the libint2 library for the computation of 2-el integrals
 For citations please refer to: http://libint.valeyev.net

 Your ORCA version has been built with support for libXC version: 6.2.2
 For citations please refer to: https://libxc.gitlab.io

 This ORCA versions uses:
   CBLAS   interface :  Fast vector & matrix operations
   LAPACKE interface :  Fast linear algebra routines
   SCALAPACK package :  Parallel linear algebra routines
   Shared memory     :  Shared parallel matrices
   BLAS/LAPACK       :  OpenBLAS 0.3.27  USE64BITINT DYNAMIC_ARCH NO_AFFINITY Zen SINGLE_THREADED
        Core in use  :  Zen
   Copyright (c) 2011-2014, The OpenBLAS Project


Your calculation utilizes the geometrical counterpoise correction gCP
Please cite in your paper:
H.Kruse, S. Grimme J.Chem.Phys., 136, (2012), 154101 
   

Your calculation utilizes the DFT-NL dispersion correction.
Cite in your paper:
Vydrov, O. A.; Van Voorhis, T. J. Chem. Phys. 2010, 133, 244103
Hujo, W.; Grimme, S. J. Chem. Theory Comput. 2011, 7, 3866 
   

================================================================================

----- Orbital basis set information -----
Your calculation utilizes the basis: def2-TZVP
   F. Weigend and R. Ahlrichs, Phys. Chem. Chem. Phys. 7, 3297 (2005).

----- AuxJ basis set information -----
Your calculation utilizes the auxiliary basis: def2/J
   F. Weigend, Phys. Chem. Chem. Phys. 8, 1057 (2006).

================================================================================
                                        WARNINGS
                       Please study these warnings very carefully!
================================================================================


================================================================================
                                       INPUT FILE
================================================================================
NAME = sp.inp
|  1> ! wb97x-v def2-tzvp def2/J RIJCOSX DEFGRID2 scfconv7 GCP(DFT/TZ) printgap
|  2> %output
|  3>     printlevel normal
|  4> end
|  5> * xyz 0 1
|  6> C -2.4795944354227903 0.07569996804785266 0.3798139459818234
|  7> C -1.237157694724284 0.671074942421412 -0.26726589110928345
|  8> C 0.03143886757345666 -0.019372339792424045 0.17173238448023578
|  9> O 0.09425406053133643 -1.0252730718764662 0.8381302823152008
| 10> O 1.121790044256404 0.636288907633644 -0.29754177781760677
| 11> C 2.385813377014808 0.03121669219258326 0.04642733905014106
| 12> H -2.5601091708510353 -0.9907424037197984 0.15824095776789499
| 13> H -2.4421174207175658 0.18271646814619089 1.466712798000709
| 14> H -3.378150398813959 0.5785131827082511 0.012752428746028782
| 15> H -1.1351110426111743 1.7402333172375506 -0.05012844126782117
| 16> H -1.283004658723451 0.5962382125480672 -1.361270274347481
| 17> H 2.5037974386519055 -0.014711139256348496 1.1322472258650684
| 18> H 3.1468868490097086 0.6730530323856571 -0.39720541161473233
| 19> H 2.4478607504905137 -0.9809904179274788 -0.3619021614127608
| 20> *
| 21> 
| 22>                          ****END OF INPUT****
================================================================================

                       ****************************
                       * Single Point Calculation *
                       ****************************

---------------------------------
CARTESIAN COORDINATES (ANGSTROEM)
---------------------------------
  C     -2.479594    0.075700    0.379814
  C     -1.237158    0.671075   -0.267266
  C      0.031439   -0.019372    0.171732
  O      0.094254   -1.025273    0.838130
  O      1.121790    0.636289   -0.297542
  C      2.385813    0.031217    0.046427
  H     -2.560109   -0.990742    0.158241
  H     -2.442117    0.182716    1.466713
  H     -3.378150    0.578513    0.012752
  H     -1.135111    1.740233   -0.050128
  H     -1.283005    0.596238   -1.361270
  H      2.503797   -0.014711    1.132247
  H      3.146887    0.673053   -0.397205
  H      2.447861   -0.980990   -0.361902

----------------------------
CARTESIAN COORDINATES (A.U.)
----------------------------
  NO LB      ZA    FRAG     MASS         X           Y           Z
   0 C     6.0000    0    12.011   -4.685754    0.143052    0.717744
   1 C     6.0000    0    12.011   -2.337889    1.268148   -0.505059
   2 C     6.0000    0    12.011    0.059411   -0.036608    0.324527
   3 O     8.0000    0    15.999    0.178114   -1.937485    1.583837
   4 O     8.0000    0    15.999    2.119876    1.202412   -0.562272
   5 C     6.0000    0    12.011    4.508534    0.058991    0.087735
   6 H     1.0000    0     1.008   -4.837905   -1.872232    0.299032
   7 H     1.0000    0     1.008   -4.614933    0.345284    2.771686
   8 H     1.0000    0     1.008   -6.383779    1.093231    0.024099
   9 H     1.0000    0     1.008   -2.145049    3.288564   -0.094729
  10 H     1.0000    0     1.008   -2.424527    1.126727   -2.572428
  11 H     1.0000    0     1.008    4.731491   -0.027800    2.139637
  12 H     1.0000    0     1.008    5.946754    1.271886   -0.750609
  13 H     1.0000    0     1.008    4.625786   -1.853803   -0.683896

--------------------------------
INTERNAL COORDINATES (ANGSTROEM)
--------------------------------
 C      0   0   0     0.000000000000     0.00000000     0.00000000
 C      1   0   0     1.522114558868     0.00000000     0.00000000
 C      2   1   0     1.509560920719   112.54610337     0.00000000
 O      3   2   1     1.208250052560   125.79364676     7.95254262
 O      3   2   1     1.356088344936   110.72717142   187.27852957
 C      5   3   2     1.442976827609   114.77760319   181.34908978
 H      1   2   3     1.092188877451   110.84606757   302.36999268
 H      1   2   3     1.092797406862   110.88701556    61.63268264
 H      1   2   3     1.093141393242   110.38288536   181.88995536
 H      2   1   3     1.095747152299   111.92750127   238.03438199
 H      2   1   3     1.097519052587   111.28384274   120.20691865
 H      6   5   3     1.093176303761   110.42191375   299.84878207
 H      6   5   3     1.089952629626   105.52854890   180.17032233
 H      6   5   3     1.093227374008   110.42177833    60.49856660

---------------------------
INTERNAL COORDINATES (A.U.)
---------------------------
 C      0   0   0     0.000000000000     0.00000000     0.00000000
 C      1   0   0     2.876379660715     0.00000000     0.00000000
 C      2   1   0     2.852656722628   112.54610337     0.00000000
 O      3   2   1     2.283261700635   125.79364676     7.95254262
 O      3   2   1     2.562635585331   110.72717142   187.27852957
 C      5   3   2     2.726831021775   114.77760319   181.34908978
 H      1   2   3     2.063937864898   110.84606757   302.36999268
 H      1   2   3     2.065087818829   110.88701556    61.63268264
 H      1   2   3     2.065737858880   110.38288536   181.88995536
 H      2   1   3     2.070662029869   111.92750127   238.03438199
 H      2   1   3     2.074010436149   111.28384274   120.20691865
 H      6   5   3     2.065803830201   110.42191375   299.84878207
 H      6   5   3     2.059711968941   105.52854890   180.17032233
 H      6   5   3     2.065900338982   110.42177833    60.49856660

---------------------
BASIS SET INFORMATION
---------------------
There are 3 groups of distinct atoms

 Group   1 Type C   : 11s6p2d1f contracted to 5s3p2d1f pattern {62111/411/11/1}
 Group   2 Type O   : 11s6p2d1f contracted to 5s3p2d1f pattern {62111/411/11/1}
 Group   3 Type H   : 5s1p contracted to 3s1p pattern {311/1}

Atom   0C    basis set group =>   1
Atom   1C    basis set group =>   1
Atom   2C    basis set group =>   1
Atom   3O    basis set group =>   2
Atom   4O    basis set group =>   2
Atom   5C    basis set group =>   1
Atom   6H    basis set group =>   3
Atom   7H    basis set group =>   3
Atom   8H    basis set group =>   3
Atom   9H    basis set group =>   3
Atom  10H    basis set group =>   3
Atom  11H    basis set group =>   3
Atom  12H    basis set group =>   3
Atom  13H    basis set group =>   3
---------------------------------
AUXILIARY/J BASIS SET INFORMATION
---------------------------------
There are 3 groups of distinct atoms

 Group   1 Type C   : 12s5p4d2f1g contracted to 6s4p3d1f1g pattern {711111/2111/211/2/1}
 Group   2 Type O   : 12s5p4d2f1g contracted to 6s4p3d1f1g pattern {711111/2111/211/2/1}
 Group   3 Type H   : 5s2p1d contracted to 3s1p1d pattern {311/2/1}

Atom   0C    basis set group =>   1
Atom   1C    basis set group =>   1
Atom   2C    basis set group =>   1
Atom   3O    basis set group =>   2
Atom   4O    basis set group =>   2
Atom   5C    basis set group =>   1
Atom   6H    basis set group =>   3
Atom   7H    basis set group =>   3
Atom   8H    basis set group =>   3
Atom   9H    basis set group =>   3
Atom  10H    basis set group =>   3
Atom  11H    basis set group =>   3
Atom  12H    basis set group =>   3
Atom  13H    basis set group =>   3

Checking for AutoStart:
The File: sp.gbw exists
Trying to determine its content:
     ... Fine, the file contains calculation information
     ... Fine, the calculation information was read
     ... Fine, the file contains a basis set
     ... Fine, the basis set was read
     ... Fine, the file contains a geometry
     ... Fine, the geometry was read
     ... Fine, the file contains a set of orbitals
     ... Fine, the orbitals can be read
     => possible old guess file was deleted
     => GBW file was renamed to GES file
     => GES file is set as startup file
     => Guess is set to MORead
     ... now leaving AutoStart

------------------------------------------------------------------------------
                             ORCA STARTUP CALCULATIONS
                           -- RI-GTO INTEGRALS CHOSEN --
------------------------------------------------------------------------------
------------------------------------------------------------------------------
                   ___                                                        
                  /   \      - P O W E R E D   B Y -                         
                 /     \                                                     
                 |  |  |   _    _      __       _____    __    __             
                 |  |  |  | |  | |    /  \     |  _  \  |  |  /  |          
                  \  \/   | |  | |   /    \    | | | |  |  | /  /          
                 / \  \   | |__| |  /  /\  \   | |_| |  |  |/  /          
                |  |  |   |  __  | /  /__\  \  |    /   |      \           
                |  |  |   | |  | | |   __   |  |    \   |  |\   \          
                \     /   | |  | | |  |  |  |  | |\  \  |  | \   \       
                 \___/    |_|  |_| |__|  |__|  |_| \__\ |__|  \__/        
                                                                              
                      - O R C A' S   B I G   F R I E N D -                    
                                      &                                       
                       - I N T E G R A L  F E E D E R -                       
                                                                              
 v1 FN, 2020, v2 2021, v3 2022-2024                                           
------------------------------------------------------------------------------


----------------------
SHARK INTEGRAL PACKAGE
----------------------

Number of atoms                             ...     14
Number of basis functions                   ...    234
Number of shells                            ...     98
Maximum angular momentum                    ...      3
Integral batch strategy                     ... SHARK/LIBINT Hybrid
RI-J (if used) integral strategy            ... SPLIT-RIJ (Revised 2003 algorithm where possible)
Printlevel                                  ...      1
Contraction scheme used                     ... SEGMENTED contraction
Prescreening option                         ... SCHWARTZ
   Thresh                                   ... 3.000e-11
   Tcut                                     ... 1.000e-12
   Tpresel                                  ... 1.000e-12 
Coulomb Range Separation                    ... NOT USED
Exchange Range Separation                   ... Long Range
   Mu parameter                             ... 3.000e-01
   Scaling (regular/separated)              ... 1.670e-01 8.330e-01
Multipole approximations                    ... NOT USED
Finite Nucleus Model                        ... NOT USED
CABS basis                                  ... NOT available
Auxiliary Coulomb fitting basis             ... AVAILABLE
   # of basis functions in Aux-J            ...    382
   # of shells in Aux-J                     ...    130
   Maximum angular momentum in Aux-J        ...      4
Auxiliary J/K fitting basis                 ... NOT available
Auxiliary Correlation fitting basis         ... NOT available
Auxiliary 'external' fitting basis          ... NOT available

Checking pre-screening integrals            ... done (  0.0 sec) Dimension = 98
Check shell pair data                       ... done (  0.0 sec)
Shell pair information
Shell pair cut-off parameter TPreSel        ...   1.0e-12
Total number of shell pairs                 ...      4851
Shell pairs after pre-screening             ...      4492
Total number of primitive shell pairs       ...     14352
Primitive shell pairs kept                  ...     10288
          la=0 lb=0:   1331 shell pairs
          la=1 lb=0:   1301 shell pairs
          la=1 lb=1:    334 shell pairs
          la=2 lb=0:    608 shell pairs
          la=2 lb=1:    300 shell pairs
          la=2 lb=2:     76 shell pairs
          la=3 lb=0:    302 shell pairs
          la=3 lb=1:    149 shell pairs
          la=3 lb=2:     70 shell pairs
          la=3 lb=3:     21 shell pairs

Calculating one electron integrals          ... done (  0.0 sec)
Calculating RI/J V-Matrix + Cholesky decomp.... done (  0.0 sec)
Calculating Nuclear repulsion               ... done (  0.0 sec) ENN=    244.944282175011 Eh

Diagonalization of the overlap matrix:
Smallest eigenvalue                        ... 1.947e-04
Time for diagonalization                   ...    0.010 sec
Threshold for overlap eigenvalues          ... 1.000e-07
Number of eigenvalues below threshold      ... 0
Time for construction of square roots      ...    0.002 sec
Total time needed                          ...    0.014 sec

-------------------
DFT GRID GENERATION
-------------------

General Integration Accuracy     IntAcc      ... 4.388
Radial Grid Type                 RadialGrid  ... OptM3 with GC (2021)
Angular Grid (max. ang.)         AngularGrid ... 4 (Lebedev-302)
Angular grid pruning method      GridPruning ... 4 (adaptive)
Weight generation scheme         WeightScheme... mBecke (2022)
Basis function cutoff            BFCut       ... 1.0000e-11
Integration weight cutoff        WCut        ... 1.0000e-14
Partially contracted basis set               ... off
Rotationally invariant grid construction     ... off
Angular grids for H and He will be reduced by one unit

Total number of grid points                  ...    62206
Total number of batches                      ...      978
Average number of points per batch           ...       63
Average number of grid points per atom       ...     4443

--------------------
COSX GRID GENERATION
--------------------

GRIDX 1
-------
General Integration Accuracy     IntAcc      ... 3.816
Radial Grid Type                 RadialGrid  ... OptM3 with GC (2021)
Angular Grid (max. ang.)         AngularGrid ... 1 (Lebedev-50)
Angular grid pruning method      GridPruning ... 4 (adaptive)
Weight generation scheme         WeightScheme... mBecke (2022)
Basis function cutoff            BFCut       ... 1.0000e-11
Integration weight cutoff        WCut        ... 1.0000e-14
Partially contracted basis set               ... on
Rotationally invariant grid construction     ... off
Angular grids for H and He will be reduced by one unit

Total number of grid points                  ...     7990
Total number of batches                      ...       72
Average number of points per batch           ...      110
Average number of grid points per atom       ...      571
UseSFitting                                  ... on

GRIDX 2
-------
General Integration Accuracy     IntAcc      ... 4.020
Radial Grid Type                 RadialGrid  ... OptM3 with GC (2021)
Angular Grid (max. ang.)         AngularGrid ... 2 (Lebedev-110)
Angular grid pruning method      GridPruning ... 4 (adaptive)
Weight generation scheme         WeightScheme... mBecke (2022)
Basis function cutoff            BFCut       ... 1.0000e-11
Integration weight cutoff        WCut        ... 1.0000e-14
Partially contracted basis set               ... on
Rotationally invariant grid construction     ... off
Angular grids for H and He will be reduced by one unit

Total number of grid points                  ...    17116
Total number of batches                      ...      141
Average number of points per batch           ...      121
Average number of grid points per atom       ...     1223
UseSFitting                                  ... on

GRIDX 3
-------
General Integration Accuracy     IntAcc      ... 4.338
Radial Grid Type                 RadialGrid  ... OptM3 with GC (2021)
Angular Grid (max. ang.)         AngularGrid ... 3 (Lebedev-194)
Angular grid pruning method      GridPruning ... 4 (adaptive)
Weight generation scheme         WeightScheme... mBecke (2022)
Basis function cutoff            BFCut       ... 1.0000e-11
Integration weight cutoff        WCut        ... 1.0000e-14
Partially contracted basis set               ... on
Rotationally invariant grid construction     ... off
Angular grids for H and He will be reduced by one unit

Total number of grid points                  ...    37546
Total number of batches                      ...      298
Average number of points per batch           ...      125
Average number of grid points per atom       ...     2682
UseSFitting                                  ... on
Initializing property integral containers    ... done (  0.0 sec)

SHARK setup successfully completed in   1.4 seconds

Maximum memory used throughout the entire STARTUP-calculation: 34.5 MB
-------------------------------------------------------------------------------
                                 ORCA GUESS
                   Start orbitals & Density for SCF / CASSCF
-------------------------------------------------------------------------------

------------
SCF SETTINGS
------------
Hamiltonian:
 Density Functional     Method          .... DFT(GTOs)
 Exchange Functional    Exchange        .... WB97X-V
 Correlation Functional Correlation     .... WB97X-V
 Gradients option       PostSCFGGA      .... off
 Hybrid DFT is turned on
   Fraction HF Exchange ScalHFX         ....  0.167000
   Scaling of DF-GGA-X  ScalDFX         ....  0.000000
   Scaling of DF-GGA-C  ScalDFC         ....  1.000000
   Scaling of DF-LDA-C  ScalLDAC        ....  1.000000
   Perturbative correction              ....  0.000000
 Long-range corrected/Screened/Range-Separated Hybrid DFT is turned on
   Amount of maximum screened exact exchange              ....  0.833000
   Range separation parameter mu (erf(mu*r12)/r12)        ....  0.300000
   NL short-range parameter             ....  6.000000
   NL long-range parameter              ....  0.010000
 RI-approximation to the Coulomb term is turned on
   Number of AuxJ basis functions       .... 382
   RIJ-COSX (HFX calculated with COS-X)).... on


General Settings:
 Integral files         IntName         .... sp
 Hartree-Fock type      HFTyp           .... RHF
 Total Charge           Charge          ....    0
 Multiplicity           Mult            ....    1
 Number of Electrons    NEL             ....   48
 Basis Dimension        Dim             ....  234
 Nuclear Repulsion      ENuc            ....    244.9442821750 Eh

Convergence Acceleration:
 AO-DIIS                CNVDIIS         .... on
   Start iteration      DIISMaxIt       ....    12
   Startup error        DIISStart       ....  0.200000
   # of expansion vecs  DIISMaxEq       ....     5
   Bias factor          DIISBfac        ....   1.050
   Max. coefficient     DIISMaxC        ....  10.000
 MO-DIIS                CNVKDIIS        .... off
 Trust-Rad. Augm. Hess. CNVTRAH         .... auto
   Auto Start mean grad. ratio tolernc. ....  1.125000
   Auto Start start iteration           ....     1
   Auto Start num. interpolation iter.  ....    10
   Max. Number of Micro iterations      ....    24
   Max. Number of Macro iterations      .... Maxiter - #DIIS iter
   Number of Davidson start vectors     ....     2
   Converg. threshold    (grad. norm)   ....   1.000e-04
   Grad. Scal. Fac. for Micro threshold ....   0.100
   Minimum threshold for Micro iter.    ....   1.000e-02
   NR start threshold (gradient norm)   ....   1.000e-04
   Initial trust radius                 ....   0.400
   Minimum AH scaling param. (alpha)    ....   1.000
   Maximum AH scaling param. (alpha)    .... 1000.000
   Quad. conv. algorithm                .... NR
   White noise on init. David. guess    .... on
   Maximum white noise                  ....   0.010
   Pseudo random numbers                .... off
   Inactive MOs                         .... canonical
   Orbital update algorithm             .... Taylor
   Preconditioner                       .... Diag
   Full preconditioner red. dimension   ....   250
 SOSCF                  CNVSOSCF        .... on
   Start iteration      SOSCFMaxIt      ....   150
   Startup grad/error   SOSCFStart      ....  0.003300
   Hessian update       SOSCFHessUp     .... L-BFGS
 Level Shifting         CNVShift        .... on
   Level shift para.    LevelShift      ....    0.2500
   Turn off err/grad.   ShiftErr        ....    0.0010
 Zerner damping         CNVZerner       .... off
 Static damping         CNVDamp         .... on
   Fraction old density DampFac         ....    0.7000
   Max. Damping (<1)    DampMax         ....    0.9800
   Min. Damping (>=0)   DampMin         ....    0.0000
   Turn off err/grad.   DampErr         ....    0.1000

SCF Procedure:
 Maximum # iterations   MaxIter         ....   125
 SCF integral mode      SCFMode         .... Direct
   Integral package                     .... SHARK and LIBINT hybrid scheme
 Reset frequency        DirectResetFreq ....    20
 Integral Threshold     Thresh          ....  3.000e-11 Eh
 Primitive CutOff       TCut            ....  1.000e-12 Eh

Convergence Tolerance:
 Convergence Check Mode ConvCheckMode   .... Total+1el-Energy
 Convergence forced     ConvForced      .... 0
 Energy Change          TolE            ....  1.000e-07 Eh
 1-El. energy change                    ....  1.000e-04 Eh
 Orbital Gradient       TolG            ....  1.000e-04
 Orbital Rotation angle TolX            ....  1.000e-04
 DIIS Error             TolErr          ....  1.000e-07

---------------------
INITIAL GUESS: MOREAD
---------------------
Guess MOs are being read from file: sp.ges
Input Geometry matches current geometry (good)
Atom 0: N(Shells)= 11 and 9 - projection required
Input basis set needs projection
NBasis(read)= 164
NBasis(calc)= 234
Basis set overlap was calculated
Using GuessMode=FMatrix for the initial guess
C*T matrix was formed
Effective Fockian was calculated
Effective Fockian was diagonalized
Initial density was built
                      ------------------
                      INITIAL GUESS DONE (   0.0 sec)
                      ------------------
             **** ENERGY FILE WAS UPDATED (sp.en.tmp) ****
Finished Guess after   0.1 sec
Maximum memory used throughout the entire GUESS-calculation: 19.4 MB

-------------------------------------------------------------------------------------------
                                      ORCA LEAN-SCF
                              memory conserving SCF solver
-------------------------------------------------------------------------------------------

----------------------------------------D-I-I-S--------------------------------------------
Iteration    Energy (Eh)           Delta-E    RMSDP     MaxDP     DIISErr   Damp  Time(sec)
-------------------------------------------------------------------------------------------
               ***  Starting incremental Fock matrix formation  ***
    1    -307.9039277622528061     0.00e+00  8.45e-04  3.10e-02  5.28e-02  0.700  11.7
    2    -307.9079816668978538    -4.05e-03  7.31e-04  2.50e-02  3.82e-02  0.700   6.2
                               ***Turning on AO-DIIS***
    3    -307.9110363037339084    -3.05e-03  6.06e-04  1.91e-02  2.73e-02  0.700   5.9
    4    -307.9132852313393869    -2.25e-03  1.51e-03  4.65e-02  1.92e-02  0.000   5.4
                              *** Initializing SOSCF ***
---------------------------------------S-O-S-C-F--------------------------------------
Iteration    Energy (Eh)           Delta-E    RMSDP     MaxDP     MaxGrad    Time(sec)
--------------------------------------------------------------------------------------
    5    -307.9190151301989999    -5.73e-03  7.12e-05  1.89e-03  1.17e-03     5.7
               *** Restarting incremental Fock matrix formation ***
    6    -307.9190311527760286    -1.60e-05  3.58e-05  9.77e-04  5.26e-04    11.5
    7    -307.9190366892652264    -5.54e-06  2.06e-05  6.49e-04  1.91e-04     8.0
    8    -307.9190374898440723    -8.01e-07  4.09e-06  1.65e-04  7.75e-05     9.5
    9    -307.9190376429903608    -1.53e-07  2.25e-06  5.82e-05  4.30e-05     7.3
   10    -307.9190376756564547    -3.27e-08  4.95e-07  2.07e-05  1.60e-05     7.3
                 **** Energy Check signals convergence ****

               *****************************************************
               *                     SUCCESS                       *
               *           SCF CONVERGED AFTER  10 CYCLES          *
               *****************************************************


------------------
NL GRID GENERATION
------------------

General Integration Accuracy     IntAcc      ... 4.004
Radial Grid Type                 RadialGrid  ... OptM3 with GC (2021)
Angular Grid (max. ang.)         AngularGrid ... 2 (Lebedev-110)
Angular grid pruning method      GridPruning ... 4 (adaptive)
Weight generation scheme         WeightScheme... mBecke (2022)
Basis function cutoff            BFCut       ... 1.0000e-10
Integration weight cutoff        WCut        ... 1.0000e-14
Partially contracted basis set               ... off
Rotationally invariant grid construction     ... off
Angular grids for H and He will be reduced by one unit

Total number of grid points                  ...    19158
Total number of batches                      ...      306
Average number of points per batch           ...       62
Average number of grid points per atom       ...     1368
Final grid set up in    0.1 sec

-------------------------------------------------------------------------------
                    post-SCF DFT-NL dispersion correction                      
-------------------------------------------------------------------------------

SCF Energy:     -307.919037676 
NL    Energy:      0.187744396 
SC+NL Energy:   -307.731293279 
NL done in  :              1.8 sec
-------------------------------------------------------------------------------
Recomputing exchange energy using gridx3       ... done (   22.015 sec)
Old exchange energy                            :    -12.972523232 Eh
New exchange energy                            :    -12.972515173 Eh
Exchange energy change after final integration :      0.000008059 Eh
Total energy after final integration           :   -307.731285221 Eh
             **** ENERGY FILE WAS UPDATED (sp.en.tmp) ****

----------------
TOTAL SCF ENERGY
----------------

Total Energy       :       -307.73128522061916 Eh           -8373.79399 eV

Components:
Nuclear Repulsion  :        244.94428217501135 Eh            6665.27277 eV
Electronic Energy  :       -552.86331985066795 Eh          -15044.17576 eV
One Electron Energy:       -903.26593586167473 Eh          -24579.11569 eV
Two Electron Energy:        350.40261601100684 Eh            9534.93993 eV

Virial components:
Potential Energy   :       -614.25425306854413 Eh          -16714.70799 eV
Kinetic Energy     :        306.52296784792497 Eh            8340.91400 eV
Virial Ratio       :          2.00394201250620

DFT components:
N(Alpha)           :       24.000005949590 electrons
N(Beta)            :       24.000005949590 electrons
N(Total)           :       48.000011899179 electrons
E(X)               :      -27.049819381777 Eh       
E(C)               :       -1.988960995789 Eh       
NL Energy, E(C,NL) :        0.187744396423 Eh       
E(XC)              :      -28.851035981143 Eh       

---------------
SCF CONVERGENCE
---------------

  Last Energy change         ...    3.2666e-08  Tolerance :   1.0000e-07
  Last MAX-Density change    ...    2.0672e-05  Tolerance :   1.0000e-05
  Last RMS-Density change    ...    4.9456e-07  Tolerance :   1.0000e-06
  Last DIIS Error            ...    1.1712e-03  Tolerance :   1.0000e-07
  Last Orbital Gradient      ...    1.6031e-05  Tolerance :   1.0000e-04
  Last Orbital Rotation      ...    2.2997e-05  Tolerance :   1.0000e-04


----------------
ORBITAL ENERGIES
----------------

  NO   OCC          E(Eh)            E(eV) 
   0   2.0000     -19.259294      -524.0720 
   1   2.0000     -19.200275      -522.4660 
   2   2.0000     -10.400302      -283.0066 
   3   2.0000     -10.325877      -280.9814 
   4   2.0000     -10.287391      -279.9341 
   5   2.0000     -10.264768      -279.3185 
   6   2.0000      -1.236757       -33.6539 
   7   2.0000      -1.147324       -31.2203 
   8   2.0000      -0.927185       -25.2300 
   9   2.0000      -0.855836       -23.2885 
  10   2.0000      -0.771635       -20.9973 
  11   2.0000      -0.677943       -18.4478 
  12   2.0000      -0.625560       -17.0224 
  13   2.0000      -0.612976       -16.6799 
  14   2.0000      -0.590753       -16.0752 
  15   2.0000      -0.565593       -15.3906 
  16   2.0000      -0.544375       -14.8132 
  17   2.0000      -0.500350       -13.6152 
  18   2.0000      -0.487338       -13.2611 
  19   2.0000      -0.482743       -13.1361 
  20   2.0000      -0.464524       -12.6403 
  21   2.0000      -0.455357       -12.3909 
  22   2.0000      -0.413391       -11.2489 
  23   2.0000      -0.386166       -10.5081 
  24   0.0000       0.098046         2.6680 
  25   0.0000       0.110644         3.0108 
  26   0.0000       0.137926         3.7532 
  27   0.0000       0.151879         4.1328 
  28   0.0000       0.174880         4.7587 
  29   0.0000       0.177314         4.8250 
  30   0.0000       0.186088         5.0637 
  31   0.0000       0.197833         5.3833 
  32   0.0000       0.205913         5.6032 
  33   0.0000       0.221136         6.0174 
  34   0.0000       0.249059         6.7773 
*Only the first 10 virtual orbitals were printed.

                    ********************************
                    * MULLIKEN POPULATION ANALYSIS *
                    ********************************

-----------------------
MULLIKEN ATOMIC CHARGES
-----------------------
   0 C :   -0.320530
   1 C :   -0.176300
   2 C :    0.302742
   3 O :   -0.341286
   4 O :   -0.248667
   5 C :   -0.188010
   6 H :    0.120781
   7 H :    0.114139
   8 H :    0.114407
   9 H :    0.120781
  10 H :    0.118044
  11 H :    0.128399
  12 H :    0.127672
  13 H :    0.127829
Sum of atomic charges:   -0.0000000

--------------------------------
MULLIKEN REDUCED ORBITAL CHARGES
--------------------------------
  0 C s       :     3.217634  s :     3.217634
      pz      :     1.035476  p :     3.043099
      px      :     0.965658
      py      :     1.041966
      dz2     :     0.018920  d :     0.056403
      dxz     :     0.008360
      dyz     :     0.002864
      dx2y2   :     0.014692
      dxy     :     0.011566
      f0      :     0.000809  f :     0.003394
      f+1     :     0.000549
      f-1     :     0.000148
      f+2     :     0.000262
      f-2     :     0.000241
      f+3     :     0.000523
      f-3     :     0.000860

  1 C s       :     3.146277  s :     3.146277
      pz      :     1.024255  p :     2.939231
      px      :     0.906744
      py      :     1.008232
      dz2     :     0.025143  d :     0.085551
      dxz     :     0.013071
      dyz     :     0.003889
      dx2y2   :     0.026540
      dxy     :     0.016909
      f0      :     0.000837  f :     0.005242
      f+1     :     0.000881
      f-1     :     0.000252
      f+2     :     0.000501
      f-2     :     0.000568
      f+3     :     0.001117
      f-3     :     0.001086

  2 C s       :     3.102313  s :     3.102313
      pz      :     0.738038  p :     2.298275
      px      :     0.804198
      py      :     0.756039
      dz2     :     0.050682  d :     0.272407
      dxz     :     0.053846
      dyz     :     0.031730
      dx2y2   :     0.051150
      dxy     :     0.084999
      f0      :     0.001387  f :     0.024263
      f+1     :     0.002539
      f-1     :     0.003919
      f+2     :     0.002803
      f-2     :     0.004585
      f+3     :     0.006214
      f-3     :     0.002815

  3 O s       :     3.797727  s :     3.797727
      pz      :     1.381324  p :     4.509633
      px      :     1.773452
      py      :     1.354857
      dz2     :     0.007531  d :     0.032013
      dxz     :     0.002617
      dyz     :     0.009002
      dx2y2   :     0.007109
      dxy     :     0.005754
      f0      :     0.000134  f :     0.001914
      f+1     :     0.000028
      f-1     :     0.000526
      f+2     :     0.000349
      f-2     :     0.000288
      f+3     :     0.000299
      f-3     :     0.000291

  4 O s       :     3.742034  s :     3.742034
      pz      :     1.679385  p :     4.466130
      px      :     1.172026
      py      :     1.614719
      dz2     :     0.004793  d :     0.038492
      dxz     :     0.008780
      dyz     :     0.004322
      dx2y2   :     0.007111
      dxy     :     0.013487
      f0      :     0.000228  f :     0.002011
      f+1     :     0.000339
      f-1     :     0.000127
      f+2     :     0.000204
      f-2     :     0.000317
      f+3     :     0.000370
      f-3     :     0.000426

  5 C s       :     3.233062  s :     3.233062
      pz      :     1.069658  p :     2.858886
      px      :     0.772953
      py      :     1.016275
      dz2     :     0.016594  d :     0.088890
      dxz     :     0.021728
      dyz     :     0.008657
      dx2y2   :     0.019185
      dxy     :     0.022725
      f0      :     0.001456  f :     0.007172
      f+1     :     0.000818
      f-1     :     0.000232
      f+2     :     0.000739
      f-2     :     0.000784
      f+3     :     0.001577
      f-3     :     0.001565

  6 H s       :     0.857997  s :     0.857997
      pz      :     0.004425  p :     0.021222
      px      :     0.004158
      py      :     0.012639

  7 H s       :     0.864755  s :     0.864755
      pz      :     0.012762  p :     0.021106
      px      :     0.004077
      py      :     0.004268

  8 H s       :     0.864587  s :     0.864587
      pz      :     0.004972  p :     0.021006
      px      :     0.010268
      py      :     0.005766

  9 H s       :     0.857648  s :     0.857648
      pz      :     0.004536  p :     0.021570
      px      :     0.004047
      py      :     0.012988

 10 H s       :     0.860307  s :     0.860307
      pz      :     0.013257  p :     0.021649
      px      :     0.004027
      py      :     0.004365

 11 H s       :     0.851427  s :     0.851427
      pz      :     0.013358  p :     0.020174
      px      :     0.002950
      py      :     0.003867

 12 H s       :     0.852059  s :     0.852059
      pz      :     0.005536  p :     0.020269
      px      :     0.007854
      py      :     0.006878

 13 H s       :     0.852022  s :     0.852022
      pz      :     0.005118  p :     0.020149
      px      :     0.002840
      py      :     0.012191


------------------------
MULLIKEN OVERLAP CHARGES
------------------------
B(  0-C ,  1-C ) :   0.5920 B(  0-C ,  2-C ) :  -0.0855 B(  0-C ,  6-H ) :   0.8144 
B(  0-C ,  7-H ) :   0.8172 B(  0-C ,  8-H ) :   0.8303 B(  0-C ,  9-H ) :  -0.0646 
B(  0-C , 10-H ) :  -0.0515 B(  1-C ,  2-C ) :   0.6758 B(  1-C ,  3-O ) :  -0.1953 
B(  1-C ,  4-O ) :  -0.2190 B(  1-C ,  7-H ) :  -0.0532 B(  1-C ,  8-H ) :  -0.0949 
B(  1-C ,  9-H ) :   0.8147 B(  1-C , 10-H ) :   0.7821 B(  2-C ,  3-O ) :   1.3669 
B(  2-C ,  4-O ) :   0.7859 B(  2-C ,  5-C ) :  -0.0940 B(  2-C ,  9-H ) :  -0.0600 
B(  3-O ,  4-O ) :  -0.1834 B(  4-O ,  5-C ) :   0.4708 B(  4-O , 11-H ) :  -0.0720 
B(  4-O , 12-H ) :  -0.0642 B(  4-O , 13-H ) :  -0.0743 B(  5-C , 11-H ) :   0.8419 
B(  5-C , 12-H ) :   0.7897 B(  5-C , 13-H ) :   0.8433 B(  6-H ,  8-H ) :  -0.0503 
B(  7-H ,  8-H ) :  -0.0504 B( 11-H , 12-H ) :  -0.0513 B( 11-H , 13-H ) :  -0.0754 
B( 12-H , 13-H ) :  -0.0513 


                     *******************************
                     * LOEWDIN POPULATION ANALYSIS *
                     *******************************

----------------------
LOEWDIN ATOMIC CHARGES
----------------------
   0 C :   -0.294409
   1 C :   -0.253291
   2 C :   -0.466593
   3 O :    0.103958
   4 O :    0.216086
   5 C :   -0.297664
   6 H :    0.123929
   7 H :    0.122287
   8 H :    0.117252
   9 H :    0.147823
  10 H :    0.150470
  11 H :    0.110478
  12 H :    0.109406
  13 H :    0.110268

-------------------------------
LOEWDIN REDUCED ORBITAL CHARGES
-------------------------------
  0 C s       :     2.825138  s :     2.825138
      pz      :     1.071056  p :     3.184242
      px      :     1.039263
      py      :     1.073923
      dz2     :     0.079266  d :     0.260019
      dxz     :     0.041621
      dyz     :     0.016688
      dx2y2   :     0.069413
      dxy     :     0.053030
      f0      :     0.003404  f :     0.025010
      f+1     :     0.003454
      f-1     :     0.001896
      f+2     :     0.003930
      f-2     :     0.004427
      f+3     :     0.003133
      f-3     :     0.004766

  1 C s       :     2.775923  s :     2.775923
      pz      :     1.029837  p :     3.070660
      px      :     1.013722
      py      :     1.027101
      dz2     :     0.100155  d :     0.369538
      dxz     :     0.063238
      dyz     :     0.020130
      dx2y2   :     0.107609
      dxy     :     0.078407
      f0      :     0.004483  f :     0.037170
      f+1     :     0.005409
      f-1     :     0.002538
      f+2     :     0.005166
      f-2     :     0.006387
      f+3     :     0.006587
      f-3     :     0.006600

  2 C s       :     2.759223  s :     2.759223
      pz      :     0.796356  p :     2.623969
      px      :     0.918899
      py      :     0.908714
      dz2     :     0.141421  d :     0.933102
      dxz     :     0.174497
      dyz     :     0.144174
      dx2y2   :     0.191088
      dxy     :     0.281922
      f0      :     0.011533  f :     0.150299
      f+1     :     0.015460
      f-1     :     0.016427
      f+2     :     0.017870
      f-2     :     0.029303
      f+3     :     0.040021
      f-3     :     0.019685

  3 O s       :     3.394064  s :     3.394064
      pz      :     1.372107  p :     4.428887
      px      :     1.615937
      py      :     1.440844
      dz2     :     0.009096  d :     0.067003
      dxz     :     0.005883
      dyz     :     0.023187
      dx2y2   :     0.015733
      dxy     :     0.013105
      f0      :     0.000512  f :     0.006088
      f+1     :     0.000063
      f-1     :     0.001140
      f+2     :     0.001557
      f-2     :     0.001027
      f+3     :     0.000934
      f-3     :     0.000854

  4 O s       :     3.265031  s :     3.265031
      pz      :     1.582825  p :     4.408035
      px      :     1.257594
      py      :     1.567616
      dz2     :     0.012260  d :     0.104403
      dxz     :     0.023994
      dyz     :     0.007036
      dx2y2   :     0.027369
      dxy     :     0.033744
      f0      :     0.000441  f :     0.006445
      f+1     :     0.000935
      f-1     :     0.000311
      f+2     :     0.000589
      f-2     :     0.001381
      f+3     :     0.001638
      f-3     :     0.001152

  5 C s       :     2.863938  s :     2.863938
      pz      :     1.100506  p :     3.020774
      px      :     0.854761
      py      :     1.065507
      dz2     :     0.073236  d :     0.361624
      dxz     :     0.076530
      dyz     :     0.033343
      dx2y2   :     0.079131
      dxy     :     0.099385
      f0      :     0.006862  f :     0.051328
      f+1     :     0.005643
      f-1     :     0.001665
      f+2     :     0.007431
      f-2     :     0.008832
      f+3     :     0.009873
      f-3     :     0.011021

  6 H s       :     0.814973  s :     0.814973
      pz      :     0.013912  p :     0.061098
      px      :     0.012356
      py      :     0.034830

  7 H s       :     0.817080  s :     0.817080
      pz      :     0.034926  p :     0.060633
      px      :     0.012420
      py      :     0.013287

  8 H s       :     0.822452  s :     0.822452
      pz      :     0.015683  p :     0.060296
      px      :     0.026677
      py      :     0.017936

  9 H s       :     0.793275  s :     0.793275
      pz      :     0.014030  p :     0.058902
      px      :     0.012113
      py      :     0.032759

 10 H s       :     0.790748  s :     0.790748
      pz      :     0.033388  p :     0.058782
      px      :     0.012158
      py      :     0.013237

 11 H s       :     0.828066  s :     0.828066
      pz      :     0.039708  p :     0.061455
      px      :     0.009381
      py      :     0.012366

 12 H s       :     0.830215  s :     0.830215
      pz      :     0.017379  p :     0.060379
      px      :     0.021759
      py      :     0.021241

 13 H s       :     0.828340  s :     0.828340
      pz      :     0.016212  p :     0.061392
      px      :     0.009124
      py      :     0.036056


---------------------------------
LOEWDIN BOND ORDERS (THRESH 0.050000)
---------------------------------
B(  0-C ,  1-C ) :   1.2809 B(  0-C ,  2-C ) :   0.1481 B(  0-C ,  6-H ) :   0.9039 
B(  0-C ,  7-H ) :   0.9054 B(  0-C ,  8-H ) :   0.9066 B(  0-C ,  9-H ) :   0.0711 
B(  0-C , 10-H ) :   0.0716 B(  1-C ,  2-C ) :   1.1712 B(  1-C ,  3-O ) :   0.1555 
B(  1-C ,  4-O ) :   0.1397 B(  1-C ,  6-H ) :   0.0785 B(  1-C ,  7-H ) :   0.0785 
B(  1-C ,  8-H ) :   0.0832 B(  1-C ,  9-H ) :   0.8359 B(  1-C , 10-H ) :   0.8309 
B(  2-C ,  3-O ) :   2.6489 B(  2-C ,  4-O ) :   1.6570 B(  2-C ,  5-C ) :   0.1983 
B(  2-C ,  9-H ) :   0.0869 B(  2-C , 10-H ) :   0.0903 B(  3-O ,  4-O ) :   0.1703 
B(  3-O ,  5-C ) :   0.0670 B(  4-O ,  5-C ) :   1.3805 B(  4-O , 12-H ) :   0.0517 
B(  5-C , 11-H ) :   0.9378 B(  5-C , 12-H ) :   0.9403 B(  5-C , 13-H ) :   0.9380 


------------------------------------------
LOEWDIN REDUCED ORBITAL POPULATIONS PER MO
-------------------------------------------
THRESHOLD FOR PRINTING IS 0.1%%
                      0         1         2         3         4         5   
                 -19.25929 -19.20027 -10.40030 -10.32588 -10.28739 -10.26477
                   2.00000   2.00000   2.00000   2.00000   2.00000   2.00000
                  --------  --------  --------  --------  --------  --------
 0 C  s               0.0       0.0       0.0       0.0       0.0      99.4
 1 C  s               0.0       0.0       0.0       0.0      99.2       0.0
 2 C  s               0.0       0.0      99.0       0.0       0.0       0.0
 2 C  dyz             0.0       0.1       0.0       0.0       0.0       0.0
 3 O  s               0.0      99.6       0.0       0.0       0.0       0.0
 3 O  py              0.0       0.0       0.2       0.0       0.0       0.0
 3 O  dyz             0.0       0.0       0.2       0.0       0.0       0.0
 4 O  s              99.7       0.0       0.0       0.0       0.0       0.0
 5 C  s               0.0       0.0       0.0      99.6       0.0       0.0

                      6         7         8         9        10        11   
                  -1.23676  -1.14732  -0.92719  -0.85584  -0.77164  -0.67794
                   2.00000   2.00000   2.00000   2.00000   2.00000   2.00000
                  --------  --------  --------  --------  --------  --------
 0 C  s               0.1       0.1      14.7       9.2      16.2       1.0
 0 C  pz              0.0       0.0       0.6       0.0       0.8       0.9
 0 C  px              0.3       0.2       2.4       0.0       3.7       1.4
 0 C  py              0.0       0.0       0.5       0.0       0.5       0.7
 0 C  dxz             0.0       0.0       0.3       0.0       0.2       0.1
 0 C  dx2y2           0.0       0.0       0.2       0.0       0.2       0.0
 0 C  dxy             0.0       0.0       0.2       0.0       0.2       0.1
 1 C  s               1.1       0.1      26.2       1.1       6.3       2.3
 1 C  pz              0.1       0.2       0.3       0.2       1.2       1.1
 1 C  px              1.9       0.0       0.2       5.2       8.0       0.8
 1 C  py              0.4       0.5       0.3       0.1       0.7       1.2
 1 C  dz2             0.1       0.0       0.1       0.0       0.0       0.2
 1 C  dxz             0.1       0.1       0.1       0.2       0.6       0.0
 1 C  dyz             0.0       0.1       0.0       0.0       0.0       0.0
 1 C  dx2y2           0.1       0.1       0.3       0.0       0.2       0.6
 1 C  dxy             0.2       0.1       0.0       0.3       0.6       0.0
 1 C  f-3             0.0       0.0       0.1       0.0       0.0       0.0
 2 C  s              18.3       3.1       3.7       2.4       1.7       4.1
 2 C  pz              0.1       6.7       1.8       0.9       0.6       0.4
 2 C  px              4.3       2.7       7.0       1.2       4.8       2.8
 2 C  py              0.2      14.6       4.4       1.8       1.1       1.0
 2 C  dz2             0.4       0.1       0.1       0.0       0.0       0.0
 2 C  dxz             0.4       0.5       0.1       0.1       0.5       0.0
 2 C  dyz             1.6       1.2       0.0       0.0       0.0       0.5
 2 C  dx2y2           0.0       2.6       0.4       0.2       0.0       0.1
 2 C  dxy             0.7       1.0       0.4       0.3       0.9       0.0
 2 C  f0              0.0       0.3       0.0       0.0       0.0       0.0
 2 C  f+2             0.3       0.2       0.0       0.0       0.0       0.0
 2 C  f-2             0.1       0.0       0.0       0.0       0.1       0.0
 2 C  f-3             0.5       0.0       0.0       0.0       0.0       0.0
 3 O  s              14.8      35.1       1.8       0.3       0.4       3.2
 3 O  pz              1.1       0.9       0.1       0.1       0.1       1.3
 3 O  px              0.1       0.2       0.4       0.0       0.3       1.1
 3 O  py              2.4       2.0       0.3       0.2       0.2       3.1
 3 O  dyz             0.2       0.1       0.0       0.0       0.0       0.1
 3 O  dx2y2           0.1       0.1       0.0       0.0       0.0       0.0
 4 O  s              32.5      18.7       0.1       0.6       2.0       4.2
 4 O  pz              0.8       0.1       0.0       0.0       0.0       3.7
 4 O  px              0.3       0.5       5.1      19.5       0.0      18.0
 4 O  py              1.7       0.2       0.1       0.2       0.1       6.7
 4 O  dxz             0.0       0.0       0.0       0.2       0.0       0.1
 4 O  dx2y2           0.0       0.1       0.0       0.0       0.2       0.0
 4 O  dxy             0.0       0.0       0.1       0.5       0.0       0.2
 5 C  s               4.1       2.5       2.8      23.8       6.6       2.7
 5 C  pz              0.2       0.3       0.0       0.0       0.1       3.4
 5 C  px              4.9       1.5       0.1       0.6       2.4       4.3
 5 C  py              0.5       0.7       0.0       0.0       0.4       8.4
 5 C  dz2             0.4       0.2       0.0       0.0       0.1       0.1
 5 C  dxz             0.2       0.2       0.0       0.0       0.0       0.3
 5 C  dyz             0.0       0.0       0.0       0.0       0.0       0.3
 5 C  dx2y2           0.8       0.2       0.0       0.1       0.2       0.0
 5 C  dxy             0.6       0.5       0.0       0.0       0.2       0.8
 5 C  f-2             0.0       0.0       0.0       0.0       0.0       0.1
 5 C  f-3             0.2       0.1       0.0       0.0       0.0       0.1
 6 H  s               0.0       0.0       2.8       2.3       6.1       0.8
 6 H  py              0.0       0.0       0.3       0.2       0.5       0.1
 7 H  s               0.0       0.0       2.9       2.3       6.2       1.0
 7 H  pz              0.0       0.0       0.3       0.2       0.6       0.1
 8 H  s               0.0       0.0       2.9       2.5       6.8       0.5
 8 H  pz              0.0       0.0       0.0       0.0       0.1       0.0
 8 H  px              0.0       0.0       0.2       0.2       0.3       0.0
 8 H  py              0.0       0.0       0.0       0.0       0.2       0.0
 9 H  s               0.2       0.0       5.7       0.1       2.9       1.8
 9 H  py              0.0       0.0       0.5       0.0       0.3       0.1
10 H  s               0.2       0.0       5.7       0.2       3.1       2.1
10 H  pz              0.0       0.0       0.5       0.0       0.3       0.1
11 H  s               0.6       0.2       0.6       6.2       2.7       4.9
11 H  pz              0.0       0.0       0.1       0.7       0.3       0.3
12 H  s               0.5       0.4       0.6       7.4       3.0       0.3
12 H  pz              0.0       0.0       0.0       0.1       0.1       0.0
12 H  px              0.0       0.0       0.0       0.4       0.1       0.0
12 H  py              0.0       0.0       0.0       0.3       0.1       0.1
13 H  s               0.6       0.2       0.6       6.2       2.8       4.8
13 H  pz              0.0       0.0       0.0       0.1       0.1       0.2
13 H  py              0.0       0.0       0.1       0.6       0.2       0.2

                     12        13        14        15        16        17   
                  -0.62556  -0.61298  -0.59075  -0.56559  -0.54437  -0.50035
                   2.00000   2.00000   2.00000   2.00000   2.00000   2.00000
                  --------  --------  --------  --------  --------  --------
 0 C  s               0.0       0.0       0.1       0.0       0.0       0.0
 0 C  pz              2.8       2.0       0.7       8.9       1.8      12.6
 0 C  px              0.7       0.1       1.4       0.3       8.7       0.3
 0 C  py              4.3       1.9       0.4       7.0       3.9       4.0
 0 C  dz2             0.0       0.0       0.0       0.0       0.0       0.5
 0 C  dxz             0.0       0.1       0.1       0.1       0.1       0.0
 0 C  dyz             0.3       0.0       0.0       0.0       0.1       0.0
 0 C  dx2y2           0.1       0.0       0.0       0.0       0.0       0.1
 0 C  dxy             0.1       0.1       0.0       0.1       0.1       0.0
 1 C  s               1.3       0.0       0.3       0.0       0.2       0.0
 1 C  pz              6.3       7.5       0.1      11.9       2.2       0.0
 1 C  px              6.4       0.0       1.6       0.1       0.4       1.0
 1 C  py             10.7       5.8       0.4       8.1       3.2       0.4
 1 C  dz2             0.1       0.0       0.0       0.1       0.0       0.0
 1 C  dxz             0.1       0.1       0.0       0.1       0.0       0.8
 1 C  dyz             0.4       0.0       0.0       0.0       0.1       0.0
 1 C  dx2y2           0.1       0.0       0.1       0.1       0.1       0.0
 1 C  dxy             0.3       0.1       0.0       0.1       0.1       0.8
 1 C  f+1             0.0       0.0       0.0       0.0       0.0       0.1
 2 C  s               2.3       0.0       1.1       0.0       0.7       0.0
 2 C  pz              0.0      12.4       2.3       0.2       1.0       9.8
 2 C  px             12.5       0.0       0.0       0.0       1.8       0.2
 2 C  py              0.3       6.1       3.7       0.1       2.5       3.9
 2 C  dz2             0.0       0.0       0.1       0.0       0.2       0.4
 2 C  dxz             0.3       0.1       0.2       1.0       0.0       0.0
 2 C  dyz             0.1       0.0       1.7       0.0       0.1       0.1
 2 C  dx2y2           0.1       0.1       2.3       0.0       0.8       0.3
 2 C  dxy             0.6       0.0       0.2       0.7       0.0       0.1
 2 C  f-1             0.0       0.3       0.0       0.0       0.0       0.3
 3 O  s               1.8       0.1       9.3       0.1       1.9       0.0
 3 O  pz              0.9       7.2       8.5       0.0       5.4      14.0
 3 O  px             10.2       0.0       0.0       0.0       0.4       0.1
 3 O  py              3.5       1.6      22.4       0.4      10.5       5.9
 3 O  dz2             0.0       0.2       0.0       0.0       0.0       0.2
 3 O  dxz             0.1       0.0       0.0       0.0       0.0       0.0
 3 O  dyz             0.0       0.1       0.3       0.0       0.1       0.0
 3 O  dx2y2           0.0       0.1       0.1       0.0       0.1       0.1
 3 O  dxy             0.2       0.0       0.0       0.0       0.0       0.0
 4 O  s               0.4       0.0       0.9       0.0       0.0       0.0
 4 O  pz              1.5      15.4       5.3       4.8       0.9       1.4
 4 O  px              1.0       0.0       9.6       0.1       1.3       0.2
 4 O  py              4.7       7.9       7.6       2.6       2.6       0.7
 4 O  dz2             0.0       0.1       0.0       0.0       0.0       0.0
 4 O  dxz             0.0       0.0       0.0       0.1       0.1       0.4
 4 O  dx2y2           0.1       0.0       0.0       0.0       0.0       0.0
 4 O  dxy             0.0       0.0       0.0       0.1       0.3       0.1
 5 C  s               0.0       0.0       0.6       0.0       0.1       0.0
 5 C  pz              1.6       9.7       0.4      14.2       3.2      11.5
 5 C  px              1.3       0.1      10.3       0.1      10.8       0.1
 5 C  py              4.4       4.0       0.1       5.3       8.5       4.0
 5 C  dz2             0.0       0.0       0.0       0.2       0.1       0.5
 5 C  dxz             0.0       0.3       0.0       0.0       0.2       0.3
 5 C  dyz             0.1       0.0       0.0       0.0       0.2       0.1
 5 C  dx2y2           0.0       0.0       0.2       0.0       0.0       0.1
 5 C  dxy             0.0       0.1       0.1       0.0       0.4       0.0
 6 H  s               1.0       0.9       0.3       4.1       0.8       3.5
 6 H  px              0.0       0.0       0.0       0.0       0.1       0.0
 6 H  py              0.0       0.0       0.0       0.2       0.0       0.1
 7 H  s               0.8       0.7       0.4       4.0       0.5       7.3
 7 H  pz              0.0       0.0       0.0       0.1       0.0       0.2
 8 H  s               1.2       0.0       0.3       0.0       6.9       0.0
 8 H  pz              0.0       0.0       0.0       0.1       0.0       0.2
 8 H  px              0.1       0.0       0.0       0.0       0.1       0.0
 9 H  s               4.8       3.4       0.1       5.4       0.5       0.2
 9 H  pz              0.2       0.0       0.0       0.0       0.0       0.0
 9 H  px              0.1       0.0       0.0       0.0       0.0       0.0
 9 H  py              0.1       0.1       0.0       0.2       0.0       0.0
10 H  s               4.7       2.9       0.0       5.7       0.5       0.0
10 H  pz              0.2       0.1       0.0       0.2       0.0       0.0
10 H  py              0.1       0.0       0.0       0.1       0.0       0.0
11 H  s               0.4       3.5       0.2       6.0       0.9       5.9
11 H  pz              0.0       0.1       0.0       0.2       0.0       0.1
11 H  px              0.0       0.0       0.1       0.0       0.2       0.0
12 H  s               2.5       0.0       4.0       0.0      11.7       0.1
12 H  pz              0.0       0.1       0.0       0.2       0.1       0.1
12 H  px              0.1       0.0       0.0       0.0       0.1       0.0
12 H  py              0.0       0.0       0.1       0.1       0.1       0.1
13 H  s               0.5       3.2       0.9       5.2       1.4       5.5
13 H  pz              0.0       0.0       0.0       0.0       0.1       0.0
13 H  px              0.0       0.0       0.1       0.0       0.2       0.0
13 H  py              0.0       0.2       0.0       0.2       0.0       0.2

                     18        19        20        21        22        23   
                  -0.48734  -0.48274  -0.46452  -0.45536  -0.41339  -0.38617
                   2.00000   2.00000   2.00000   2.00000   2.00000   2.00000
                  --------  --------  --------  --------  --------  --------
 0 C  s               0.2       0.1       0.0       0.0       0.0       0.1
 0 C  pz              0.1      11.0       0.8      10.3       0.3       0.1
 0 C  px             25.5       1.5       5.1       0.1       0.0       0.2
 0 C  py              0.0      20.3       3.0       6.8       0.2       0.0
 0 C  dz2             0.2       0.3       0.2       2.5       0.1       0.1
 0 C  dxz             0.5       0.0       0.1       0.3       0.0       0.0
 0 C  dyz             0.0       0.1       0.0       0.0       0.0       0.1
 0 C  dx2y2           0.1       1.3       0.7       0.5       0.0       0.3
 0 C  dxy             0.6       0.1       0.4       0.4       0.0       0.0
 1 C  s               0.3       0.1       0.0       0.0       0.0       0.3
 1 C  pz              1.6       5.9       0.4      10.7       0.2       1.6
 1 C  px             10.7       6.7       3.8       0.2       0.0       3.5
 1 C  py              1.7       6.3       1.6       6.7       0.1       3.0
 1 C  dz2             0.0       0.5       0.1       3.5       0.0       0.0
 1 C  dxz             0.6       0.1       0.2       0.1       0.0       0.0
 1 C  dx2y2           0.0       1.7       0.8       0.8       0.0       0.3
 1 C  dxy             0.4       0.1       0.5       0.2       0.0       0.0
 1 C  f-2             0.1       0.0       0.0       0.0       0.0       0.0
 1 C  f-3             0.0       0.0       0.0       0.1       0.0       0.0
 2 C  s               0.1       0.0       1.0       0.0       0.0       0.4
 2 C  pz              0.3       0.1       1.4       1.3       0.3       0.1
 2 C  px              5.3       0.8       1.0       0.0       0.0       1.6
 2 C  py              0.4       0.1       4.1       0.4       0.1       0.4
 2 C  dz2             0.1       0.1       0.0       1.4       3.9       0.0
 2 C  dxz             0.0       0.6       0.2       0.5       1.1       3.1
 2 C  dyz             0.1       0.0       0.3       0.3       0.9       0.0
 2 C  dx2y2           0.3       0.1       0.7       0.5       1.1       0.0
 2 C  dxy             0.0       0.7       0.4       0.3       0.6       7.1
 2 C  f0              0.0       0.0       0.0       0.0       0.1       0.0
 2 C  f+1             0.0       0.0       0.0       0.0       0.3       0.1
 2 C  f-1             0.0       0.0       0.0       0.1       0.1       0.0
 2 C  f+2             0.0       0.0       0.0       0.0       0.1       0.0
 2 C  f-2             0.1       0.0       0.2       0.0       0.1       0.5
 2 C  f+3             0.1       0.1       0.3       0.1       0.1       1.0
 2 C  f-3             0.0       0.0       0.0       0.0       0.2       0.1
 3 O  s               0.1       0.0       1.2       0.0       0.0       0.0
 3 O  pz              0.1       0.1       4.2       7.8      16.6       0.1
 3 O  px              4.1       1.8       0.1       0.0       0.0      62.0
 3 O  py              1.2       0.6       6.1       3.9       7.5       0.0
 3 O  dxy             0.1       0.0       0.0       0.0       0.0       0.1
 4 O  s               0.2       0.8       2.7       0.0       0.0       0.2
 4 O  pz              0.5       1.6       8.5       0.1      32.1       2.2
 4 O  px              2.3       1.0       1.5       0.0       0.0       2.4
 4 O  py              2.8       2.3      18.7       0.6      13.8       4.7
 4 O  dz2             0.0       0.0       0.2       0.0       0.1       0.0
 4 O  dx2y2           0.0       0.1       0.7       0.0       0.0       0.0
 4 O  dxy             0.3       0.0       0.0       0.0       0.0       0.0
 5 C  s               0.0       0.0       0.2       0.0       0.0       0.1
 5 C  pz              1.2       2.0       3.1       0.4       3.8       0.0
 5 C  px              4.5       0.1       0.8       0.0       0.0       0.9
 5 C  py              6.7       1.8       6.1       0.6       1.6       0.1
 5 C  dz2             0.1       0.1       0.2       0.0       1.5       0.0
 5 C  dxz             0.3       0.2       0.3       0.0       1.4       0.0
 5 C  dyz             0.1       0.0       0.0       0.0       0.5       0.2
 5 C  dx2y2           0.5       0.1       0.6       0.0       0.6       0.2
 5 C  dxy             0.9       0.2       0.5       0.0       0.5       0.0
 5 C  f0              0.0       0.0       0.0       0.0       0.1       0.0
 5 C  f+2             0.0       0.0       0.0       0.0       0.2       0.0
 5 C  f+3             0.1       0.0       0.1       0.0       0.1       0.1
 6 H  s               0.1       8.3       1.4       7.9       0.2       0.1
 6 H  pz              0.0       0.3       0.0       0.1       0.0       0.0
 6 H  px              0.3       0.0       0.1       0.0       0.0       0.0
 6 H  py              0.0       0.1       0.0       0.1       0.0       0.0
 7 H  s               0.2       4.7       0.5       8.9       0.2       0.1
 7 H  pz              0.0       0.0       0.0       0.1       0.0       0.0
 7 H  px              0.3       0.0       0.1       0.0       0.0       0.0
 7 H  py              0.0       0.3       0.1       0.1       0.0       0.0
 8 H  s              10.4       3.5       5.8       0.0       0.0       0.2
 8 H  pz              0.1       0.0       0.0       0.1       0.0       0.0
 8 H  px              0.0       0.3       0.1       0.0       0.0       0.0
 8 H  py              0.2       0.1       0.0       0.1       0.0       0.0
 9 H  s               0.4       3.3       0.9       8.9       0.1       0.8
 9 H  pz              0.0       0.2       0.0       0.1       0.0       0.1
 9 H  px              0.2       0.1       0.1       0.0       0.0       0.1
 9 H  py              0.0       0.0       0.0       0.1       0.0       0.0
10 H  s               0.2       3.3       0.3      10.1       0.1       0.6
10 H  pz              0.0       0.0       0.0       0.1       0.0       0.0
10 H  px              0.2       0.1       0.1       0.0       0.0       0.1
10 H  py              0.0       0.1       0.0       0.1       0.0       0.1
11 H  s               0.7       1.5       2.6       0.2       4.2       0.1
12 H  s               7.6       1.0       2.3       0.0       0.0       0.1
12 H  px              0.1       0.0       0.1       0.0       0.0       0.0
13 H  s               2.4       0.4       2.0       0.5       4.3       0.1
13 H  pz              0.1       0.1       0.1       0.0       0.0       0.0

                     24        25        26        27        28        29   
                   0.09805   0.11064   0.13793   0.15188   0.17488   0.17731
                   0.00000   0.00000   0.00000   0.00000   0.00000   0.00000
                  --------  --------  --------  --------  --------  --------
 0 C  s               0.4       3.8       1.8       5.9       0.3       0.1
 0 C  pz              0.3       0.3       0.1       1.2       4.3       2.3
 0 C  px              0.0       0.6       0.9       5.3       0.5       0.1
 0 C  py              0.1       0.6       0.1       0.5       1.9       4.5
 0 C  dz2             0.1       0.0       0.0       0.0       0.8       1.3
 0 C  dxz             0.3       0.4       0.1       0.5       0.6       0.3
 0 C  dyz             0.0       0.4       0.1       0.1       0.1       0.0
 0 C  dx2y2           0.0       0.1       0.0       0.1       0.3       0.5
 0 C  dxy             0.0       0.5       0.1       0.3       0.6       1.1
 1 C  s               0.3       4.4       0.6       2.5       0.8       0.1
 1 C  pz              0.4       0.6       0.2       1.2       4.4       4.5
 1 C  px              0.0       0.1       0.3       2.2       1.4       0.0
 1 C  py              0.0       1.0       0.5       0.7       2.2       6.9
 1 C  dz2             4.3       0.0       0.0       0.0       0.5       1.2
 1 C  dxz             3.0       0.0       0.0       0.8       0.1       0.4
 1 C  dyz             0.1       1.1       0.1       0.0       0.3       0.0
 1 C  dx2y2           0.9       0.8       0.0       0.4       0.6       0.6
 1 C  dxy             0.5       0.4       0.0       0.8       0.0       0.7
 1 C  f0              0.1       0.0       0.0       0.1       0.0       0.0
 2 C  s               0.3       4.6       0.4       0.5       1.7       0.2
 2 C  pz             26.5       1.2       0.1       1.0       1.0       3.7
 2 C  px              0.1       0.3       0.5       1.1       0.7       0.0
 2 C  py             10.9       2.2       0.1       0.8       0.2       2.8
 2 C  dz2             0.8       1.1       0.0       0.2       0.6       0.2
 2 C  dxz             0.7       0.0       0.0       0.0       0.3       0.2
 2 C  dyz             1.0       2.2       0.1       0.1       0.3       0.0
 2 C  dx2y2           0.6       0.0       0.0       0.3       0.9       0.1
 2 C  dxy             0.2       0.2       0.0       0.0       0.0       0.3
 2 C  f-1             1.4       0.0       0.0       0.0       0.0       0.1
 2 C  f-3             0.0       0.1       0.0       0.1       0.1       0.0
 3 O  s               0.0       0.7       0.1       0.0       0.4       0.1
 3 O  pz             13.2       1.2       0.0       0.0       0.1       1.0
 3 O  px              0.0       0.0       0.7       0.4       0.5       0.0
 3 O  py              6.3       0.3       0.0       0.1       0.0       0.7
 3 O  dz2             1.7       0.2       0.0       0.0       0.0       0.1
 3 O  dyz             0.5       0.0       0.0       0.0       0.0       0.0
 3 O  dx2y2           0.6       0.0       0.0       0.0       0.1       0.0
 3 O  f-1             0.2       0.0       0.0       0.0       0.0       0.0
 4 O  s               0.0       0.6       0.2       3.0       1.9       0.0
 4 O  pz              4.1       0.2       0.1       0.2       0.5       0.4
 4 O  px              0.0       0.0       0.6       0.6       0.9       0.0
 4 O  py              1.6       0.2       0.2       0.4       0.6       0.8
 4 O  dz2             0.4       0.0       0.1       0.0       0.1       0.0
 4 O  dxz             0.8       0.0       0.1       0.0       0.0       0.1
 4 O  dx2y2           0.1       0.1       0.1       0.1       0.3       0.0
 4 O  dxy             0.3       0.1       0.2       0.1       0.0       0.1
 5 C  s               0.1       2.1      10.2       1.1       0.6       0.0
 5 C  pz              0.1       0.2       0.1       1.4       1.6       0.8
 5 C  px              0.0       1.0       3.5      11.5      14.4       0.5
 5 C  py              0.0       0.7       0.4       3.5       4.5       2.1
 5 C  dz2             0.7       0.1       0.1       0.8       2.3       0.2
 5 C  dxz             0.2       0.1       0.0       0.4       0.2       0.0
 5 C  dyz             0.1       0.2       0.1       0.2       0.6       0.5
 5 C  dx2y2           0.2       0.3       0.1       1.2       1.8       0.4
 5 C  dxy             0.1       0.1       0.0       1.3       1.0       0.1
 5 C  f0              0.0       0.0       0.1       0.0       0.0       0.0
 5 C  f-3             0.0       0.0       0.1       0.1       0.1       0.0
 6 H  s               0.5       5.7       2.2       7.4       3.9      10.1
 6 H  pz              0.0       0.1       0.0       0.0       0.3       0.0
 6 H  px              0.0       0.0       0.0       0.0       0.1       0.1
 6 H  py              0.0       0.6       0.3       1.0       0.2       1.1
 7 H  s               0.7       6.7       2.6       9.3      11.4       3.0
 7 H  pz              0.1       0.7       0.3       1.3       1.0       0.4
 7 H  py              0.0       0.1       0.0       0.0       0.1       0.1
 8 H  s               0.6       6.2       4.7       9.6       5.4       0.2
 8 H  pz              0.1       0.2       0.1       0.1       0.0       0.0
 8 H  px              0.0       0.4       0.3       0.9       0.4       0.0
 8 H  py              0.0       0.3       0.2       0.2       0.1       0.0
 9 H  s               2.1      16.7       2.3       4.4       1.8      20.9
 9 H  pz              0.1       0.3       0.1       0.0       0.0       0.0
 9 H  px              0.0       0.0       0.0       0.1       0.0       0.1
[...]
12 H  s               0.0       0.0       0.1       0.0       0.0       0.0

                    222       223       224       225       226       227   
                   6.93743   6.98007   7.10863   7.21604   7.35564   7.48133
                   0.00000   0.00000   0.00000   0.00000   0.00000   0.00000
                  --------  --------  --------  --------  --------  --------
 1 C  s               0.1       0.0       0.1       0.1       0.0       0.1
 1 C  px              0.2       0.0       0.1       0.0       0.0       0.0
 1 C  dx2y2           0.4       0.0       0.0       0.0       0.2       0.0
 1 C  f-2             0.1       0.0       0.0       0.0       0.1       0.0
 1 C  f+3             0.2       0.0       0.0       0.0       0.1       0.0
 2 C  s               0.3       0.0       0.4       3.8       1.5       0.2
 2 C  pz              0.0       0.1       0.2       0.5       0.0       0.0
 2 C  px              0.1       0.0       1.4       0.4       0.4       0.1
 2 C  py              0.0       0.1       0.4       1.1       0.1       0.1
 2 C  dz2             0.1       1.6       0.0       0.0       0.0       0.1
 2 C  dxz             0.7       0.1       0.5       0.1       1.1       0.0
 2 C  dyz             0.0       0.4       0.1       0.3       0.0       0.6
 2 C  dx2y2           0.5       0.4       0.1       0.0       0.1       1.3
 2 C  dxy             1.5       0.1       1.3       0.3       2.5       0.1
 2 C  f0              0.1       0.0       0.2       0.1       0.0       0.1
 2 C  f+1             0.8       0.2       0.0       0.0       0.1       0.1
 2 C  f-1             0.0       0.0       0.0       0.3       0.0       0.0
 2 C  f+2             0.2       0.0       0.0       1.7       0.0       0.0
 2 C  f-2             3.0       0.1       0.0       0.2       2.7       0.4
 2 C  f+3             5.7       0.1       0.0       0.3       2.4       0.8
 2 C  f-3             0.4       0.0       0.1       1.3       0.0       0.0
 3 O  s               0.1       0.0       0.2       1.8       0.0       0.5
 3 O  pz              0.0       0.8       0.1       0.9       0.0       0.0
 3 O  px              1.0       0.0       1.3       0.5       2.4       0.0
 3 O  py              0.0       0.3       0.1       2.0       0.0       0.1
 3 O  dz2             0.7      22.2       0.2       0.0       0.2       0.2
 3 O  dxz             4.6       0.3      12.7       0.4       2.9       1.0
 3 O  dyz             4.1       5.5       4.1      36.2       1.2       0.9
 3 O  dx2y2           0.2       7.8       1.2      23.8       0.2       0.0
 3 O  dxy            10.3       0.2      29.7       0.9       7.0       2.1
 3 O  f0              0.0       0.9       0.2       2.2       0.4       0.4
 3 O  f+1             0.4       0.0       0.2       0.1       0.2       0.0
 3 O  f-1             0.1       7.2       0.1       1.0       0.0       0.0
 3 O  f+2             0.2       0.1       0.5       7.1       0.0       0.0
 3 O  f-2             5.2       0.0       4.0       1.5       9.0       0.0
 3 O  f+3             6.0       0.0       3.8       1.3       7.5       0.0
 3 O  f-3             0.3       1.6       0.2       2.5       0.2       0.6
 4 O  s               0.5       0.0       0.7       0.2       1.1       2.4
 4 O  pz              0.4       0.0       0.0       0.0       0.1       0.0
 4 O  px              1.5       0.0       0.2       0.0       0.8       0.4
 4 O  py              1.1       0.0       0.1       0.0       0.3       0.0
 4 O  dz2             1.3       0.1       6.4       0.9       1.9      11.7
 4 O  dxz             8.0      29.0       4.5       0.3       9.7       3.7
 4 O  dyz             7.7       0.0       5.4       2.1       0.3       1.1
 4 O  dx2y2           1.0       0.0       7.1       0.3       9.5      42.8
 4 O  dxy            17.8      12.9       9.6       0.5      19.8      12.6
 4 O  f0              1.2       0.0       0.5       0.1       0.3       0.2
 4 O  f+1             2.0       3.7       0.0       0.5       0.4       0.0
 4 O  f-1             0.0       0.0       0.0       0.0       0.0       0.4
 4 O  f+2             0.5       0.0       0.0       0.0       0.1       1.9
 4 O  f-2             0.9       1.1       0.7       0.1       5.4       2.0
 4 O  f+3             5.9       1.9       0.3       1.4       5.2       1.9
 4 O  f-3             0.2       0.0       0.4       0.0       0.9       3.9
 5 C  s               0.6       0.0       0.0       0.0       0.1       1.3
 5 C  pz              0.0       0.1       0.0       0.0       0.0       0.2
 5 C  px              0.5       0.0       0.0       0.0       0.1       1.2
 5 C  py              0.0       0.0       0.1       0.0       0.0       0.5
 5 C  dz2             0.1       0.1       0.0       0.0       0.0       0.1
 5 C  dxz             0.0       0.2       0.0       0.0       0.1       0.2
 5 C  dx2y2           0.1       0.0       0.1       0.0       0.3       0.2
 5 C  dxy             0.1       0.1       0.0       0.0       0.1       0.5
 5 C  f-2             0.0       0.0       0.0       0.0       0.2       0.0
 5 C  f+3             0.1       0.0       0.0       0.0       0.2       0.0

                    228       229       230       231       232       233   
                  22.38043  22.43182  22.55249  23.34531  43.96167  44.13431
                   0.00000   0.00000   0.00000   0.00000   0.00000   0.00000
                  --------  --------  --------  --------  --------  --------
 0 C  s               1.1      95.7       1.7       0.2       0.0       0.0
 1 C  s               0.3       1.5      96.7       0.1       0.0       0.0
 1 C  px              0.0       0.1       0.0       0.0       0.0       0.0
 2 C  s               0.7       0.3       0.1      95.1       0.0       0.0
 2 C  px              0.0       0.0       0.1       0.2       0.0       0.0
 2 C  py              0.0       0.0       0.0       0.1       0.0       0.0
 2 C  dyz             0.0       0.0       0.0       0.2       0.0       0.0
 3 O  s               0.0       0.0       0.0       0.9      99.4       0.5
 3 O  pz              0.0       0.0       0.0       0.2       0.0       0.0
 3 O  py              0.0       0.0       0.0       0.4       0.0       0.0
 4 O  s               0.2       0.0       0.0       0.4       0.5      99.2
 4 O  px              0.1       0.0       0.0       0.4       0.0       0.0
 4 O  dxy             0.0       0.0       0.0       0.1       0.0       0.0
 5 C  s              96.2       1.1       0.2       0.8       0.0       0.1
 6 H  s               0.0       0.2       0.0       0.0       0.0       0.0
 7 H  s               0.0       0.2       0.0       0.0       0.0       0.0
 7 H  pz              0.0       0.1       0.0       0.0       0.0       0.0
 8 H  s               0.0       0.2       0.0       0.0       0.0       0.0
 9 H  s               0.0       0.0       0.2       0.0       0.0       0.0
10 H  s               0.0       0.0       0.2       0.0       0.0       0.0
11 H  s               0.2       0.0       0.0       0.0       0.0       0.0
11 H  pz              0.1       0.0       0.0       0.0       0.0       0.0
12 H  s               0.2       0.0       0.0       0.0       0.0       0.0
13 H  s               0.2       0.0       0.0       0.0       0.0       0.0



                      *****************************
                      * MAYER POPULATION ANALYSIS *
                      *****************************

  NA   - Mulliken gross atomic population
  ZA   - Total nuclear charge
  QA   - Mulliken gross atomic charge
  VA   - Mayer's total valence
  BVA  - Mayer's bonded valence
  FA   - Mayer's free valence

  ATOM       NA         ZA         QA         VA         BVA        FA
  0 C      6.3205     6.0000    -0.3205     3.9363     3.9363    -0.0000
  1 C      6.1763     6.0000    -0.1763     3.8575     3.8575    -0.0000
  2 C      5.6973     6.0000     0.3027     4.2470     4.2470    -0.0000
  3 O      8.3413     8.0000    -0.3413     2.1677     2.1677     0.0000
  4 O      8.2487     8.0000    -0.2487     2.1037     2.1037    -0.0000
  5 C      6.1880     6.0000    -0.1880     3.8970     3.8970    -0.0000
  6 H      0.8792     1.0000     0.1208     0.9804     0.9804    -0.0000
  7 H      0.8859     1.0000     0.1141     0.9785     0.9785     0.0000
  8 H      0.8856     1.0000     0.1144     0.9692     0.9692    -0.0000
  9 H      0.8792     1.0000     0.1208     0.9788     0.9788     0.0000
 10 H      0.8820     1.0000     0.1180     0.9762     0.9762    -0.0000
 11 H      0.8716     1.0000     0.1284     0.9711     0.9711    -0.0000
 12 H      0.8723     1.0000     0.1277     0.9648     0.9648    -0.0000
 13 H      0.8722     1.0000     0.1278     0.9710     0.9710     0.0000

  Mayer bond orders larger than 0.100000
B(  0-C ,  1-C ) :   0.9984 B(  0-C ,  6-H ) :   0.9733 B(  0-C ,  7-H ) :   0.9758 
B(  0-C ,  8-H ) :   0.9783 B(  1-C ,  2-C ) :   0.9928 B(  1-C ,  9-H ) :   0.9611 
B(  1-C , 10-H ) :   0.9486 B(  2-C ,  3-O ) :   2.0459 B(  2-C ,  4-O ) :   1.1914 
B(  4-O ,  5-C ) :   0.9125 B(  5-C , 11-H ) :   0.9790 B(  5-C , 12-H ) :   0.9721 
B(  5-C , 13-H ) :   0.9794 

-------
TIMINGS
-------

Total SCF time: 0 days 0 hours 1 min 42 sec 

Total time                  ....     102.705 sec
Sum of individual times     ....     100.817 sec  ( 98.2%)

SCF preparation             ....       0.084 sec  (  0.1%)
Fock matrix formation       ....     100.269 sec  ( 97.6%)
  Startup                   ....       0.004 sec  (  0.0% of F)
  Split-RI-J                ....       3.781 sec  (  3.8% of F)
  Chain of spheres X        ....      88.930 sec  ( 88.7% of F)
  XC integration            ....       9.368 sec  (  9.3% of F)
    XC Preparation          ....       0.000 sec  (  0.0% of XC)
    Basis function eval.    ....       2.406 sec  ( 25.7% of XC)
    Density eval.           ....       2.087 sec  ( 22.3% of XC)
    XC-Functional eval.     ....       2.427 sec  ( 25.9% of XC)
    XC-Potential eval.      ....       2.282 sec  ( 24.4% of XC)
Diagonalization             ....       0.000 sec  (  0.0%)
Density matrix formation    ....       0.022 sec  (  0.0%)
Total Energy calculation    ....       0.008 sec  (  0.0%)
Population analysis         ....       0.136 sec  (  0.1%)
Orbital Transformation      ....       0.029 sec  (  0.0%)
Orbital Orthonormalization  ....       0.000 sec  (  0.0%)
DIIS solution               ....       0.093 sec  (  0.1%)
  MO trafo                  ....       0.000 sec  (  0.0 % of DIIS)
  Orb grad                  ....       0.000 sec  (  0.0 % of DIIS)
  Energy W gradient         ....       0.000 sec  (  0.0 % of DIIS)
  DIIS error                ....       0.009 sec  ( 10.1 % of DIIS)
  DIIS work                 ....       0.063 sec  ( 68.0 % of DIIS)
  Form Q                    ....       0.000 sec  (  0.0 % of DIIS)
  Form QpQm                 ....       0.000 sec  (  0.0 % of DIIS)
  Exp/Cayley                ....       0.000 sec  (  0.0 % of DIIS)
  Orb update                ....       0.000 sec  (  0.0 % of DIIS)
  Wake-sleep                ....       0.001 sec  (  0.7 % of DIIS)
SOSCF solution              ....       0.046 sec  (  0.0%)
  MO trafo                  ....       0.023 sec  ( 49.8 % of SOSCF)
  Orb grad                  ....       0.000 sec  (  0.8 % of SOSCF)
  Rot update                ....       0.001 sec  (  3.0 % of SOSCF)
  Step                      ....       0.021 sec  ( 45.9 % of SOSCF)
Grid generation             ....       0.130 sec  (  0.1%)
Finished LeanSCF after 102.7 sec

Maximum memory used throughout the entire LEANSCF-calculation: 27.8 MB
------------------   -----------------
gCP correction             0.009465147
------------------   -----------------

-------------------------   --------------------
FINAL SINGLE POINT ENERGY      -307.721820073719
-------------------------   --------------------


------------------------------------------------------------------------------
                              ORCA PROPERTY CALCULATIONS
------------------------------------------------------------------------------

GBWName                                 ... sp.gbw
Number of atoms                         ...     14
Number of basis functions               ...    234
Max core memory                         ...   1024 MB

Electric properties:
Dipole moment                           ... YES
Quadrupole moment                       ...  NO
Static polarizability (Dipole/Dipole)   ...  NO
Static polarizability (Dipole/Quad.)    ...  NO
Static polarizability (Quad./Quad.)     ...  NO
Static polarizability (Velocity)        ...  NO

Atomic electric properties:
Dipole moment                           ...  NO
Quadrupole moment                       ...  NO
Static polarizability                   ...  NO

Choice of electric origin               ... Center of mass
Position of electric origin             ...     0.024143     0.100528     0.283659

General magnetic properties:
Magnetizability                         ...  NO

EPR properties:
g-Tensor (aka g-matrix)                 ...  NO
Zero-Field splitting spin-orbit         ...  NO
Zero-field splitting spin-spin          ...  NO
Hyperfine couplings                     ...  NO (   0 nuclei)
Quadrupole couplings                    ...  NO (   0 nuclei)
Contact density                         ...  NO (   0 nuclei)

NMR properties:
Chemical shifts                         ...  NO (   0 nuclei)
Spin-rotation constants                 ...  NO (   0 nuclei)
Spin-spin couplings                     ...  NO (   0 nuclei,    0 pairs)

Choice of magnetic origin               ... GIAO
Position of magnetic origin             ...     0.000000     0.000000     0.000000

Properties with geometric perturbations:
SCF Hessian                             ...  NO
IR spectrum                             ...  NO
VCD spectrum                            ...  NO
X-ray spectroscopy properties:
SCF XES/XAS/RIXS spectra                ...  NO


-------------
DIPOLE MOMENT
-------------

Method             : SCF
Type of density    : Electron Density
Multiplicity       :   1
Irrep              :   0
Energy             :  -307.7312852206191565 Eh
Relativity type    : 
Basis              : AO
                                X                 Y                 Z
Electronic contribution:      2.770918606      -0.724718220       0.175345913
Nuclear contribution   :     -2.611310407       1.267403727      -0.560665982
                        -----------------------------------------
Total Dipole Moment    :      0.159608199       0.542685506      -0.385320069
                        -----------------------------------------
Magnitude (a.u.)       :      0.684436916
Magnitude (Debye)      :      1.739700384



--------------------
Rotational spectrum 
--------------------
 
Rotational constants in cm-1:             0.316169             0.071465             0.060328 
Rotational constants in MHz :          9478.501264          2142.452428          1808.587373 

Dipole components along the rotational axes: 
x,y,z [a.u.] :     0.170663     0.662803    -0.004496 
x,y,z [Debye]:     0.433790     1.684711    -0.011428 

 

Dipole moment calculation done in   0.0 sec 

Maximum memory used throughout the entire PROP-calculation: 17.0 MB

--------------------------------
SUGGESTED CITATIONS FOR THIS RUN
--------------------------------

Below you find a list of papers that are relevant to this ORCA run
We neither can nor want to force you to cite these papers, but we appreciate if you do
You receive ORCA, which is the product of decades of hard work by many enthusiastic individuals, for free
The only thing we kindly ask in return is that you cite our papers,
We deeply appreciate it, if you show your appreciation for ORCA by not just citing the generic ORCA reference.

Please note that relegating all ORCA citations to the supporting information does *not* help us.
SI sections are not indexed - citations you put there will not count into any citation statistics
But we need these citations in order to attract the funding resources that allow us to do what we are doing

Therefore, if you are a happy ORCA user, please consider citing a few of the papers listed below in the main body of your paper

In addition to the list printed below, the program has created the file sp.bibtex that contains the list in bibtex format
You can import this file easily into all common literature databanks and citation aid programs


List of essential papers. We consider these as the minimum necessary citations

  1. Neese,F.
     Software update: the ORCA program system, version 5.0
     WIRES Comput. Molec. Sci., 2022 12(1)e1606
     doi.org/10.1002/wcms.1606

List of papers to cite with high priority. The work reported in these papers was absolutely
necessary for this run to complete.
Our perspective: the developers of density functionals and basis sets usually get cited in chemistry papers
Good! But without the algorithms to do something with them, the functionals or basis sets would not do anything.
Hence, in our opinion, the algorithm design and method developments papers are equally worthy of getting cited

  1. Neese,F.
     An improvement of the resolution of the identity approximation for the formation of the Coulomb matrix
     J. Comp. Chem., 2003 24(14)1740-1747
     doi.org/10.1002/jcc.10318
  2. Neese,F.; Wennmohs,F.; Hansen,A.; Becker,U.
     Efficient, approximate and parallel Hartree-Fock and hybrid DFT calculations. A 'chain-of-spheres' algorithm for the Hartree-Fock exchange
     Chem. Phys., 2009 356(1-3)98-109
     doi.org/10.1016/j.chemphys.2008.10.036
  3. Helmich-Paris,B.; de Souza,B.; Neese,F.; Izsák,R.
     An improved chain of spheres for exchange algorithm
     J. Chem. Phys., 2021 155 104109
     doi.org/doi: 10.1063/5.0058766.
  4. Neese,F.
     The SHARK Integral Generation and Digestion System
     J. Comp. Chem., 2022  1-16
     doi.org/10.1002/jcc.26942

List of suggested additional citations. These are papers that are important in the 'surrounding' of 
of this run, or papers that preceded the highly important papers. If you like your results we are grateful for a citation.

  1. Izsak,R.; Neese,F.
     An overlap fitted chain of spheres exchange method
     J. Chem. Phys., 2011 135 144105
     doi.org/10.1063/1.3646921
  2. Izsak,R.; Hansen,A.; Neese,F.
     The resolution of identity and chain of spheres approximations for the LPNO-CCSD singles Fock term
     Molec. Phys., 2012 110 2413-2417
     doi.org/10.1080/00268976.2012.687466
  3. Neese,F.
     The ORCA program system
     WIRES Comput. Molec. Sci., 2012 2(1)73-78
     doi.org/10.1002/wcms.81
  4. Izsak,R.; Neese,F.; Klopper,W.
     Robust fitting techniques in the chain of spheres approximation to the Fock exchange: The role of the complementary space
     J. Chem. Phys., 2013 139 
     doi.org/10.1063/1.4819264
  5. Neese,F.
     Software update: the ORCA program system, version 4.0
     WIRES Comput. Molec. Sci., 2018 8(1)1-6
     doi.org/10.1002/wcms.1327
  6. Neese,F.; Wennmohs,F.; Becker,U.; Riplinger,C.
     The ORCA quantum chemistry program package
     J. Chem. Phys., 2020 152 Art. No. L224108
     doi.org/10.1063/5.0004608

List of optional additional citations

  1. Neese,F.
     Approximate second-order SCF convergence for spin unrestricted wavefunctions
     Chem. Phys. Lett., 2000 325(1-3)93-98
     doi.org/10.1016/s0009-2614(00)00662-x

Timings for individual modules:

Sum of individual times          ...      104.408 sec (=   1.740 min)
Startup calculation              ...        1.422 sec (=   0.024 min)   1.4 %
SCF iterations                   ...      102.933 sec (=   1.716 min)  98.6 %
Property calculations            ...        0.053 sec (=   0.001 min)   0.1 %
                             ****ORCA TERMINATED NORMALLY****
TOTAL RUN TIME: 0 days 0 hours 1 minutes 44 seconds 548 msec
