      -----------------------------------------------------------      
     |                   =====================                   |     
     |                           x T B                           |     
     |                   =====================                   |     
     |                         S. Grimme                         |     
     |          Mulliken Center for Theoretical Chemistry        |     
     |                    University of Bonn                     |     
      -----------------------------------------------------------      

   * xtb version 6.7.1 (41059b4) compiled by 'michael@archlinux' on 2025-03-24

   xtb is free software: you can redistribute it and/or modify it under
   the terms of the GNU Lesser General Public License as published by
   the Free Software Foundation, either version 3 of the License, or
   (at your option) any later version.
   
   xtb is distributed in the hope that it will be useful,
   but WITHOUT ANY WARRANTY; without even the implied warranty of
   MERCHANTABILITY or FITNESS FOR A PARTICULAR PURPOSE.  See the
   GNU Lesser General Public License for more details.
   
   Cite this work as:
   * C. Bannwarth, E. Caldeweyher, S. Ehlert, A. Hansen, P. Pracht,
     J. Seibert, S. Spicher, S. Grimme, WIREs Comput. Mol. Sci., 2020, 11,
     e01493. DOI: 10.1002/wcms.1493
   
   for GFN2-xTB:
   * C. Bannwarth, S. Ehlert and S. Grimme., J. Chem. Theory Comput., 2019,
     15, 1652-1671. DOI: 10.1021/acs.jctc.8b01176
   for GFN1-xTB:
   * S. Grimme, C. Bannwarth, P. Shushkov, J. Chem. Theory Comput., 2017,
     13, 1989-2009. DOI: 10.1021/acs.jctc.7b00118
   for GFN0-xTB:
   * P. Pracht, E. Caldeweyher, S. Ehlert, S. Grimme, ChemRxiv, 2019, preprint.
     DOI: 10.26434/chemrxiv.8326202.v1
   for GFN-FF:
   * S. Spicher and S. Grimme, Angew. Chem. Int. Ed., 2020, 59, 15665-15673.
     DOI: 10.1002/anie.202004239
   
   for ALPB and GBSA implicit solvation:
   * S. Ehlert, M. Stahn, S. Spicher, S. Grimme, J. Chem. Theory Comput.,
     2021, 17, 4250-4261. DOI: 10.1021/acs.jctc.1c00471
   
   for ddCOSMO and CPCM-X implicit solvation:
   * M. Stahn, S. Ehlert, S. Grimme, J. Phys. Chem. A,
     2023, XX, XXXX-XXXX. DOI: 10.1021/acs.jpca.3c04382
   
   for DFT-D4:
   * E. Caldeweyher, C. Bannwarth and S. Grimme, J. Chem. Phys., 2017,
     147, 034112. DOI: 10.1063/1.4993215
   * E. Caldeweyher, S. Ehlert, A. Hansen, H. Neugebauer, S. Spicher,
     C. Bannwarth and S. Grimme, J. Chem. Phys., 2019, 150, 154122.
     DOI: 10.1063/1.5090222
   * E. Caldeweyher, J.-M. Mewes, S. Ehlert and S. Grimme, Phys. Chem. Chem. Phys.
     2020, 22, 8499-8512. DOI: 10.1039/D0CP00502A
   
   for sTDA-xTB:
   * S. Grimme and C. Bannwarth, J. Chem. Phys., 2016, 145, 054103.
     DOI: 10.1063/1.4959605
   
   in the mass-spec context:
   * V. Asgeirsson, C. Bauer and S. Grimme, Chem. Sci., 2017, 8, 4879.
     DOI: 10.1039/c7sc00601b
   * J. Koopman and S. Grimme, ACS Omega 2019, 4, 12, 15120-15133.
     DOI: 10.1021/acsomega.9b02011
   
   for metadynamics refer to:
   * S. Grimme, J. Chem. Theory Comput., 2019, 155, 2847-2862
     DOI: 10.1021/acs.jctc.9b00143
   
   for SPH calculations refer to:
   * S. Spicher and S. Grimme, J. Chem. Theory Comput., 2021, 17, 1701-1714
     DOI: 10.1021/acs.jctc.0c01306
   
   for ONIOM refer to:
   * C. Plett, A. Katbashev, S. Ehlert, S. Grimme, M. Bursch,
     Phys. Chem. Chem. Phys., 2023, 25, 17860-17868. DOI: 10.1039/D3CP02178E
   
   for DIPRO refer to:
   * J. Kohn, N. Gildemeister, S. Grimme, D. Fazzi, A. Hansen,
     J. Chem. Phys., 2023, just accepted.
   
   for PTB refer to:
   * S. Grimme, M. Mueller, A. Hansen, J. Chem. Phys., 2023, 158, 124111.
     DOI: 10.1063/5.0137838
   
   with help from (in alphabetical order)
   P. Atkinson, C. Bannwarth, F. Bohle, G. Brandenburg, E. Caldeweyher
   M. Checinski, S. Dohm, S. Ehlert, S. Ehrlich, I. Gerasimov, C. Hölzer
   A. Katbashev, J. Kohn, J. Koopman, C. Lavigne, S. Lehtola, F. März, M. Müller,
   F. Musil, H. Neugebauer, J. Pisarek, C. Plett, P. Pracht, F. Pultar,
   J. Seibert, P. Shushkov, S. Spicher, M. Stahn, M. Steiner, T. Strunk,
   J. Stückrath, T. Rose, and J. Unsleber
   
 * started run on 2025/04/09 at 01:45:26.360     
   ID    Z sym.   atoms
    1    6 C      1, 2
    2   17 Cl     3, 4
    3    1 H      5-8

           -------------------------------------------------
          |                Calculation Setup                |
           -------------------------------------------------

          program call               : /usr/bin/xtb xtb_rrho.coord --gfn2 --ohess vtight --chrg 0 --enso --norestart -I rrho-xcontrol-inp --parallel 1
          coordinate file            : xtb_rrho.coord
          omp threads                :                     1


           -------------------------------------------------
          |                 G F N 2 - x T B                 |
           -------------------------------------------------

        Reference                      10.1021/acs.jctc.8b01176
      * Hamiltonian:
        H0-scaling (s, p, d)           1.850000    2.230000    2.230000
        zeta-weighting                 0.500000
      * Dispersion:
        s8                             2.700000
        a1                             0.520000
        a2                             5.000000
        s9                             5.000000
      * Repulsion:
        kExp                           1.500000    1.000000
        rExp                           1.000000
      * Coulomb:
        alpha                          2.000000
        third order                    shell-resolved
        anisotropic                    true
        a3                             3.000000
        a5                             4.000000
        cn-shift                       1.200000
        cn-exp                         4.000000
        max-rad                        5.000000


          ...................................................
          :                      SETUP                      :
          :.................................................:
          :  # basis functions                  32          :
          :  # atomic orbitals                  30          :
          :  # shells                           14          :
          :  # electrons                        26          :
          :  max. iterations                   250          :
          :  Hamiltonian                  GFN2-xTB          :
          :  restarted?                      false          :
          :  GBSA solvation                  false          :
          :  PC potential                    false          :
          :  electronic temp.          300.0000000     K    :
          :  accuracy                    1.0000000          :
          :  -> integral cutoff          0.2500000E+02      :
          :  -> integral neglect         0.1000000E-07      :
          :  -> SCF convergence          0.1000000E-05 Eh   :
          :  -> wf. convergence          0.1000000E-03 e    :
          :  Broyden damping             0.4000000          :
          :  net charge                          0          :
          :  unpaired electrons                  0          :
          ...................................................

 iter      E             dE          RMSdq      gap      omega  full diag
   1    -15.4557837 -0.154558E+02  0.443E+00    6.98       0.0  T
   2    -15.4978096 -0.420260E-01  0.263E+00    6.29       1.0  T
   3    -15.5001722 -0.236259E-02  0.134E+00    6.45       1.0  T
   4    -15.5005255 -0.353311E-03  0.104E-01    6.38       1.0  T
   5    -15.5005292 -0.368071E-05  0.536E-02    6.39       1.0  T
   6    -15.5005364 -0.714975E-05  0.326E-02    6.38       1.1  T
   7    -15.5005401 -0.372805E-05  0.937E-03    6.37       3.8  T
   8    -15.5005403 -0.222925E-06  0.361E-03    6.37       9.8  T
   9    -15.5005403 -0.339112E-07  0.184E-03    6.37      19.3  T
  10    -15.5005404 -0.796225E-08  0.499E-04    6.37      70.8  T
  11    -15.5005404 -0.341984E-09  0.120E-04    6.37     294.3  T

   *** convergence criteria satisfied after 11 iterations ***

         #    Occupation            Energy/Eh            Energy/eV
      -------------------------------------------------------------
         1        2.0000           -1.0576694             -28.7806
       ...           ...                  ...                  ...
         7        2.0000           -0.5289087             -14.3923
         8        2.0000           -0.4959492             -13.4955
         9        2.0000           -0.4923258             -13.3969
        10        2.0000           -0.4287681             -11.6674
        11        2.0000           -0.4221445             -11.4871
        12        2.0000           -0.4203122             -11.4373
        13        2.0000           -0.4195345             -11.4161 (HOMO)
        14                         -0.1854329              -5.0459 (LUMO)
        15                         -0.1742264              -4.7409
        16                          0.0008937               0.0243
        17                          0.0121793               0.3314
        18                          0.0143708               0.3910
       ...                                ...                  ...
        30                          0.2238976               6.0926
      -------------------------------------------------------------
                  HL-Gap            0.2341016 Eh            6.3702 eV
             Fermi-level           -0.3024837 Eh           -8.2310 eV

 SCC (total)                   0 d,  0 h,  0 min,  0.003 sec
 SCC setup                      ...        0 min,  0.000 sec (  1.657%)
 Dispersion                     ...        0 min,  0.000 sec (  0.618%)
 classical contributions        ...        0 min,  0.000 sec (  0.239%)
 integral evaluation            ...        0 min,  0.001 sec ( 18.110%)
 iterations                     ...        0 min,  0.002 sec ( 51.212%)
 molecular gradient             ...        0 min,  0.001 sec ( 26.443%)
 printout                       ...        0 min,  0.000 sec (  1.505%)

         :::::::::::::::::::::::::::::::::::::::::::::::::::::
         ::                     SUMMARY                     ::
         :::::::::::::::::::::::::::::::::::::::::::::::::::::
         :: total energy             -15.413273521050 Eh    ::
         :: gradient norm              0.018164273243 Eh/a0 ::
         :: HOMO-LUMO gap              6.370227631366 eV    ::
         ::.................................................::
         :: SCC energy               -15.500538900681 Eh    ::
         :: -> isotropic ES            0.011579002086 Eh    ::
         :: -> anisotropic ES          0.000581813896 Eh    ::
         :: -> anisotropic XC          0.006058173653 Eh    ::
         :: -> dispersion             -0.004527896237 Eh    ::
         :: repulsion energy           0.087265379631 Eh    ::
         :: add. restraining           0.000000000000 Eh    ::
         :: total charge              -0.000000000000 e     ::
         :::::::::::::::::::::::::::::::::::::::::::::::::::::

      ----------------------------------------------------------- 
     |                   =====================                   |
     |                        A N C O P T                        |
     |                   =====================                   |
     |               Approximate Normal Coordinate               |
     |                Rational Function Optimizer                |
      ----------------------------------------------------------- 

          ...................................................
          :                      SETUP                      :
          :.................................................:
          :   optimization level         verytight          :
          :   max. optcycles                   200          :
          :   ANC micro-cycles                  20          :
          :   degrees of freedom                18          :
          :.................................................:
          :   RF solver                   davidson          :
          :   write xtbopt.log                true          :
          :   linear?                        false          :
          :   energy convergence         0.1000000E-06 Eh   :
          :   grad. convergence          0.2000000E-03 Eh/α :
          :   maximum RF displ.          1.0000000          :
          :   Hlow (freq-cutoff)         0.1000000E-01      :
          :   Hmax (freq-cutoff)         5.0000000          :
          :   S6 in model hess.         20.0000000          :
          ...................................................

generating ANC from exact Hessian ...
Using Lindh-Hessian (1995)
 Shifting diagonal of input Hessian by    1.6417854932501696E-004
 Lowest  eigenvalues of input Hessian
    0.000000    0.000000    0.000000    0.000000    0.000000    0.000000
    0.010000    0.020363    0.028184    0.053314    0.062640    0.064868
    0.069735    0.091014    0.127211    0.131677    0.151443    0.329356
 Highest eigenvalues
    0.623121    0.980899    1.003848    1.086544    1.118522    1.221920


........................................................................
.............................. CYCLE    1 ..............................
........................................................................

 iter      E             dE          RMSdq      gap      omega  full diag
   1    -15.5005404 -0.155005E+02  0.630E-05    6.37       0.0  T
   2    -15.5005404 -0.695444E-11  0.415E-05    6.37     851.7  T
   3    -15.5005404 -0.173195E-11  0.312E-05    6.37    1133.1  T
     SCC iter.                  ...        0 min,  0.001 sec
     gradient                   ...        0 min,  0.001 sec
 * total energy  :   -15.4132735 Eh     change       -0.4850165E-10 Eh
   gradient norm :     0.0181646 Eh/α   predicted     0.0000000E+00 (-100.00%)
   displ. norm   :     0.1300688 α      lambda       -0.1004995E-02
   maximum displ.:     0.1099702 α      in ANC's #2, #9, #4, ...

........................................................................
.............................. CYCLE    2 ..............................
........................................................................

 iter      E             dE          RMSdq      gap      omega  full diag
   1    -15.5028001 -0.155028E+02  0.195E-01    6.52       0.0  T
   2    -15.5028060 -0.593167E-05  0.120E-01    6.51       1.0  T
   3    -15.5028106 -0.457327E-05  0.335E-02    6.51       1.1  T
   4    -15.5028123 -0.173399E-05  0.267E-02    6.50       1.3  T
   5    -15.5028149 -0.256230E-05  0.604E-03    6.50       5.9  T
   6    -15.5028150 -0.981951E-07  0.184E-03    6.50      19.2  T
   7    -15.5028150 -0.393255E-08  0.121E-03    6.50      29.1  T
   8    -15.5028150 -0.315062E-08  0.486E-04    6.50      72.8  T
   9    -15.5028150 -0.508370E-09  0.109E-04    6.50     324.7  T
     SCC iter.                  ...        0 min,  0.001 sec
     gradient                   ...        0 min,  0.001 sec
 * total energy  :   -15.4138823 Eh     change       -0.6087503E-03 Eh
   gradient norm :     0.0101737 Eh/α   predicted    -0.5109996E-03 ( -16.06%)
   displ. norm   :     0.0307621 α      lambda       -0.1807683E-03
   maximum displ.:     0.0161130 α      in ANC's #2, #12, #4, ...

........................................................................
.............................. CYCLE    3 ..............................
........................................................................

 iter      E             dE          RMSdq      gap      omega  full diag
   1    -15.5038397 -0.155038E+02  0.595E-02    6.59       0.0  T
   2    -15.5038406 -0.933800E-06  0.399E-02    6.59       1.0  T
   3    -15.5038419 -0.123028E-05  0.147E-02    6.59       2.4  T
   4    -15.5038422 -0.329161E-06  0.117E-02    6.59       3.0  T
   5    -15.5038427 -0.509492E-06  0.323E-03    6.59      10.9  T
   6    -15.5038427 -0.300368E-07  0.584E-04    6.59      60.5  T
   7    -15.5038427 -0.278844E-09  0.297E-04    6.59     119.0  T
     SCC iter.                  ...        0 min,  0.001 sec
     gradient                   ...        0 min,  0.001 sec
 * total energy  :   -15.4139943 Eh     change       -0.1119936E-03 Eh
   gradient norm :     0.0044994 Eh/α   predicted    -0.9047038E-04 ( -19.22%)
   displ. norm   :     0.0156104 α      lambda       -0.4172512E-04
   maximum displ.:     0.0080748 α      in ANC's #4, #1, #14, ...

........................................................................
.............................. CYCLE    4 ..............................
........................................................................

 iter      E             dE          RMSdq      gap      omega  full diag
   1    -15.5037989 -0.155038E+02  0.294E-02    6.63       0.0  T
   2    -15.5037991 -0.180803E-06  0.189E-02    6.63       1.9  T
   3    -15.5037993 -0.226192E-06  0.667E-03    6.63       5.3  T
   4    -15.5037994 -0.676383E-07  0.500E-03    6.63       7.1  T
   5    -15.5037995 -0.808877E-07  0.208E-03    6.63      17.0  T
   6    -15.5037995 -0.155037E-07  0.247E-04    6.63     143.3  T
   7    -15.5037995 -0.682583E-10  0.118E-04    6.63     299.6  T
     SCC iter.                  ...        0 min,  0.001 sec
     gradient                   ...        0 min,  0.001 sec
 * total energy  :   -15.4140197 Eh     change       -0.2540805E-04 Eh
   gradient norm :     0.0014414 Eh/α   predicted    -0.2086777E-04 ( -17.87%)
   displ. norm   :     0.0158104 α      lambda       -0.7252133E-05
   maximum displ.:     0.0122076 α      in ANC's #2, #1, #6, ...

........................................................................
.............................. CYCLE    5 ..............................
........................................................................

 iter      E             dE          RMSdq      gap      omega  full diag
   1    -15.5033362 -0.155033E+02  0.246E-02    6.65       0.0  T
   2    -15.5033362 -0.304014E-07  0.145E-02    6.65       2.4  T
   3    -15.5033362 -0.227816E-07  0.220E-03    6.65      16.1  T
   4    -15.5033362 -0.765301E-08  0.124E-03    6.65      28.5  T
   5    -15.5033362 -0.280905E-08  0.897E-04    6.65      39.4  T
   6    -15.5033362 -0.320458E-08  0.175E-04    6.65     202.2  T
     SCC iter.                  ...        0 min,  0.001 sec
     gradient                   ...        0 min,  0.001 sec
 * total energy  :   -15.4140232 Eh     change       -0.3564036E-05 Eh
   gradient norm :     0.0006749 Eh/α   predicted    -0.3626648E-05 (   1.76%)
   displ. norm   :     0.0038820 α      lambda       -0.9192363E-06
   maximum displ.:     0.0029659 α      in ANC's #2, #1, #14, ...

........................................................................
.............................. CYCLE    6 ..............................
........................................................................

 iter      E             dE          RMSdq      gap      omega  full diag
   1    -15.5033791 -0.155034E+02  0.569E-03    6.64       0.0  T
   2    -15.5033791 -0.428616E-08  0.355E-03    6.64       9.9  T
   3    -15.5033791 -0.521097E-08  0.102E-03    6.64      34.7  T
   4    -15.5033791 -0.223282E-08  0.577E-04    6.64      61.3  T
   5    -15.5033791 -0.108753E-08  0.285E-04    6.64     124.2  T
     SCC iter.                  ...        0 min,  0.001 sec
     gradient                   ...        0 min,  0.001 sec
 * total energy  :   -15.4140238 Eh     change       -0.5969081E-06 Eh
   gradient norm :     0.0001066 Eh/α   predicted    -0.4603096E-06 ( -22.88%)
   displ. norm   :     0.0012093 α      lambda       -0.5743819E-07
   maximum displ.:     0.0009740 α      in ANC's #4, #2, #8, ...

........................................................................
.............................. CYCLE    7 ..............................
........................................................................

 iter      E             dE          RMSdq      gap      omega  full diag
   1    -15.5034092 -0.155034E+02  0.210E-03    6.64       0.0  T
   2    -15.5034092 -0.129523E-09  0.125E-03    6.64      28.3  T
   3    -15.5034092 -0.134266E-09  0.142E-04    6.64     249.5  T
   4    -15.5034092 -0.287077E-10  0.115E-04    6.64     307.9  T
     SCC iter.                  ...        0 min,  0.000 sec
     gradient                   ...        0 min,  0.001 sec
 * total energy  :   -15.4140239 Eh     change       -0.2694715E-07 Eh
   gradient norm :     0.0000369 Eh/α   predicted    -0.2929493E-07 (   8.71%)
   displ. norm   :     0.0004627 α      lambda       -0.4759630E-08
   maximum displ.:     0.0003385 α      in ANC's #4, #2, #8, ...

   *** GEOMETRY OPTIMIZATION CONVERGED AFTER 7 ITERATIONS ***

------------------------------------------------------------------------
 total energy gain   :        -0.0007503 Eh       -0.4708 kcal/mol
 total RMSD          :         0.0514366 a0        0.0272 Å
 total power (kW/mol):        -0.2814310 (step) -126.6506 (real)
------------------------------------------------------------------------

 ANCopt (total)                0 d,  0 h,  0 min,  0.016 sec
 optimizer setup                ...        0 min,  0.000 sec (  0.237%)
 model hessian                  ...        0 min,  0.000 sec (  1.537%)
 ANC generation                 ...        0 min,  0.000 sec (  0.324%)
 coordinate transformation      ...        0 min,  0.000 sec (  0.086%)
 single point calculation       ...        0 min,  0.015 sec ( 94.581%)
 optimization log               ...        0 min,  0.000 sec (  1.186%)
 hessian update                 ...        0 min,  0.000 sec (  0.106%)
 rational function              ...        0 min,  0.000 sec (  1.065%)

================
 final structure:
================
$coord
       -1.17595476686629        0.81438944474544        1.83803441971039      C
        1.17600642253591       -0.81465223369512        1.83788247624121      C
        3.17104264933873       -0.05063262622197       -0.77143954456487      Cl
       -3.17106299635537        0.05075047988765       -0.77134391501028      Cl
       -0.70232927779453        2.81201778508732        1.67721865593699      H
       -2.26953820090665        0.47960878881604        3.55262402982301      H
        2.26963749627336       -0.48012221299635        3.55249056144519      H
        0.70237650084985       -2.81225705695120        1.67678821925871      H
$end

 Bond Distances (Angstroems)
 ---------------------------
C1-C2=1.5140         C1-Cl4=1.7845        C1-H5=1.0897         C1-H6=1.0906         C2-C1=1.5140         C2-Cl3=1.7845        
C2-H7=1.0906         C2-H8=1.0897         Cl3-C2=1.7845        Cl4-C1=1.7845        H5-C1=1.0897         H6-C1=1.0906         
H7-C2=1.0906         H8-C2=1.0897         
 C  H  Rav=1.0902 sigma=0.0005  Rmin=1.0897  Rmax=1.0906     4
 C  C  Rav=1.5140 sigma=0.0000  Rmin=1.5140  Rmax=1.5140     1
 Cl C  Rav=1.7845 sigma=0.0000  Rmin=1.7845  Rmax=1.7845     2

 selected bond angles (degree)
 --------------------
Cl4-C1-C2=110.94               H5-C1-C2=111.30                H5-C1-Cl4=107.18               H6-C1-C2=110.11                
H6-C1-Cl4=107.04               H6-C1-H5=110.16                Cl3-C2-C1=110.94               H7-C2-C1=110.11                
H7-C2-Cl3=107.04               H8-C2-C1=111.30                H8-C2-Cl3=107.18               H8-C2-H7=110.16                

 selected dihedral angles (degree)
 ---------------------------------
Cl3-C2-C1-Cl4= 68.12          Cl3-C2-C1-H5=308.87           Cl3-C2-C1-H6=186.42           H7-C2-C1-Cl4=186.42           
H7-C2-C1-H5= 67.17            H7-C2-C1-H6=304.73            H8-C2-C1-Cl4=308.87           H8-C2-C1-H5=189.62            
H8-C2-C1-H6= 67.17            
           -------------------------------------------------
          |                Final Singlepoint                |
           -------------------------------------------------

          ...................................................
          :                      SETUP                      :
          :.................................................:
          :  # basis functions                  32          :
          :  # atomic orbitals                  30          :
          :  # shells                           14          :
          :  # electrons                        26          :
          :  max. iterations                   250          :
          :  Hamiltonian                  GFN2-xTB          :
          :  restarted?                      false          :
          :  GBSA solvation                  false          :
          :  PC potential                    false          :
          :  electronic temp.          300.0000000     K    :
          :  accuracy                    1.0000000          :
          :  -> integral cutoff          0.2500000E+02      :
          :  -> integral neglect         0.1000000E-07      :
          :  -> SCF convergence          0.1000000E-05 Eh   :
          :  -> wf. convergence          0.1000000E-03 e    :
          :  Broyden damping             0.4000000          :
          :  net charge                          0          :
          :  unpaired electrons                  0          :
          ...................................................

 iter      E             dE          RMSdq      gap      omega  full diag
   1    -15.5034092 -0.155034E+02  0.388E-05    6.64       0.0  T
   2    -15.5034092 -0.765610E-12  0.278E-05    6.64    1271.2  T
   3    -15.5034092 -0.116707E-11  0.136E-05    6.64    2597.0  T

   *** convergence criteria satisfied after 3 iterations ***

         #    Occupation            Energy/Eh            Energy/eV
      -------------------------------------------------------------
         1        2.0000           -1.0593929             -28.8275
       ...           ...                  ...                  ...
         7        2.0000           -0.5306472             -14.4396
         8        2.0000           -0.4986177             -13.5681
         9        2.0000           -0.4951226             -13.4730
        10        2.0000           -0.4294376             -11.6856
        11        2.0000           -0.4227107             -11.5025
        12        2.0000           -0.4202080             -11.4344
        13        2.0000           -0.4196246             -11.4186 (HOMO)
        14                         -0.1756058              -4.7785 (LUMO)
        15                         -0.1646644              -4.4807
        16                         -0.0033695              -0.0917
        17                          0.0104467               0.2843
        18                          0.0127881               0.3480
       ...                                ...                  ...
        30                          0.2287418               6.2244
      -------------------------------------------------------------
                  HL-Gap            0.2440188 Eh            6.6401 eV
             Fermi-level           -0.2976152 Eh           -8.0985 eV

 SCC (total)                   0 d,  0 h,  0 min,  0.002 sec
 SCC setup                      ...        0 min,  0.000 sec (  1.391%)
 Dispersion                     ...        0 min,  0.000 sec (  0.469%)
 classical contributions        ...        0 min,  0.000 sec (  0.224%)
 integral evaluation            ...        0 min,  0.000 sec ( 27.215%)
 iterations                     ...        0 min,  0.000 sec ( 19.448%)
 molecular gradient             ...        0 min,  0.001 sec ( 48.897%)
 printout                       ...        0 min,  0.000 sec (  1.994%)

         :::::::::::::::::::::::::::::::::::::::::::::::::::::
         ::                     SUMMARY                     ::
         :::::::::::::::::::::::::::::::::::::::::::::::::::::
         :: total energy             -15.414023860970 Eh    ::
         :: gradient norm              0.000037664331 Eh/a0 ::
         :: HOMO-LUMO gap              6.640090508786 eV    ::
         ::.................................................::
         :: SCC energy               -15.503407870584 Eh    ::
         :: -> isotropic ES            0.011181938195 Eh    ::
         :: -> anisotropic ES          0.000898976826 Eh    ::
         :: -> anisotropic XC          0.005868682076 Eh    ::
         :: -> dispersion             -0.004567567759 Eh    ::
         :: repulsion energy           0.089384009614 Eh    ::
         :: add. restraining           0.000000000000 Eh    ::
         :: total charge               0.000000000000 e     ::
         :::::::::::::::::::::::::::::::::::::::::::::::::::::

           ------------------------------------------------- 
          |                Numerical Hessian                |
           ------------------------------------------------- 
step length          :   0.00500
SCC accuracy         :   0.30000
Hessian scale factor :   1.00000
frozen atoms in %    :   0.00000    0
RMS gradient         :   0.00004
estimated CPU  time      0.00 min
estimated wall time      0.00 min

writing file <hessian>, containing the non-mass-weighted Hessian matrix in atomic units (Eₕ/Bohr²).

 projected vibrational frequencies (cm⁻¹)
eigval :       -0.00    -0.00    -0.00     0.00     0.00     0.00
eigval :       83.30   242.13   387.07   655.74   671.81   881.43
eigval :      947.02  1043.43  1102.61  1157.56  1237.94  1254.26
eigval :     1413.03  1422.38  2971.72  2975.88  2985.06  2997.09
           -------------------------------------------------
          |                Property Printout                |
           -------------------------------------------------

    * Orbital Energies and Occupations

         #    Occupation            Energy/Eh            Energy/eV
      -------------------------------------------------------------
         1        2.0000           -1.0593930             -28.8275
         2        2.0000           -1.0587899             -28.8111
         3        2.0000           -0.6654920             -18.1090
         4        2.0000           -0.6143616             -16.7176
         5        2.0000           -0.5571758             -15.1615
         6        2.0000           -0.5534890             -15.0612
         7        2.0000           -0.5306473             -14.4396
         8        2.0000           -0.4986178             -13.5681
         9        2.0000           -0.4951227             -13.4730
        10        2.0000           -0.4294377             -11.6856
        11        2.0000           -0.4227108             -11.5025
        12        2.0000           -0.4202081             -11.4344
        13        2.0000           -0.4196247             -11.4186 (HOMO)
        14                         -0.1756060              -4.7785 (LUMO)
        15                         -0.1646646              -4.4808
        16                         -0.0033696              -0.0917
        17                          0.0104466               0.2843
        18                          0.0127880               0.3480
        19                          0.0132696               0.3611
        20                          0.0177378               0.4827
        21                          0.0181488               0.4939
        22                          0.0182008               0.4953
        23                          0.0183235               0.4986
        24                          0.0871658               2.3719
       ...                                ...                  ...
        30                          0.2287417               6.2244
      -------------------------------------------------------------
                  HL-Gap            0.2440187 Eh            6.6401 eV
             Fermi-level           -0.2976153 Eh           -8.0985 eV

     #   Z          covCN         q      C6AA      α(0)
     1   6          3.742     0.022    20.275     6.424
     2   6          3.742     0.022    20.275     6.424
     3  17          0.919    -0.182   104.871    15.667
     4  17          0.919    -0.182   104.871    15.667
     5   1          0.925     0.084     1.934     2.175
     6   1          0.925     0.076     2.021     2.223
     7   1          0.925     0.076     2.021     2.223
     8   1          0.925     0.084     1.934     2.175

 Mol. C6AA /au·bohr⁶  :       1230.980860
 Mol. C8AA /au·bohr⁸  :      40061.817674
 Mol. α(0) /au        :         52.977645


Wiberg/Mayer (AO) data.
largest (>0.10) Wiberg bond orders for each atom

 ---------------------------------------------------------------------------
     #   Z sym  total        # sym  WBO       # sym  WBO       # sym  WBO
 ---------------------------------------------------------------------------
     1   6      3.949 --     2      1.027     5      0.975     6      0.971
                             4      0.961
     2   6      3.949 --     1      1.027     8      0.975     7      0.971
                             3      0.961
     3  17      1.004 --     2      0.961
     4  17      1.004 --     1      0.961
     5   1      0.993 --     1      0.975
     6   1      0.994 --     1      0.971
     7   1      0.994 --     2      0.971
     8   1      0.993 --     2      0.975
 ---------------------------------------------------------------------------

Topologies differ in total number of bonds
Writing topology from bond orders to xtbtopo.mol

molecular dipole:
                 x           y           z       tot (Debye)
 q only:        0.000      -0.000       1.186
   full:        0.000      -0.000       1.110       2.821
molecular quadrupole (traceless):
                xx          xy          yy          xz          yz          zz
 q only:       -4.604      -0.724       1.607       0.000      -0.000       2.997
  q+dip:       -5.346      -0.743       2.617       0.000       0.000       2.729
   full:       -5.093      -0.579       1.682       0.000      -0.000       3.411

           -------------------------------------------------
          |                Geometry Summary                 |
           -------------------------------------------------

      molecular mass/u    :       98.9591100
   center of mass at/Å    :        0.0000002       0.0000014      -0.0000191
  moments of inertia/u·Å² :        0.5172426E+02   0.2212570E+03   0.2560336E+03
rotational constants/cm⁻¹ :        0.3259135E+00   0.7619028E-01   0.6584149E-01

 * 7 selected distances

     #   Z          #   Z                                           value/Å
     1   6          2   6                                         1.5139925
     2   6          3  17                                         1.7845484 (max)
     1   6          4  17                                         1.7845483
     1   6          5   1                                         1.0897328
Molecule has the following symmetry elements: (C2) 
It seems to be the C2 point group
     1   6          6   1                                         1.0906471
     2   6          7   1                                         1.0906471
     2   6          8   1                                         1.0897328 (min)

 * 3 distinct bonds (by element types)

   Z      Z             #   av. dist./Å        max./Å        min./Å
   1 H    6 C           4     1.0901900     1.0906471     1.0897328
   6 C    6 C           1     1.5139925     1.5139925     1.5139925
   6 C   17 Cl          2     1.7845484     1.7845484     1.7845483

           -------------------------------------------------
          |               Frequency Printout                |
           -------------------------------------------------
 projected vibrational frequencies (cm⁻¹)
eigval :       -0.00    -0.00    -0.00     0.00     0.00     0.00
eigval :       83.30   242.13   387.07   655.74   671.81   881.43
eigval :      947.02  1043.43  1102.61  1157.56  1237.94  1254.26
eigval :     1413.03  1422.38  2971.72  2975.88  2985.06  2997.09
 reduced masses (amu)
    1:      3.94    2:     12.21    3:     13.46    4:      8.90    5:     14.85    6:      9.99
    7:      7.64    8:      2.57    9:      3.41   10:      5.48   11:      3.41   12:      1.66
   13:      1.56   14:      2.79   15:      1.04   16:      1.18   17:      1.23   18:      1.23
   19:      1.09   20:      1.10   21:      1.07   22:      1.08   23:      1.07   24:      1.08
 IR intensities (km·mol⁻¹)
    1:      4.36    2:      0.00    3:      0.05    4:      1.54    5:      0.85    6:      0.79
    7:      1.00    8:      0.25    9:      0.46   10:     16.35   11:     23.84   12:      0.78
   13:      0.62   14:      0.01   15:      0.05   16:      0.06   17:     20.68   18:      9.38
   19:     15.07   20:      1.70   21:      2.83   22:      3.43   23:      0.63   24:      2.57
 Raman intensities (Ä⁴*amu⁻¹)
    1:      0.00    2:      0.00    3:      0.00    4:      0.00    5:      0.00    6:      0.00
    7:      0.00    8:      0.00    9:      0.00   10:      0.00   11:      0.00   12:      0.00
   13:      0.00   14:      0.00   15:      0.00   16:      0.00   17:      0.00   18:      0.00
   19:      0.00   20:      0.00   21:      0.00   22:      0.00   23:      0.00   24:      0.00
 output can be read by thermo (or use thermo option).
 writing <g98.out> molden fake output.
 recommended (thermochemical) frequency scaling factor: 1.0
           -------------------------------------------------
          |             Thermodynamic Functions             |
           -------------------------------------------------

c2  symmetry found (for desy threshold:  0.10E+00) used in thermo

          ...................................................
          :                      SETUP                      :
          :.................................................:
          :  # frequencies                          18      :
          :  # imaginary freq.                       0      :
          :  linear?                             false      :
          :  only rotor calc.                    false      :
          :  symmetry                               c2      :
          :  rotational number                       2      :
          :  scaling factor                  1.0000000      :
          :  rotor cutoff                    0.0000000 cm⁻¹ :
          :  imag. cutoff                 -100.0000000 cm⁻¹ :
          :.................................................:

    mode    ω/cm⁻¹     T·S(HO)/kcal·mol⁻¹    T·S(FR)/kcal·mol⁻¹   T·S(vib)
   ------------------------------------------------------------------------
       1     83.30    -1.13645 (100.00%)    -0.90502 (  0.00%)    -1.13645
       2    242.13    -0.53284 (100.00%)    -0.58913 (  0.00%)    -0.53284
   ------------------------------------------------------------------------

   temp. (K)  partition function   enthalpy   heat capacity  entropy
                                   cal/mol     cal/K/mol   cal/K/mol   J/K/mol
 298.15  VIB   5.90                 1294.930      9.397      7.872
         ROT  0.654E+05              888.727      2.981     25.015
         INT  0.386E+06             2183.657     12.378     32.887
         TR   0.301E+26             1481.212      4.968     39.687
         TOT                        3664.8695    17.3459    72.5736   303.6481

       T/K    H(0)-H(T)+PV         H(T)/Eh          T*S/Eh         G(T)/Eh
   ------------------------------------------------------------------------
    298.15    0.584034E-02    0.614947E-01    0.344821E-01    0.270127E-01
   ------------------------------------------------------------------------

         :::::::::::::::::::::::::::::::::::::::::::::::::::::
         ::                  THERMODYNAMIC                  ::
         :::::::::::::::::::::::::::::::::::::::::::::::::::::
         :: total free energy         -15.387011203855 Eh   ::
         ::.................................................::
         :: total energy              -15.414023860970 Eh   ::
         :: zero point energy           0.055654395853 Eh   ::
         :: G(RRHO) w/o ZPVE           -0.028641738738 Eh   ::
         :: G(RRHO) contrib.            0.027012657115 Eh   ::
         :::::::::::::::::::::::::::::::::::::::::::::::::::::

optimized geometry written to: xtbopt.coord


           -------------------------------------------------
          | TOTAL ENERGY              -15.414023860970 Eh   |
          | TOTAL ENTHALPY            -15.352529123783 Eh   |
          | TOTAL FREE ENERGY         -15.387011203855 Eh   |
          | GRADIENT NORM               0.000037714575 Eh/α |
          | HOMO-LUMO GAP               6.640087625389 eV   |
           -------------------------------------------------

------------------------------------------------------------------------
 * finished run on 2025/04/09 at 01:45:26.491     
------------------------------------------------------------------------
 total:
 * wall-time:     0 d,  0 h,  0 min,  0.131 sec
 *  cpu-time:     0 d,  0 h,  0 min,  0.130 sec
 * ratio c/w:     0.993 speedup
 SCF:
 * wall-time:     0 d,  0 h,  0 min,  0.003 sec
 *  cpu-time:     0 d,  0 h,  0 min,  0.003 sec
 * ratio c/w:     0.995 speedup
 ANC optimizer:
 * wall-time:     0 d,  0 h,  0 min,  0.018 sec
 *  cpu-time:     0 d,  0 h,  0 min,  0.017 sec
 * ratio c/w:     0.993 speedup
 analytical hessian:
 * wall-time:     0 d,  0 h,  0 min,  0.106 sec
 *  cpu-time:     0 d,  0 h,  0 min,  0.105 sec
 * ratio c/w:     0.993 speedup

