8
 energy: -15.413273521098 gnorm: 0.018164588882 xtb: 6.7.1 (41059b4)
C           -0.61999675049902        0.42787349959243        0.96681184961133
C            0.62002211866498       -0.42801105353064        0.96673035558067
Cl           1.72171821366331       -0.04087815395722       -0.41912952957930
Cl          -1.72172440767842        0.04093951927922       -0.41907459834064
H           -0.37594675422508        1.48977475803603        0.90034797575050
H           -1.18603304274699        0.23749067711298        1.88390055139494
H            1.18608560841004       -0.23776141141552        1.88383031560287
H            0.37596911644676       -1.48990284115996        0.90011740846311
8
 energy: -15.413882271366 gnorm: 0.010173765919 xtb: 6.7.1 (41059b4)
C           -0.61771479095740        0.43226921470629        0.97721106289992
C            0.61774213320548       -0.43240945619512        0.97713224551146
Cl           1.68190034522056       -0.03071704003836       -0.41632440497966
Cl          -1.68191203744542        0.03078159206882       -0.41627264433509
H           -0.37471867144354        1.49105363393924        0.89072828166562
H           -1.20316187865470        0.24922889858036        1.88031420335281
H            1.20321512776038       -0.24950065882945        1.88024530299502
H            0.37474387435022       -1.49118119027445        0.89050028137340
8
 energy: -15.413994264977 gnorm: 0.004499411435 xtb: 6.7.1 (41059b4)
C           -0.62003573281535        0.43107037381641        0.97667830502776
C            0.62006276911733       -0.43120995214707        0.97659795143918
Cl           1.67654057346569       -0.02814946020760       -0.41067057881228
Cl          -1.67655087547971        0.02821180290686       -0.41061966918398
H           -0.37251524780894        1.48754086607020        0.88771729688181
H           -1.20650733873133        0.25325320352175        1.87820647257898
H            1.20655965833955       -0.25352448509697        1.87813534435216
H            0.37254029594833       -1.48766735490624        0.88748920619986
8
 energy: -15.414019673026 gnorm: 0.001441373292 xtb: 6.7.1 (41059b4)
C           -0.62140978437410        0.43111408844786        0.97436415735929
C            0.62143733148696       -0.43125367267559        0.97428425938670
Cl           1.67510006856613       -0.02564414039013       -0.40893983065188
Cl          -1.67511150675768        0.02570720509294       -0.40888948910566
H           -0.37086715961488        1.48754247775998        0.88758902317367
H           -1.20326703489522        0.25459291233790        1.87891742756768
H            1.20331967250340       -0.25486453802839        1.87884705530522
H            0.37089251512097       -1.48766933858724        0.88736172544846
8
 energy: -15.414023237063 gnorm: 0.000674942196 xtb: 6.7.1 (41059b4)
C           -0.62279060237985        0.43079532205416        0.97209095551182
C            0.62281788712034       -0.43093421042126        0.97201030067597
Cl           1.67882357192482       -0.02708216701978       -0.40783736896427
Cl          -1.67883409158348        0.02714416556000       -0.40778679156138
H           -0.37189794178607        1.48805042923035        0.88758087042282
H           -1.20053449587767        0.25388564884042        1.88009719273196
H            1.20058700889556       -0.25415721030103        1.88002635565484
H            0.37192276572193       -1.48817698398552        0.88735281401171
8
 energy: -15.414023833971 gnorm: 0.000106582232 xtb: 6.7.1 (41059b4)
C           -0.62223303981985        0.43103357381339        0.97259745701921
C            0.62226055189456       -0.43117281391658        0.97251735793777
Cl           1.67794671832922       -0.02659949252206       -0.40834572215988
Cl          -1.67795796058530        0.02666228323668       -0.40829520862029
H           -0.37150802243658        1.48818402485904        0.88760591940220
H           -1.20071369642586        0.25373357323440        1.88007320588959
H            1.20076642199700       -0.25400531392731        1.88000294874218
H            0.37153312908239       -1.48831084082022        0.88737837027271
8
 energy: -15.414023860918 gnorm: 0.000036911799 xtb: 6.7.1 (41059b4)
C           -0.62228846368014        0.43095633496045        0.97264592776880
C            0.62231579868332       -0.43109539688390        0.97256552274756
Cl           1.67804350483626       -0.02679363192491       -0.40822822657427
Cl          -1.67805427201378        0.02685599739901       -0.40817762159329
H           -0.37165664835988        1.48805572852634        0.88754589042572
H           -1.20098789519698        0.25379804119095        1.87996767549402
H            1.20104044004219       -0.25406973356670        1.87989704707010
H            0.37168163772458       -1.48818234574391        0.88731811314484
