      -----------------------------------------------------------      
     |                   =====================                   |     
     |                           x T B                           |     
     |                   =====================                   |     
     |                         S. Grimme                         |     
     |          Mulliken Center for Theoretical Chemistry        |     
     |                    University of Bonn                     |     
      -----------------------------------------------------------      

   * xtb version 6.7.1 (41059b4) compiled by 'michael@archlinux' on 2025-03-24

   xtb is free software: you can redistribute it and/or modify it under
   the terms of the GNU Lesser General Public License as published by
   the Free Software Foundation, either version 3 of the License, or
   (at your option) any later version.
   
   xtb is distributed in the hope that it will be useful,
   but WITHOUT ANY WARRANTY; without even the implied warranty of
   MERCHANTABILITY or FITNESS FOR A PARTICULAR PURPOSE.  See the
   GNU Lesser General Public License for more details.
   
   Cite this work as:
   * C. Bannwarth, E. Caldeweyher, S. Ehlert, A. Hansen, P. Pracht,
     J. Seibert, S. Spicher, S. Grimme, WIREs Comput. Mol. Sci., 2020, 11,
     e01493. DOI: 10.1002/wcms.1493
   
   for GFN2-xTB:
   * C. Bannwarth, S. Ehlert and S. Grimme., J. Chem. Theory Comput., 2019,
     15, 1652-1671. DOI: 10.1021/acs.jctc.8b01176
   for GFN1-xTB:
   * S. Grimme, C. Bannwarth, P. Shushkov, J. Chem. Theory Comput., 2017,
     13, 1989-2009. DOI: 10.1021/acs.jctc.7b00118
   for GFN0-xTB:
   * P. Pracht, E. Caldeweyher, S. Ehlert, S. Grimme, ChemRxiv, 2019, preprint.
     DOI: 10.26434/chemrxiv.8326202.v1
   for GFN-FF:
   * S. Spicher and S. Grimme, Angew. Chem. Int. Ed., 2020, 59, 15665-15673.
     DOI: 10.1002/anie.202004239
   
   for ALPB and GBSA implicit solvation:
   * S. Ehlert, M. Stahn, S. Spicher, S. Grimme, J. Chem. Theory Comput.,
     2021, 17, 4250-4261. DOI: 10.1021/acs.jctc.1c00471
   
   for ddCOSMO and CPCM-X implicit solvation:
   * M. Stahn, S. Ehlert, S. Grimme, J. Phys. Chem. A,
     2023, XX, XXXX-XXXX. DOI: 10.1021/acs.jpca.3c04382
   
   for DFT-D4:
   * E. Caldeweyher, C. Bannwarth and S. Grimme, J. Chem. Phys., 2017,
     147, 034112. DOI: 10.1063/1.4993215
   * E. Caldeweyher, S. Ehlert, A. Hansen, H. Neugebauer, S. Spicher,
     C. Bannwarth and S. Grimme, J. Chem. Phys., 2019, 150, 154122.
     DOI: 10.1063/1.5090222
   * E. Caldeweyher, J.-M. Mewes, S. Ehlert and S. Grimme, Phys. Chem. Chem. Phys.
     2020, 22, 8499-8512. DOI: 10.1039/D0CP00502A
   
   for sTDA-xTB:
   * S. Grimme and C. Bannwarth, J. Chem. Phys., 2016, 145, 054103.
     DOI: 10.1063/1.4959605
   
   in the mass-spec context:
   * V. Asgeirsson, C. Bauer and S. Grimme, Chem. Sci., 2017, 8, 4879.
     DOI: 10.1039/c7sc00601b
   * J. Koopman and S. Grimme, ACS Omega 2019, 4, 12, 15120-15133.
     DOI: 10.1021/acsomega.9b02011
   
   for metadynamics refer to:
   * S. Grimme, J. Chem. Theory Comput., 2019, 155, 2847-2862
     DOI: 10.1021/acs.jctc.9b00143
   
   for SPH calculations refer to:
   * S. Spicher and S. Grimme, J. Chem. Theory Comput., 2021, 17, 1701-1714
     DOI: 10.1021/acs.jctc.0c01306
   
   for ONIOM refer to:
   * C. Plett, A. Katbashev, S. Ehlert, S. Grimme, M. Bursch,
     Phys. Chem. Chem. Phys., 2023, 25, 17860-17868. DOI: 10.1039/D3CP02178E
   
   for DIPRO refer to:
   * J. Kohn, N. Gildemeister, S. Grimme, D. Fazzi, A. Hansen,
     J. Chem. Phys., 2023, just accepted.
   
   for PTB refer to:
   * S. Grimme, M. Mueller, A. Hansen, J. Chem. Phys., 2023, 158, 124111.
     DOI: 10.1063/5.0137838
   
   with help from (in alphabetical order)
   P. Atkinson, C. Bannwarth, F. Bohle, G. Brandenburg, E. Caldeweyher
   M. Checinski, S. Dohm, S. Ehlert, S. Ehrlich, I. Gerasimov, C. Hölzer
   A. Katbashev, J. Kohn, J. Koopman, C. Lavigne, S. Lehtola, F. März, M. Müller,
   F. Musil, H. Neugebauer, J. Pisarek, C. Plett, P. Pracht, F. Pultar,
   J. Seibert, P. Shushkov, S. Spicher, M. Stahn, M. Steiner, T. Strunk,
   J. Stückrath, T. Rose, and J. Unsleber
   
 * started run on 2025/04/09 at 01:36:24.365     
   ID    Z sym.   atoms
    1    6 C      1, 2
    2    9 F      3, 6, 7
    3   17 Cl     4, 5, 8

           -------------------------------------------------
          |                Calculation Setup                |
           -------------------------------------------------

          program call               : /usr/bin/xtb xtb_opt.coord --opt normal --orca -I xtb_opt-xcontrol-inp
          coordinate file            : xtb_opt.coord
          omp threads                :                    16

           -------------------------------------------------
          |                   Orca driver                   |
           -------------------------------------------------
orca executable           : /home/michael/Documents/CHEM4561/orca_avx2/orca
orca input file           : xtb_opt.inp
orca input line           : 
orca parallel             : true
orca number of threads    : 16
                         * ORCA takes the control...
  ------------------------------------------------------------------------

                                 *****************
                                 * O   R   C   A *
                                 *****************

                                            #,                                       
                                            ###                                      
                                            ####                                     
                                            #####                                    
                                            ######                                   
                                           ########,                                 
                                     ,,################,,,,,                         
                               ,,#################################,,                 
                          ,,##########################################,,             
                       ,#########################################, ''#####,          
                    ,#############################################,,   '####,        
                  ,##################################################,,,,####,       
                ,###########''''           ''''###############################       
              ,#####''   ,,,,##########,,,,          '''####'''          '####       
            ,##' ,,,,###########################,,,                        '##       
           ' ,,###''''                  '''############,,,                           
         ,,##''                                '''############,,,,        ,,,,,,###''
      ,#''                                            '''#######################'''  
     '                                                          ''''####''''         
             ,#######,   #######,   ,#######,      ##                                
            ,#'     '#,  ##    ##  ,#'     '#,    #''#        ,####,   ,####,        
            ##       ##  ##   ,#'  ##            #'  '#       #'       #'  '#        
            ##       ##  #######   ##           ,######,      #####,   #    #        
            '#,     ,#'  ##    ##  '#,     ,#' ,#      #,     #,   #   #,  ,#        
             '#######'   ##     ##  '#######'  #'      '#     '####' # '####'        



                #########################################################
                #                        -***-                          #
                #          Department of theory and spectroscopy        #
                #                                                       #
                #                      Frank Neese                      #
                #                                                       #
                #     Directorship, Architecture, Infrastructure        #
                #                    SHARK, DRIVERS                     #
                #        Core code/Algorithms in most modules           #
                #                                                       #
                #        Max Planck Institute fuer Kohlenforschung      #
                #                Kaiser Wilhelm Platz 1                 #
                #                 D-45470 Muelheim/Ruhr                 #
                #                      Germany                          #
                #                                                       #
                #                  All rights reserved                  #
                #                        -***-                          #
                #########################################################


                         Program Version 6.0.1  -  RELEASE   -


 With contributions from (in alphabetic order):
[Max-Planck-Institut fuer Kohlenforschung]                               
  Daniel Aravena         : Magnetic Suceptibility                        
  Michael Atanasov       : Ab Initio Ligand Field Theory (pilot matlab implementation)
  Alexander A. Auer      : GIAO ZORA, VPT2 properties, NMR spectrum      
  Ute Becker             : All parallelization in ORCA, NUMFREQ, NUMCALC 
  Giovanni Bistoni       : ED, misc. LED, open-shell LED, HFLD           
  Martin Brehm           : Molecular dynamics                            
  Dmytro Bykov           : pre 5.0 version of the SCF Hessian            
  Marcos Casanova-Páez   : Triplet and SCS-CIS(D). UHF-(DLPNO)-IP/EA/STEOM-CCSD. UHF-CVS-IP/STEOM-CCSD   
  Vijay G. Chilkuri      : MRCI spin determinant printing, contributions to CSF-ICE 
  Pauline Colinet        : FMM embedding                                 
  Dipayan Datta          : RHF DLPNO-CCSD density                        
  Achintya Kumar Dutta   : EOM-CC, STEOM-CC                              
  Nicolas Foglia         : Exact transition moments, OPA infrastructure, MCD improvements    
  Dmitry Ganyushin       : Spin-Orbit,Spin-Spin,Magnetic field MRCI      
  Miquel Garcia-Rates    : C-PCM and meta-GGA Hessian, CCSD/C-PCM, Gaussian charge scheme 
  Tiago L. C. Gouveia    : GS-ROHF, GS-ROCIS                             
  Yang Guo               : DLPNO-NEVPT2, F12-NEVPT2, CIM, IAO-localization        
  Andreas Hansen         : Spin unrestricted coupled pair/coupled cluster methods 
  Ingolf Harden          : AUTO-CI MPn and infrastructure                
  Benjamin Helmich-Paris : MC-RPA, TRAH-(SCF,CASSCF), AVAS, COSX integrals, SCF dyn. polar. 
  Lee Huntington         : MR-EOM, pCC                                   
  Robert Izsak           : Overlap fitted RIJCOSX, COSX-SCS-MP3, EOM     
  Riya Kayal             : Wick's Theorem for AUTO-CI, AUTO-CI UHF-CCSDT 
  Emily Kempfer          : AUTO-CI, RHF CISDT and CCSDT                  
  Christian Kollmar      : KDIIS, OOCD, Brueckner-CCSD(T), CCSD density, CASPT2, CASPT2-K, improved NEVPT2 
  Axel Koslowski         : Symmetry handling                             
  Simone Kossmann        : meta-GGA functionals, TD-DFT gradient, OOMP2, (MP2 Hessian; deprecated post 5.0) 
  Lucas Lang             : DCDCAS                                        
  Marvin Lechner         : AUTO-CI (C++ implementation), FIC-MRCC        
  Spencer Leger          : CASSCF response                               
  Dagmar Lenk            : GEPOL surface, SMD, ORCA-2-JSON               
  Dimitrios Liakos       : Extrapolation schemes; Compound Job, initial MDCI parallelization 
  Dimitrios Manganas     : Further ROCIS development; embedding schemes. LFT, Crystal Embedding 
  Dimitrios Pantazis     : SARC Basis sets                               
  Anastasios Papadopoulos: AUTO-CI, single reference methods and gradients 
  Taras Petrenko         : pre 6.0 DFT Hessian and TD-DFT gradient, (ASA, deprecated), ECA, 1-Electron XAS/XES, NRVS 
  Peter Pinski           : DLPNO-MP2, DLPNO-MP2 Gradient                 
  Christoph Reimann      : Effective Core Potentials                     
  Marius Retegan         : Local ZFS, SOC                                
  Christoph Riplinger    : Optimizer, TS searches, QM/MM, DLPNO-CCSD(T), (RO)-DLPNO pert. Triples 
  Michael Roemelt        : Original ROCIS implementation                 
  Masaaki Saitow         : Open-shell DLPNO-CCSD energy and density      
  Barbara Sandhoefer     : DKH picture change effects                    
  Kantharuban Sivalingam : CASSCF convergence/infrastructure, NEVPT2 and variants, FIC-MRCI 
  Bernardo de Souza      : ESD, SOC TD-DFT                               
  Georgi L. Stoychev     : AutoAux, RI-MP2 NMR, DLPNO-MP2 response, X2C  
  Van Anh Tran           : RI-MP2 g-tensors                              
  Willem Van den Heuvel  : Paramagnetic NMR                              
  Zikuan Wang            : NOTCH, Electric field optimization            
  Frank Wennmohs         : Technical directorship and infrastructure     
  Hang Xu                : AUTO-CI-Response properties                   
                                                                         
[FACCTs GmbH]                                                            
  Markus Bursch, Miquel Garcia-Rates, Christoph Riplinger, Bernardo de Souza, Georgi L. Stoychev 
                                                                 
  APM, Basis sets (HGBS, AHGBS, def-TZVP (Ac-Lr), def2-XVPD (La-Lu)), CI-OPT, improved COSX, DLPNO-Multilevel,           
  DOCKER, DRACO, updates on ESD, GOAT, IRC, LR-CPCM, MBIS, meta-GGA TD-DFT gradient, ML-optimized integration grids, 
  MM, NACMEs, nearIR, NEB, NEB-TS, NL-DFT gradient (VV10), 2- and 3-layer-ONIOM, interface openCOSMO-RS, QMMM,   
  Crystal-QMMM, SF, symmetry and pop. for TD-DFT, r2SCAN hybrids, SOLVATOR                                   
                                                                         
[Other institutions]                                                     
  V. Asgeirsson          : NEB                                           
  Christoph Bannwarth    : sTDA-DFT, sTD-DFT, PBEh-3c, B97-3c, D3        
  Sebastian Ehlert       : rSCAN, r2SCAN, r2SCAN-3c, D4, dhf basis sets  
  Marvin Friede          : D4 for Fr, Ra, Ac-Lr                          
  Lars Goerigk           : TD-DFT with DH, B97 family of functionals     
  Stefan Grimme          : VdW corrections, initial TS optimization, DFT functionals, gCP, sTDA/sTD-DF 
  Waldemar Hujo          : DFT-NL                                        
  H. Jonsson             : NEB                                           
  Holger Kruse           : gCP                                           
  Marcel Mueller         : wB97X-3c, vDZP basis set                      
  Hagen Neugebauer       : wr2SCAN                                       
  Tobias Risthaus        : range-separated hybrid DFT                    
  Lukas Wittmann         : regularized MP2, r2SCAN double-hybrids, wr2SCAN        
                                                                         
We gratefully acknowledge several colleagues who have allowed us to      
interface, adapt or use parts of their codes:                            
  Ed Valeev, F. Pavosevic, A. Kumar             : LibInt (2-el integral package), F12 methods 
  Garnet Chan, S. Sharma, J. Yang, R. Olivares  : DMRG                   
  Ulf Ekstrom                                   : XCFun DFT Library      
  Mihaly Kallay                                 : mrcc  (arbitrary order and MRCC methods)
  Frank Weinhold                                : gennbo (NPA and NBO analysis)           
  Simon Mueller                                 : openCOSMO-RS                            
  Christopher J. Cramer and Donald G. Truhlar   : smd solvation model                     
  S Lehtola, MJT Oliveira, MAL Marques          : LibXC Library                           
  Liviu Ungur et al                             : ANISO software                          


 Your calculation uses the libint2 library for the computation of 2-el integrals
 For citations please refer to: http://libint.valeyev.net

 Your ORCA version has been built with support for libXC version: 6.2.2
 For citations please refer to: https://libxc.gitlab.io

 This ORCA versions uses:
   CBLAS   interface :  Fast vector & matrix operations
   LAPACKE interface :  Fast linear algebra routines
   SCALAPACK package :  Parallel linear algebra routines
   Shared memory     :  Shared parallel matrices
   BLAS/LAPACK       :  OpenBLAS 0.3.27  USE64BITINT DYNAMIC_ARCH NO_AFFINITY Zen SINGLE_THREADED
        Core in use  :  Zen
   Copyright (c) 2011-2014, The OpenBLAS Project




***************************************
The coordinates will be read from file: xtb_opt.xyz
***************************************


Your calculation utilizes the geometrical counterpoise correction gCP
Please cite in your paper:
H.Kruse, S. Grimme J.Chem.Phys., 136, (2012), 154101 
   

Your calculation utilizes the atom-pairwise dispersion correction
based on EEQ partial charges (D4)


================================================================================

----- Orbital basis set information -----
Your calculation utilizes the basis: def2-mTZVPP
   Stefan Grimme, Andreas Hansen, Sebastian Ehlert, and Jan-Michael Mewes 
   J. Chem. Phys. 154, 064103 (2021). DOI: 10.1063/5.0040021

----- AuxJ basis set information -----
Your calculation utilizes the auxiliary basis: def2/J
   F. Weigend, Phys. Chem. Chem. Phys. 8, 1057 (2006).

================================================================================
                                        WARNINGS
                       Please study these warnings very carefully!
================================================================================

WARNING: Old DensityContainer found on disk!
         Will remove this file - 
         If you want to keep old densities, please start your calculation with a different basename. 



WARNING: SCAN, rSCAN, or r2SCAN functional requested.
  ===> : libXC variant has now been activated.



================================================================================
                                       INPUT FILE
================================================================================
NAME = xtb_opt.inp
|  1> ! r2scan-3c def2/J RI DEFGRID2 scfconv7 ENGRAD tightSCF miniprint
|  2> * xyzfile 0 1 xtb_opt.xyz
|  3> 
|  4>                          ****END OF INPUT****
================================================================================

                     *******************************
                     * Energy+Gradient Calculation *
                     *******************************

---------------------------------
CARTESIAN COORDINATES (ANGSTROEM)
---------------------------------
  C      0.696567    0.553136    0.208149
  C     -0.572410   -0.155719   -0.313805
  F     -0.488272   -0.287097   -1.649115
  Cl    -2.001338    0.822657    0.073868
  Cl    -0.688976   -1.761624    0.417262
  F      0.783520    1.788378   -0.297265
  F      0.637901    0.684106    1.536821
  Cl     2.148199   -0.366768   -0.235863

----------------------------
CARTESIAN COORDINATES (A.U.)
----------------------------
  NO LB      ZA    FRAG     MASS         X           Y           Z
   0 C     6.0000    0    12.011    1.316320    1.045275    0.393345
   1 C     6.0000    0    12.011   -1.081698   -0.294266   -0.593006
   2 F     9.0000    0    18.998   -0.922701   -0.542536   -3.116376
   3 Cl   17.0000    0    35.453   -3.781980    1.554596    0.139591
   4 Cl   17.0000    0    35.453   -1.301975   -3.328988    0.788511
   5 F     9.0000    0    18.998    1.480639    3.379545   -0.561749
   6 F     9.0000    0    18.998    1.205458    1.292773    2.904171
   7 Cl   17.0000    0    35.453    4.059508   -0.693091   -0.445716

------------------------------------------------------------------------------
                   ___                                                        
                  /   \      - P O W E R E D   B Y -                         
                 /     \                                                     
                 |  |  |   _    _      __       _____    __    __             
                 |  |  |  | |  | |    /  \     |  _  \  |  |  /  |          
                  \  \/   | |  | |   /    \    | | | |  |  | /  /          
                 / \  \   | |__| |  /  /\  \   | |_| |  |  |/  /          
                |  |  |   |  __  | /  /__\  \  |    /   |      \           
                |  |  |   | |  | | |   __   |  |    \   |  |\   \          
                \     /   | |  | | |  |  |  |  | |\  \  |  | \   \       
                 \___/    |_|  |_| |__|  |__|  |_| \__\ |__|  \__/        
                                                                              
                      - O R C A' S   B I G   F R I E N D -                    
                                      &                                       
                       - I N T E G R A L  F E E D E R -                       
                                                                              
 v1 FN, 2020, v2 2021, v3 2022-2024                                           
------------------------------------------------------------------------------


----------------------
SHARK INTEGRAL PACKAGE
----------------------

Number of atoms                             ...      8
Number of basis functions                   ...    191
Number of shells                            ...     81
Maximum angular momentum                    ...      2
Integral batch strategy                     ... SHARK/LIBINT Hybrid
RI-J (if used) integral strategy            ... SPLIT-RIJ (Revised 2003 algorithm where possible)
Printlevel                                  ...      1
Contraction scheme used                     ... SEGMENTED contraction
Prescreening option                         ... SCHWARTZ
   Thresh                                   ... 3.000e-11
   Tcut                                     ... 1.000e-12
   Tpresel                                  ... 1.000e-12 
Coulomb Range Separation                    ... NOT USED
Exchange Range Separation                   ... NOT USED
Multipole approximations                    ... NOT USED
Finite Nucleus Model                        ... NOT USED
CABS basis                                  ... NOT available
Auxiliary Coulomb fitting basis             ... AVAILABLE
   # of basis functions in Aux-J            ...    398
   # of shells in Aux-J                     ...    126
   Maximum angular momentum in Aux-J        ...      4
Auxiliary J/K fitting basis                 ... NOT available
Auxiliary Correlation fitting basis         ... NOT available
Auxiliary 'external' fitting basis          ... NOT available

Checking pre-screening integrals            ... done (  0.0 sec) Dimension = 81
Check shell pair data                       ... done (  0.0 sec)
Shell pair information
Shell pair cut-off parameter TPreSel        ...   1.0e-12
Total number of shell pairs                 ...      3321
Shell pairs after pre-screening             ...      2982
Total number of primitive shell pairs       ...     14426
Primitive shell pairs kept                  ...      8718
          la=0 lb=0:    638 shell pairs
          la=1 lb=0:    968 shell pairs
          la=1 lb=1:    365 shell pairs
          la=2 lb=0:    533 shell pairs
          la=2 lb=1:    373 shell pairs
          la=2 lb=2:    105 shell pairs

Calculating one electron integrals          ... done (  0.0 sec)
Calculating RI/J V-Matrix + Cholesky decomp.... done (  0.0 sec)
Calculating Nuclear repulsion               ... done (  0.0 sec) ENN=    702.029782655852 Eh

Diagonalization of the overlap matrix:
Smallest eigenvalue                        ... 4.086e-04
Time for diagonalization                   ...    0.002 sec
Threshold for overlap eigenvalues          ... 1.000e-07
Number of eigenvalues below threshold      ... 0
Time for construction of square roots      ...    0.001 sec
Total time needed                          ...    0.004 sec

-------------------
DFT GRID GENERATION
-------------------

General Integration Accuracy     IntAcc      ... 4.388
Radial Grid Type                 RadialGrid  ... OptM3 with GC (2021)
Angular Grid (max. ang.)         AngularGrid ... 4 (Lebedev-302)
Angular grid pruning method      GridPruning ... 4 (adaptive)
Weight generation scheme         WeightScheme... mBecke (2022)
Basis function cutoff            BFCut       ... 1.0000e-11
Integration weight cutoff        WCut        ... 1.0000e-14
Partially contracted basis set               ... off
Rotationally invariant grid construction     ... off
Angular grids for H and He will be reduced by one unit

Total number of grid points                  ...    52409
Total number of batches                      ...      822
Average number of points per batch           ...       63
Average number of grid points per atom       ...     6551
Initializing property integral containers    ... done (  0.0 sec)

SHARK setup successfully completed in   0.3 seconds

Maximum memory used throughout the entire STARTUP-calculation: 26.8 MB
Occupation numbers will be reassigned to an Aufbau configuration
             **** ENERGY FILE WAS UPDATED (xtb_opt.en.tmp) ****
Finished Guess after   0.0 sec
Maximum memory used throughout the entire GUESS-calculation: 13.8 MB
----------------------------------------D-I-I-S--------------------------------------------
Iteration    Energy (Eh)           Delta-E    RMSDP     MaxDP     DIISErr   Damp  Time(sec)
-------------------------------------------------------------------------------------------
               ***  Starting incremental Fock matrix formation  ***
                              *** Initializing SOSCF ***
---------------------------------------S-O-S-C-F--------------------------------------
Iteration    Energy (Eh)           Delta-E    RMSDP     MaxDP     MaxGrad    Time(sec)
--------------------------------------------------------------------------------------
    1    -1756.2584593699498328     0.00e+00  9.44e-06  1.76e-04  3.49e-05     0.8
               *** Restarting incremental Fock matrix formation ***
    2    -1756.2584593423075603     2.76e-08  1.38e-05  2.44e-04  1.12e-04     0.8
    3    -1756.2584585263316512     8.16e-07  9.61e-06  1.82e-04  1.59e-04     0.6
    4    -1756.2584597146901615    -1.19e-06  1.58e-06  3.69e-05  1.08e-05     0.6
                  *** Gradient check signals convergence ***

               *****************************************************
               *                     SUCCESS                       *
               *           SCF CONVERGED AFTER   4 CYCLES          *
               *****************************************************

             **** ENERGY FILE WAS UPDATED (xtb_opt.en.tmp) ****

----------------
TOTAL SCF ENERGY
----------------

Total Energy       :      -1756.25845971469016 Eh          -47790.22230 eV

Components:
Nuclear Repulsion  :        702.02978265585227 Eh           19103.20157 eV
Electronic Energy  :      -2458.28824237054232 Eh          -66893.42387 eV
One Electron Energy:      -3824.77377994868220 Eh         -104077.38574 eV
Two Electron Energy:       1366.48553757813988 Eh           37183.96187 eV

Virial components:
Potential Energy   :      -3508.15641407222438 Eh          -95461.78921 eV
Kinetic Energy     :       1751.89795435753422 Eh           47671.56691 eV
Virial Ratio       :          2.00248901789417

DFT components:
N(Alpha)           :       45.000037970745 electrons
N(Beta)            :       45.000037970745 electrons
N(Total)           :       90.000075941490 electrons
E(X)               :     -123.400661665112 Eh       
E(C)               :       -3.355097812032 Eh       
E(XC)              :     -126.755759477144 Eh       

---------------
SCF CONVERGENCE
---------------

  Last Energy change         ...    1.1884e-06  Tolerance :   1.0000e-07
  Last MAX-Density change    ...    3.6854e-05  Tolerance :   1.0000e-07
  Last RMS-Density change    ...    1.5753e-06  Tolerance :   5.0000e-09
  Last DIIS Error            ...    3.1960e-04  Tolerance :   1.0000e-07
  Last Orbital Gradient      ...    1.0781e-05  Tolerance :   1.0000e-04
  Last Orbital Rotation      ...    2.0636e-05  Tolerance :   1.0000e-04


----------------
ORBITAL ENERGIES
----------------

  NO   OCC          E(Eh)            E(eV) 
   0   2.0000    -101.257369     -2755.3531 
   1   2.0000    -101.256411     -2755.3270 
   2   2.0000    -101.252823     -2755.2294 
   3   2.0000     -24.553266      -668.1283 
   4   2.0000     -24.551136      -668.0704 
   5   2.0000     -24.550512      -668.0534 
   6   2.0000     -10.302987      -280.3585 
   7   2.0000     -10.281387      -279.7708 
   8   2.0000      -9.413236      -256.1472 
   9   2.0000      -9.412519      -256.1277 
  10   2.0000      -9.409038      -256.0329 
  11   2.0000      -7.160293      -194.8415 
  12   2.0000      -7.159539      -194.8210 
  13   2.0000      -7.155846      -194.7205 
  14   2.0000      -7.148934      -194.5324 
  15   2.0000      -7.148787      -194.5284 
  16   2.0000      -7.148232      -194.5133 
  17   2.0000      -7.148030      -194.5078 
  18   2.0000      -7.144799      -194.4199 
  19   2.0000      -7.144695      -194.4170 
  20   2.0000      -1.285744       -34.9869 
  21   2.0000      -1.251009       -34.0417 
  22   2.0000      -1.217655       -33.1341 
  23   2.0000      -0.906437       -24.6654 
  24   2.0000      -0.859471       -23.3874 
  25   2.0000      -0.826260       -22.4837 
  26   2.0000      -0.724643       -19.7185 
  27   2.0000      -0.639564       -17.4034 
  28   2.0000      -0.584352       -15.9010 
  29   2.0000      -0.575864       -15.6701 
  30   2.0000      -0.547162       -14.8890 
  31   2.0000      -0.519378       -14.1330 
  32   2.0000      -0.507553       -13.8112 
  33   2.0000      -0.452782       -12.3208 
  34   2.0000      -0.437455       -11.9037 
  35   2.0000      -0.420639       -11.4462 
  36   2.0000      -0.412605       -11.2276 
  37   2.0000      -0.400416       -10.8959 
  38   2.0000      -0.376462       -10.2441 
  39   2.0000      -0.345160        -9.3923 
  40   2.0000      -0.335317        -9.1244 
  41   2.0000      -0.332531        -9.0486 
  42   2.0000      -0.319123        -8.6838 
  43   2.0000      -0.318841        -8.6761 
  44   2.0000      -0.302112        -8.2209 
  45   0.0000      -0.068365        -1.8603 
  46   0.0000      -0.052633        -1.4322 
  47   0.0000      -0.012126        -0.3300 
  48   0.0000       0.021071         0.5734 
  49   0.0000       0.093529         2.5451 
  50   0.0000       0.099635         2.7112 
  51   0.0000       0.115120         3.1326 
  52   0.0000       0.149520         4.0686 
  53   0.0000       0.172248         4.6871 
  54   0.0000       0.205283         5.5860 
  55   0.0000       0.228438         6.2161 
*Only the first 10 virtual orbitals were printed.
Total SCF time: 0 days 0 hours 0 min 2 sec 
Finished LeanSCF after   3.0 sec

Maximum memory used throughout the entire LEANSCF-calculation: 19.1 MB


-------------------------------------------------------------------------------
                          DFT DISPERSION CORRECTION                            
                                                                               
                                DFTD4 V3.4.0                                   
-------------------------------------------------------------------------------
-------------------------   ----------------
Dispersion correction           -0.003025623
-------------------------   ----------------

------------------   -----------------
gCP correction             0.015139303
------------------   -----------------

-------------------------   --------------------
FINAL SINGLE POINT ENERGY     -1756.246346035394
-------------------------   --------------------

------------------------------------------------------------------------------
                         ORCA SCF GRADIENT CALCULATION
------------------------------------------------------------------------------

Nuc. rep. gradient        (SHARK) ... done (  0.0 sec)
HCore & Overlap gradient  (SHARK) ... done (  0.1 sec)
Split-RIJ-J gradient      (SHARK) ... done (  0.8 sec)
XC gradient                       ... done (  2.3 sec)
Dispersion correction             ... done (  0.0 sec)

-------------------
DISPERSION GRADIENT
-------------------

   1   C   :   -0.000060424   -0.000038115   -0.000007140
   2   C   :    0.000025859    0.000006428    0.000007685
   3   F   :   -0.000013787   -0.000005819   -0.000026049
   4   Cl  :   -0.000051814    0.000027620    0.000000532
   5   Cl  :   -0.000013991   -0.000036359    0.000008756
   6   F   :    0.000021039    0.000034041   -0.000003038
   7   F   :    0.000018710    0.000015630    0.000025096
   8   Cl  :    0.000074408   -0.000003426   -0.000005842

Difference to translation invariance:
           :    0.0000000000    0.0000000000   -0.0000000000

Difference to rotation invariance:
           :    0.0000000000   -0.0000000000    0.0000000000

Norm of the Dispersion gradient    ...    0.0001424287
RMS gradient                       ...    0.0000290731
MAX gradient                       ...    0.0000744078
gCP correction                   ... done

------------------
CARTESIAN GRADIENT
------------------

   1   C   :   -0.007697039   -0.006787090   -0.005641974
   2   C   :    0.005579798    0.003826277    0.003177763
   3   F   :   -0.002136032   -0.001940827    0.004256569
   4   Cl  :    0.004378805   -0.003733046   -0.001821196
   5   Cl  :    0.003188838    0.007182560   -0.003682833
   6   F   :    0.001659670   -0.004011773    0.008031370
   7   F   :    0.002035272    0.003023082   -0.007136065
   8   Cl  :   -0.007009312    0.002440817    0.002816367

Difference to translation invariance:
           :   -0.0000000000   -0.0000000000    0.0000000000

Difference to rotation invariance:
           :    0.0000547353   -0.0000649756    0.0003362236

Norm of the Cartesian gradient     ...    0.0232762822
RMS gradient                       ...    0.0047512512
MAX gradient                       ...    0.0080313699

-------
TIMINGS
-------

Total SCF gradient time     ....        3.195 sec

Densities                   ....       0.000 sec  (  0.0%)
One electron gradient       ....       0.071 sec  (  2.2%)
RI-J Coulomb gradient       ....       0.768 sec  ( 24.0%)
XC gradient                 ....       2.334 sec  ( 73.0%)

Maximum memory used throughout the entire SCFGRAD-calculation: 33.9 MB

------------------------------------------------------------------------------
                              ORCA PROPERTY CALCULATIONS
------------------------------------------------------------------------------

GBWName                                 ... xtb_opt.gbw
Number of atoms                         ...      8
Number of basis functions               ...    191
Max core memory                         ...   1024 MB

Electric properties:
Dipole moment                           ... YES
Quadrupole moment                       ...  NO
Static polarizability (Dipole/Dipole)   ...  NO
Static polarizability (Dipole/Quad.)    ...  NO
Static polarizability (Quad./Quad.)     ...  NO
Static polarizability (Velocity)        ...  NO

Atomic electric properties:
Dipole moment                           ...  NO
Quadrupole moment                       ...  NO
Static polarizability                   ...  NO

Choice of electric origin               ... Center of mass
Position of electric origin             ...    -0.000004    -0.000009     0.000002

General magnetic properties:
Magnetizability                         ...  NO

EPR properties:
g-Tensor (aka g-matrix)                 ...  NO
Zero-Field splitting spin-orbit         ...  NO
Zero-field splitting spin-spin          ...  NO
Hyperfine couplings                     ...  NO (   0 nuclei)
Quadrupole couplings                    ...  NO (   0 nuclei)
Contact density                         ...  NO (   0 nuclei)

NMR properties:
Chemical shifts                         ...  NO (   0 nuclei)
Spin-rotation constants                 ...  NO (   0 nuclei)
Spin-spin couplings                     ...  NO (   0 nuclei,    0 pairs)

Choice of magnetic origin               ... GIAO
Position of magnetic origin             ...     0.000000     0.000000     0.000000

Properties with geometric perturbations:
SCF Hessian                             ...  NO
IR spectrum                             ...  NO
VCD spectrum                            ...  NO
X-ray spectroscopy properties:
SCF XES/XAS/RIXS spectra                ...  NO


-------------
DIPOLE MOMENT
-------------

Method             : SCF
Type of density    : Electron Density
Multiplicity       :   1
Irrep              :   0
Energy             : -1756.2584597146901615 Eh
Relativity type    : 
Basis              : AO
                                X                 Y                 Z
Electronic contribution:      0.079422226       0.147886643       0.002503990
Nuclear contribution   :     -0.136977524      -0.272298958       0.036854420
                        -----------------------------------------
Total Dipole Moment    :     -0.057555298      -0.124412315       0.039358410
                        -----------------------------------------
Magnitude (a.u.)       :      0.142618795
Magnitude (Debye)      :      0.362508169



--------------------
Rotational spectrum 
--------------------
 
Rotational constants in cm-1:             0.052316             0.036301             0.029570 
Rotational constants in MHz :          1568.402813          1088.286716           886.486271 

Dipole components along the rotational axes: 
x,y,z [a.u.] :    -0.057555     0.124413     0.039358 
x,y,z [Debye]:    -0.146292     0.316232     0.100040 

 

Dipole moment calculation done in   0.0 sec 

Maximum memory used throughout the entire PROP-calculation: 12.3 MB

--------------------------------
SUGGESTED CITATIONS FOR THIS RUN
--------------------------------

Below you find a list of papers that are relevant to this ORCA run
We neither can nor want to force you to cite these papers, but we appreciate if you do
You receive ORCA, which is the product of decades of hard work by many enthusiastic individuals, for free
The only thing we kindly ask in return is that you cite our papers,
We deeply appreciate it, if you show your appreciation for ORCA by not just citing the generic ORCA reference.

Please note that relegating all ORCA citations to the supporting information does *not* help us.
SI sections are not indexed - citations you put there will not count into any citation statistics
But we need these citations in order to attract the funding resources that allow us to do what we are doing

Therefore, if you are a happy ORCA user, please consider citing a few of the papers listed below in the main body of your paper

In addition to the list printed below, the program has created the file xtb_opt.bibtex that contains the list in bibtex format
You can import this file easily into all common literature databanks and citation aid programs


List of essential papers. We consider these as the minimum necessary citations

  1. Neese,F.
     Software update: the ORCA program system, version 5.0
     WIRES Comput. Molec. Sci., 2022 12(1)e1606
     doi.org/10.1002/wcms.1606
  2. Grimme,S.; Hansen,A.; Ehlert,S.; Mewes,J.
     r2SCAN-3c: A 'Swiss army knife' composite electronic-structure method
     J. Chem. Phys., 2021 154 064103
     doi.org/10.1063/5.0040021

List of papers to cite with high priority. The work reported in these papers was absolutely
necessary for this run to complete.
Our perspective: the developers of density functionals and basis sets usually get cited in chemistry papers
Good! But without the algorithms to do something with them, the functionals or basis sets would not do anything.
Hence, in our opinion, the algorithm design and method developments papers are equally worthy of getting cited

  1. Neese,F.
     An improvement of the resolution of the identity approximation for the formation of the Coulomb matrix
     J. Comp. Chem., 2003 24(14)1740-1747
     doi.org/10.1002/jcc.10318
  2. Neese,F.
     The SHARK Integral Generation and Digestion System
     J. Comp. Chem., 2022  1-16
     doi.org/10.1002/jcc.26942
  3. Lehtola,S.; Steigemann,C.; Oliveira,M.; Marques,M.
     Recent developments in Libxc - A comprehensive library of functionals for density functional theory
     Software X, 2018 7 
     doi.org/10.1016/j.softx.2017.11.002
  4. Caldeweyher,E.; Bannwarth,C.; Grimme,S.
     Extension of the D3 dispersion coefficient model
     J. Chem. Phys., 2017 147 034112
     doi.org/10.1063/1.4993215
  5. Caldeweyher,E.; Ehlert,S.; Hansen,A.; Neugebauer,H.; Spicher,S.; Bannwarth,C.; Grimme,S.
     A generally applicable atomic-charge dependent London dispersion correction
     J. Chem. Phys., 2019 150 154122
     doi.org/10.1063/1.5090222
  6. Caldeweyher,E.; Mewes,J.; Ehlert,S.; Grimme,S.
     Extension and evaluation of the D4 London-dispersion model for periodic systems
     Phys. Chem. Chem. Phys., 2020 22(16)8499-8512
     doi.org/10.1039/D0CP00502A
  7. Wittmann,L.; Gordiy,I.; Friede,M.; Helmich-Paris,B.; Grimme,S.; Hansen,A.; Bursch,M.
     Extension of the D3 and D4 London Dispersion Corrections to the full Actinides Series
     Phys. Chem. Chem. Phys., 2024 26(32)21379-21394
     doi.org/https://doi.org/10.1039/D4CP01514B 

List of suggested additional citations. These are papers that are important in the 'surrounding' of 
of this run, or papers that preceded the highly important papers. If you like your results we are grateful for a citation.

  1. Neese,F.
     The ORCA program system
     WIRES Comput. Molec. Sci., 2012 2(1)73-78
     doi.org/10.1002/wcms.81
  2. Neese,F.
     Software update: the ORCA program system, version 4.0
     WIRES Comput. Molec. Sci., 2018 8(1)1-6
     doi.org/10.1002/wcms.1327
  3. Neese,F.; Wennmohs,F.; Becker,U.; Riplinger,C.
     The ORCA quantum chemistry program package
     J. Chem. Phys., 2020 152 Art. No. L224108
     doi.org/10.1063/5.0004608

List of optional additional citations

  1. Neese,F.
     Approximate second-order SCF convergence for spin unrestricted wavefunctions
     Chem. Phys. Lett., 2000 325(1-3)93-98
     doi.org/10.1016/s0009-2614(00)00662-x

Timings for individual modules:

Sum of individual times          ...        6.629 sec (=   0.110 min)
Startup calculation              ...        0.341 sec (=   0.006 min)   5.1 %
SCF iterations                   ...        3.019 sec (=   0.050 min)  45.5 %
Property calculations            ...        0.036 sec (=   0.001 min)   0.5 %
SCF Gradient evaluation          ...        3.233 sec (=   0.054 min)  48.8 %
                             ****ORCA TERMINATED NORMALLY****
TOTAL RUN TIME: 0 days 0 hours 0 minutes 6 seconds 695 msec
  ------------------------------------------------------------------------
          * successful ORCA run, taking over control again...

         :::::::::::::::::::::::::::::::::::::::::::::::::::::
         ::                  ORCA SUMMARY                   ::
         :::::::::::::::::::::::::::::::::::::::::::::::::::::
         :: total energy           -1756.246346035394 Eh    ::
         :: gradient norm              0.023276282245 Eh/a0 ::
         :: HOMO-LUMO gap              0.000000000000 eV    ::
         :::::::::::::::::::::::::::::::::::::::::::::::::::::

      ----------------------------------------------------------- 
     |                       L-ANC optimizer                     |
      ----------------------------------------------------------- 
          low memory version by Sebastian Ehlert

          ...................................................
          :                      SETUP                      :
          :.................................................:
          :   energy convergence        0.5000000E-05 Eh    :
          :   grad. convergence         0.1000000E-02 Eh/a0 :
          :   optimization log               true           :
          :   writing optlog all                1     steps :
          :   Hessian reset                     8     steps :
          :   maximium step len.        1.0000000     a0    :
          :   LBFGS images                      8           :
          ...................................................
 * calculating model hessian...
Using Lindh-Hessian (1995)
 Shifting diagonal of input Hessian by    1.0000000000000000E-002
 Lowest  eigenvalues of input Hessian
    0.000000    0.000000    0.000000    0.000000    0.000000    0.000000
    0.021789    0.029974    0.042718    0.051624    0.076063    0.091431
    0.114111    0.154846    0.166527    0.194818    0.261107    0.458751
 Highest eigenvalues
    0.776788    1.159651    1.204388    1.484366    1.559398    1.687969


........................................................................
.............................. CYCLE    1 ..............................
........................................................................
                         * ORCA takes the control...
  ------------------------------------------------------------------------

                                 *****************
                                 * O   R   C   A *
                                 *****************

                                            #,                                       
                                            ###                                      
                                            ####                                     
                                            #####                                    
                                            ######                                   
                                           ########,                                 
                                     ,,################,,,,,                         
                               ,,#################################,,                 
                          ,,##########################################,,             
                       ,#########################################, ''#####,          
                    ,#############################################,,   '####,        
                  ,##################################################,,,,####,       
                ,###########''''           ''''###############################       
              ,#####''   ,,,,##########,,,,          '''####'''          '####       
            ,##' ,,,,###########################,,,                        '##       
           ' ,,###''''                  '''############,,,                           
         ,,##''                                '''############,,,,        ,,,,,,###''
      ,#''                                            '''#######################'''  
     '                                                          ''''####''''         
             ,#######,   #######,   ,#######,      ##                                
            ,#'     '#,  ##    ##  ,#'     '#,    #''#        ,####,   ,####,        
            ##       ##  ##   ,#'  ##            #'  '#       #'       #'  '#        
            ##       ##  #######   ##           ,######,      #####,   #    #        
            '#,     ,#'  ##    ##  '#,     ,#' ,#      #,     #,   #   #,  ,#        
             '#######'   ##     ##  '#######'  #'      '#     '####' # '####'        



                #########################################################
                #                        -***-                          #
                #          Department of theory and spectroscopy        #
                #                                                       #
                #                      Frank Neese                      #
                #                                                       #
                #     Directorship, Architecture, Infrastructure        #
                #                    SHARK, DRIVERS                     #
                #        Core code/Algorithms in most modules           #
                #                                                       #
                #        Max Planck Institute fuer Kohlenforschung      #
                #                Kaiser Wilhelm Platz 1                 #
                #                 D-45470 Muelheim/Ruhr                 #
                #                      Germany                          #
                #                                                       #
                #                  All rights reserved                  #
                #                        -***-                          #
                #########################################################


                         Program Version 6.0.1  -  RELEASE   -


 With contributions from (in alphabetic order):
[Max-Planck-Institut fuer Kohlenforschung]                               
  Daniel Aravena         : Magnetic Suceptibility                        
  Michael Atanasov       : Ab Initio Ligand Field Theory (pilot matlab implementation)
  Alexander A. Auer      : GIAO ZORA, VPT2 properties, NMR spectrum      
  Ute Becker             : All parallelization in ORCA, NUMFREQ, NUMCALC 
  Giovanni Bistoni       : ED, misc. LED, open-shell LED, HFLD           
  Martin Brehm           : Molecular dynamics                            
  Dmytro Bykov           : pre 5.0 version of the SCF Hessian            
  Marcos Casanova-Páez   : Triplet and SCS-CIS(D). UHF-(DLPNO)-IP/EA/STEOM-CCSD. UHF-CVS-IP/STEOM-CCSD   
  Vijay G. Chilkuri      : MRCI spin determinant printing, contributions to CSF-ICE 
  Pauline Colinet        : FMM embedding                                 
  Dipayan Datta          : RHF DLPNO-CCSD density                        
  Achintya Kumar Dutta   : EOM-CC, STEOM-CC                              
  Nicolas Foglia         : Exact transition moments, OPA infrastructure, MCD improvements    
  Dmitry Ganyushin       : Spin-Orbit,Spin-Spin,Magnetic field MRCI      
  Miquel Garcia-Rates    : C-PCM and meta-GGA Hessian, CCSD/C-PCM, Gaussian charge scheme 
  Tiago L. C. Gouveia    : GS-ROHF, GS-ROCIS                             
  Yang Guo               : DLPNO-NEVPT2, F12-NEVPT2, CIM, IAO-localization        
  Andreas Hansen         : Spin unrestricted coupled pair/coupled cluster methods 
  Ingolf Harden          : AUTO-CI MPn and infrastructure                
  Benjamin Helmich-Paris : MC-RPA, TRAH-(SCF,CASSCF), AVAS, COSX integrals, SCF dyn. polar. 
  Lee Huntington         : MR-EOM, pCC                                   
  Robert Izsak           : Overlap fitted RIJCOSX, COSX-SCS-MP3, EOM     
  Riya Kayal             : Wick's Theorem for AUTO-CI, AUTO-CI UHF-CCSDT 
  Emily Kempfer          : AUTO-CI, RHF CISDT and CCSDT                  
  Christian Kollmar      : KDIIS, OOCD, Brueckner-CCSD(T), CCSD density, CASPT2, CASPT2-K, improved NEVPT2 
  Axel Koslowski         : Symmetry handling                             
  Simone Kossmann        : meta-GGA functionals, TD-DFT gradient, OOMP2, (MP2 Hessian; deprecated post 5.0) 
  Lucas Lang             : DCDCAS                                        
  Marvin Lechner         : AUTO-CI (C++ implementation), FIC-MRCC        
  Spencer Leger          : CASSCF response                               
  Dagmar Lenk            : GEPOL surface, SMD, ORCA-2-JSON               
  Dimitrios Liakos       : Extrapolation schemes; Compound Job, initial MDCI parallelization 
  Dimitrios Manganas     : Further ROCIS development; embedding schemes. LFT, Crystal Embedding 
  Dimitrios Pantazis     : SARC Basis sets                               
  Anastasios Papadopoulos: AUTO-CI, single reference methods and gradients 
  Taras Petrenko         : pre 6.0 DFT Hessian and TD-DFT gradient, (ASA, deprecated), ECA, 1-Electron XAS/XES, NRVS 
  Peter Pinski           : DLPNO-MP2, DLPNO-MP2 Gradient                 
  Christoph Reimann      : Effective Core Potentials                     
  Marius Retegan         : Local ZFS, SOC                                
  Christoph Riplinger    : Optimizer, TS searches, QM/MM, DLPNO-CCSD(T), (RO)-DLPNO pert. Triples 
  Michael Roemelt        : Original ROCIS implementation                 
  Masaaki Saitow         : Open-shell DLPNO-CCSD energy and density      
  Barbara Sandhoefer     : DKH picture change effects                    
  Kantharuban Sivalingam : CASSCF convergence/infrastructure, NEVPT2 and variants, FIC-MRCI 
  Bernardo de Souza      : ESD, SOC TD-DFT                               
  Georgi L. Stoychev     : AutoAux, RI-MP2 NMR, DLPNO-MP2 response, X2C  
  Van Anh Tran           : RI-MP2 g-tensors                              
  Willem Van den Heuvel  : Paramagnetic NMR                              
  Zikuan Wang            : NOTCH, Electric field optimization            
  Frank Wennmohs         : Technical directorship and infrastructure     
  Hang Xu                : AUTO-CI-Response properties                   
                                                                         
[FACCTs GmbH]                                                            
  Markus Bursch, Miquel Garcia-Rates, Christoph Riplinger, Bernardo de Souza, Georgi L. Stoychev 
                                                                 
  APM, Basis sets (HGBS, AHGBS, def-TZVP (Ac-Lr), def2-XVPD (La-Lu)), CI-OPT, improved COSX, DLPNO-Multilevel,           
  DOCKER, DRACO, updates on ESD, GOAT, IRC, LR-CPCM, MBIS, meta-GGA TD-DFT gradient, ML-optimized integration grids, 
  MM, NACMEs, nearIR, NEB, NEB-TS, NL-DFT gradient (VV10), 2- and 3-layer-ONIOM, interface openCOSMO-RS, QMMM,   
  Crystal-QMMM, SF, symmetry and pop. for TD-DFT, r2SCAN hybrids, SOLVATOR                                   
                                                                         
[Other institutions]                                                     
  V. Asgeirsson          : NEB                                           
  Christoph Bannwarth    : sTDA-DFT, sTD-DFT, PBEh-3c, B97-3c, D3        
  Sebastian Ehlert       : rSCAN, r2SCAN, r2SCAN-3c, D4, dhf basis sets  
  Marvin Friede          : D4 for Fr, Ra, Ac-Lr                          
  Lars Goerigk           : TD-DFT with DH, B97 family of functionals     
  Stefan Grimme          : VdW corrections, initial TS optimization, DFT functionals, gCP, sTDA/sTD-DF 
  Waldemar Hujo          : DFT-NL                                        
  H. Jonsson             : NEB                                           
  Holger Kruse           : gCP                                           
  Marcel Mueller         : wB97X-3c, vDZP basis set                      
  Hagen Neugebauer       : wr2SCAN                                       
  Tobias Risthaus        : range-separated hybrid DFT                    
  Lukas Wittmann         : regularized MP2, r2SCAN double-hybrids, wr2SCAN        
                                                                         
We gratefully acknowledge several colleagues who have allowed us to      
interface, adapt or use parts of their codes:                            
  Ed Valeev, F. Pavosevic, A. Kumar             : LibInt (2-el integral package), F12 methods 
  Garnet Chan, S. Sharma, J. Yang, R. Olivares  : DMRG                   
  Ulf Ekstrom                                   : XCFun DFT Library      
  Mihaly Kallay                                 : mrcc  (arbitrary order and MRCC methods)
  Frank Weinhold                                : gennbo (NPA and NBO analysis)           
  Simon Mueller                                 : openCOSMO-RS                            
  Christopher J. Cramer and Donald G. Truhlar   : smd solvation model                     
  S Lehtola, MJT Oliveira, MAL Marques          : LibXC Library                           
  Liviu Ungur et al                             : ANISO software                          


 Your calculation uses the libint2 library for the computation of 2-el integrals
 For citations please refer to: http://libint.valeyev.net

 Your ORCA version has been built with support for libXC version: 6.2.2
 For citations please refer to: https://libxc.gitlab.io

 This ORCA versions uses:
   CBLAS   interface :  Fast vector & matrix operations
   LAPACKE interface :  Fast linear algebra routines
   SCALAPACK package :  Parallel linear algebra routines
   Shared memory     :  Shared parallel matrices
   BLAS/LAPACK       :  OpenBLAS 0.3.27  USE64BITINT DYNAMIC_ARCH NO_AFFINITY Zen SINGLE_THREADED
        Core in use  :  Zen
   Copyright (c) 2011-2014, The OpenBLAS Project




***************************************
The coordinates will be read from file: xtb_opt.xyz
***************************************


Your calculation utilizes the geometrical counterpoise correction gCP
Please cite in your paper:
H.Kruse, S. Grimme J.Chem.Phys., 136, (2012), 154101 
   

Your calculation utilizes the atom-pairwise dispersion correction
based on EEQ partial charges (D4)


================================================================================

----- Orbital basis set information -----
Your calculation utilizes the basis: def2-mTZVPP
   Stefan Grimme, Andreas Hansen, Sebastian Ehlert, and Jan-Michael Mewes 
   J. Chem. Phys. 154, 064103 (2021). DOI: 10.1063/5.0040021

----- AuxJ basis set information -----
Your calculation utilizes the auxiliary basis: def2/J
   F. Weigend, Phys. Chem. Chem. Phys. 8, 1057 (2006).

================================================================================
                                        WARNINGS
                       Please study these warnings very carefully!
================================================================================

WARNING: Old DensityContainer found on disk!
         Will remove this file - 
         If you want to keep old densities, please start your calculation with a different basename. 



WARNING: SCAN, rSCAN, or r2SCAN functional requested.
  ===> : libXC variant has now been activated.



================================================================================
                                       INPUT FILE
================================================================================
NAME = xtb_opt.inp
|  1> ! r2scan-3c def2/J RI DEFGRID2 scfconv7 ENGRAD tightSCF miniprint
|  2> * xyzfile 0 1 xtb_opt.xyz
|  3> 
|  4>                          ****END OF INPUT****
================================================================================

                     *******************************
                     * Energy+Gradient Calculation *
                     *******************************

---------------------------------
CARTESIAN COORDINATES (ANGSTROEM)
---------------------------------
  C      0.708646    0.551773    0.212950
  C     -0.573711   -0.168694   -0.308535
  F     -0.476076   -0.283713   -1.647592
  Cl    -1.994449    0.834861    0.077395
  Cl    -0.738459   -1.781939    0.419283
  F      0.762711    1.784582   -0.315060
  F      0.641469    0.679209    1.545397
  Cl     2.185060   -0.339010   -0.243785

----------------------------
CARTESIAN COORDINATES (A.U.)
----------------------------
  NO LB      ZA    FRAG     MASS         X           Y           Z
   0 C     6.0000    0    12.011    1.339146    1.042700    0.402417
   1 C     6.0000    0    12.011   -1.084156   -0.318785   -0.583047
   2 F     9.0000    0    18.998   -0.899652   -0.536140   -3.113497
   3 Cl   17.0000    0    35.453   -3.768963    1.577658    0.146255
   4 Cl   17.0000    0    35.453   -1.395486   -3.367376    0.792329
   5 F     9.0000    0    18.998    1.441316    3.372371   -0.595377
   6 F     9.0000    0    18.998    1.212200    1.283519    2.920378
   7 Cl   17.0000    0    35.453    4.129165   -0.640637   -0.460687

------------------------------------------------------------------------------
                   ___                                                        
                  /   \      - P O W E R E D   B Y -                         
                 /     \                                                     
                 |  |  |   _    _      __       _____    __    __             
                 |  |  |  | |  | |    /  \     |  _  \  |  |  /  |          
                  \  \/   | |  | |   /    \    | | | |  |  | /  /          
                 / \  \   | |__| |  /  /\  \   | |_| |  |  |/  /          
                |  |  |   |  __  | /  /__\  \  |    /   |      \           
                |  |  |   | |  | | |   __   |  |    \   |  |\   \          
                \     /   | |  | | |  |  |  |  | |\  \  |  | \   \       
                 \___/    |_|  |_| |__|  |__|  |_| \__\ |__|  \__/        
                                                                              
                      - O R C A' S   B I G   F R I E N D -                    
                                      &                                       
                       - I N T E G R A L  F E E D E R -                       
                                                                              
 v1 FN, 2020, v2 2021, v3 2022-2024                                           
------------------------------------------------------------------------------


----------------------
SHARK INTEGRAL PACKAGE
----------------------

Number of atoms                             ...      8
Number of basis functions                   ...    191
Number of shells                            ...     81
Maximum angular momentum                    ...      2
Integral batch strategy                     ... SHARK/LIBINT Hybrid
RI-J (if used) integral strategy            ... SPLIT-RIJ (Revised 2003 algorithm where possible)
Printlevel                                  ...      1
Contraction scheme used                     ... SEGMENTED contraction
Prescreening option                         ... SCHWARTZ
   Thresh                                   ... 3.000e-11
   Tcut                                     ... 1.000e-12
   Tpresel                                  ... 1.000e-12 
Coulomb Range Separation                    ... NOT USED
Exchange Range Separation                   ... NOT USED
Multipole approximations                    ... NOT USED
Finite Nucleus Model                        ... NOT USED
CABS basis                                  ... NOT available
Auxiliary Coulomb fitting basis             ... AVAILABLE
   # of basis functions in Aux-J            ...    398
   # of shells in Aux-J                     ...    126
   Maximum angular momentum in Aux-J        ...      4
Auxiliary J/K fitting basis                 ... NOT available
Auxiliary Correlation fitting basis         ... NOT available
Auxiliary 'external' fitting basis          ... NOT available

Checking pre-screening integrals            ... done (  0.0 sec) Dimension = 81
Check shell pair data                       ... done (  0.0 sec)
Shell pair information
Shell pair cut-off parameter TPreSel        ...   1.0e-12
Total number of shell pairs                 ...      3321
Shell pairs after pre-screening             ...      2973
Total number of primitive shell pairs       ...     14426
Primitive shell pairs kept                  ...      8695
          la=0 lb=0:    636 shell pairs
          la=1 lb=0:    966 shell pairs
          la=1 lb=1:    362 shell pairs
          la=2 lb=0:    531 shell pairs
          la=2 lb=1:    373 shell pairs
          la=2 lb=2:    105 shell pairs

Calculating one electron integrals          ... done (  0.0 sec)
Calculating RI/J V-Matrix + Cholesky decomp.... done (  0.0 sec)
Calculating Nuclear repulsion               ... done (  0.0 sec) ENN=    697.867722342477 Eh

Diagonalization of the overlap matrix:
Smallest eigenvalue                        ... 4.305e-04
Time for diagonalization                   ...    0.002 sec
Threshold for overlap eigenvalues          ... 1.000e-07
Number of eigenvalues below threshold      ... 0
Time for construction of square roots      ...    0.001 sec
Total time needed                          ...    0.004 sec

-------------------
DFT GRID GENERATION
-------------------

General Integration Accuracy     IntAcc      ... 4.388
Radial Grid Type                 RadialGrid  ... OptM3 with GC (2021)
Angular Grid (max. ang.)         AngularGrid ... 4 (Lebedev-302)
Angular grid pruning method      GridPruning ... 4 (adaptive)
Weight generation scheme         WeightScheme... mBecke (2022)
Basis function cutoff            BFCut       ... 1.0000e-11
Integration weight cutoff        WCut        ... 1.0000e-14
Partially contracted basis set               ... off
Rotationally invariant grid construction     ... off
Angular grids for H and He will be reduced by one unit

Total number of grid points                  ...    52419
Total number of batches                      ...      822
Average number of points per batch           ...       63
Average number of grid points per atom       ...     6552
Initializing property integral containers    ... done (  0.0 sec)

SHARK setup successfully completed in   0.3 seconds

Maximum memory used throughout the entire STARTUP-calculation: 26.8 MB
Occupation numbers will be reassigned to an Aufbau configuration
             **** ENERGY FILE WAS UPDATED (xtb_opt.en.tmp) ****
Finished Guess after   0.0 sec
Maximum memory used throughout the entire GUESS-calculation: 13.8 MB
----------------------------------------D-I-I-S--------------------------------------------
Iteration    Energy (Eh)           Delta-E    RMSDP     MaxDP     DIISErr   Damp  Time(sec)
-------------------------------------------------------------------------------------------
               ***  Starting incremental Fock matrix formation  ***
    1    -1756.2578921951765096     0.00e+00  1.16e-04  1.63e-03  9.95e-03  0.700   0.8
    2    -1756.2582363802705459    -3.44e-04  1.09e-04  1.69e-03  7.67e-03  0.700   0.7
                               ***Turning on AO-DIIS***
    3    -1756.2584938124007294    -2.57e-04  8.48e-05  1.59e-03  5.55e-03  0.700   0.7
    4    -1756.2586724914524439    -1.79e-04  2.07e-04  4.08e-03  3.94e-03  0.000   0.6
                              *** Initializing SOSCF ***
---------------------------------------S-O-S-C-F--------------------------------------
Iteration    Energy (Eh)           Delta-E    RMSDP     MaxDP     MaxGrad    Time(sec)
--------------------------------------------------------------------------------------
    5    -1756.2590980402526384    -4.26e-04  1.54e-05  3.41e-04  4.93e-04     0.7
               *** Restarting incremental Fock matrix formation ***
    6    -1756.2590989398906913    -9.00e-07  1.62e-05  3.31e-04  1.06e-04     0.8
    7    -1756.2590979455596880     9.94e-07  1.08e-05  2.42e-04  2.30e-04     0.6
    8    -1756.2590993636965777    -1.42e-06  2.11e-06  4.51e-05  1.81e-05     0.6
                  *** Gradient check signals convergence ***

               *****************************************************
               *                     SUCCESS                       *
               *           SCF CONVERGED AFTER   8 CYCLES          *
               *****************************************************

             **** ENERGY FILE WAS UPDATED (xtb_opt.en.tmp) ****

----------------
TOTAL SCF ENERGY
----------------

Total Energy       :      -1756.25909936369658 Eh          -47790.23970 eV

Components:
Nuclear Repulsion  :        697.86772234247724 Eh           18989.94616 eV
Electronic Energy  :      -2454.12682170617381 Eh          -66780.18586 eV
One Electron Energy:      -3816.48368354437616 Eh         -103851.80075 eV
Two Electron Energy:       1362.35686183820235 Eh           37071.61490 eV

Virial components:
Potential Energy   :      -3508.04357140638422 Eh          -95458.71861 eV
Kinetic Energy     :       1751.78447204268787 Eh           47668.47890 eV
Virial Ratio       :          2.00255432525657

DFT components:
N(Alpha)           :       45.000034845561 electrons
N(Beta)            :       45.000034845561 electrons
N(Total)           :       90.000069691123 electrons
E(X)               :     -123.375932517822 Eh       
E(C)               :       -3.352837044197 Eh       
E(XC)              :     -126.728769562019 Eh       

---------------
SCF CONVERGENCE
---------------

  Last Energy change         ...    1.4181e-06  Tolerance :   1.0000e-07
  Last MAX-Density change    ...    4.5148e-05  Tolerance :   1.0000e-07
  Last RMS-Density change    ...    2.1147e-06  Tolerance :   5.0000e-09
  Last DIIS Error            ...    4.9330e-04  Tolerance :   1.0000e-07
  Last Orbital Gradient      ...    1.8126e-05  Tolerance :   1.0000e-04
  Last Orbital Rotation      ...    2.0538e-05  Tolerance :   1.0000e-04


----------------
ORBITAL ENERGIES
----------------

  NO   OCC          E(Eh)            E(eV) 
   0   2.0000    -101.257869     -2755.3667 
   1   2.0000    -101.256551     -2755.3308 
   2   2.0000    -101.254491     -2755.2748 
   3   2.0000     -24.553099      -668.1238 
   4   2.0000     -24.552018      -668.0944 
   5   2.0000     -24.551584      -668.0826 
   6   2.0000     -10.305137      -280.4170 
   7   2.0000     -10.282786      -279.8088 
   8   2.0000      -9.413584      -256.1566 
   9   2.0000      -9.412297      -256.1216 
  10   2.0000      -9.410344      -256.0685 
  11   2.0000      -7.160662      -194.8515 
  12   2.0000      -7.159379      -194.8166 
  13   2.0000      -7.157214      -194.7577 
  14   2.0000      -7.149313      -194.5427 
  15   2.0000      -7.149118      -194.5374 
  16   2.0000      -7.148017      -194.5074 
  17   2.0000      -7.147837      -194.5025 
  18   2.0000      -7.146117      -194.4557 
  19   2.0000      -7.146018      -194.4530 
  20   2.0000      -1.283150       -34.9163 
  21   2.0000      -1.249184       -33.9920 
  22   2.0000      -1.217872       -33.1400 
  23   2.0000      -0.902279       -24.5523 
  24   2.0000      -0.857730       -23.3400 
  25   2.0000      -0.824901       -22.4467 
  26   2.0000      -0.722947       -19.6724 
  27   2.0000      -0.639129       -17.3916 
  28   2.0000      -0.581755       -15.8304 
  29   2.0000      -0.575093       -15.6491 
  30   2.0000      -0.545792       -14.8518 
  31   2.0000      -0.518924       -14.1206 
  32   2.0000      -0.505984       -13.7685 
  33   2.0000      -0.451516       -12.2864 
  34   2.0000      -0.437785       -11.9127 
  35   2.0000      -0.420321       -11.4375 
  36   2.0000      -0.413718       -11.2578 
  37   2.0000      -0.399797       -10.8790 
  38   2.0000      -0.375643       -10.2218 
  39   2.0000      -0.344292        -9.3687 
  40   2.0000      -0.335910        -9.1406 
  41   2.0000      -0.331062        -9.0086 
  42   2.0000      -0.320280        -8.7153 
  43   2.0000      -0.318476        -8.6662 
  44   2.0000      -0.303291        -8.2530 
  45   0.0000      -0.071310        -1.9404 
  46   0.0000      -0.055009        -1.4969 
  47   0.0000      -0.015688        -0.4269 
  48   0.0000       0.019488         0.5303 
  49   0.0000       0.087695         2.3863 
  50   0.0000       0.097262         2.6466 
  51   0.0000       0.111740         3.0406 
  52   0.0000       0.146608         3.9894 
  53   0.0000       0.171569         4.6686 
  54   0.0000       0.204953         5.5771 
  55   0.0000       0.227249         6.1838 
*Only the first 10 virtual orbitals were printed.
Total SCF time: 0 days 0 hours 0 min 5 sec 
Finished LeanSCF after   5.6 sec

Maximum memory used throughout the entire LEANSCF-calculation: 19.1 MB


-------------------------------------------------------------------------------
                          DFT DISPERSION CORRECTION                            
                                                                               
                                DFTD4 V3.4.0                                   
-------------------------------------------------------------------------------
-------------------------   ----------------
Dispersion correction           -0.003019400
-------------------------   ----------------

------------------   -----------------
gCP correction             0.014779502
------------------   -----------------

-------------------------   --------------------
FINAL SINGLE POINT ENERGY     -1756.247339261561
-------------------------   --------------------

------------------------------------------------------------------------------
                         ORCA SCF GRADIENT CALCULATION
------------------------------------------------------------------------------

Nuc. rep. gradient        (SHARK) ... done (  0.0 sec)
HCore & Overlap gradient  (SHARK) ... done (  0.1 sec)
Split-RIJ-J gradient      (SHARK) ... done (  0.7 sec)
XC gradient                       ... done (  2.3 sec)
Dispersion correction             ... done (  0.0 sec)

-------------------
DISPERSION GRADIENT
-------------------

   1   C   :   -0.000061523   -0.000031175   -0.000011573
   2   C   :    0.000026884    0.000010703    0.000010479
   3   F   :   -0.000013557   -0.000005468   -0.000025656
   4   Cl  :   -0.000048185    0.000026934    0.000000567
   5   Cl  :   -0.000023697   -0.000048505    0.000009932
   6   F   :    0.000020225    0.000032947   -0.000003280
   7   F   :    0.000018983    0.000015867    0.000025386
   8   Cl  :    0.000080870   -0.000001303   -0.000005855

Difference to translation invariance:
           :    0.0000000000   -0.0000000000   -0.0000000000

Difference to rotation invariance:
           :    0.0000000000    0.0000000000   -0.0000000000

Norm of the Dispersion gradient    ...    0.0001486880
RMS gradient                       ...    0.0000303508
MAX gradient                       ...    0.0000808695
gCP correction                   ... done

------------------
CARTESIAN GRADIENT
------------------

   1   C   :   -0.001237352   -0.003280208   -0.003687980
   2   C   :    0.001649647    0.001061679    0.003306314
   3   F   :   -0.000745995    0.000258635    0.000556592
   4   Cl  :    0.002718585   -0.001810516   -0.001044164
   5   Cl  :   -0.000747152    0.001383566   -0.000689849
   6   F   :    0.000116185   -0.000589394    0.002588824
   7   F   :   -0.000666406    0.001573861   -0.001305225
   8   Cl  :   -0.001087512    0.001402378    0.000275488

Difference to translation invariance:
           :   -0.0000000001   -0.0000000000    0.0000000000

Difference to rotation invariance:
           :   -0.0000318035   -0.0000065128    0.0003436171

Norm of the Cartesian gradient     ...    0.0084395276
RMS gradient                       ...    0.0017227114
MAX gradient                       ...    0.0036879800

-------
TIMINGS
-------

Total SCF gradient time     ....        3.090 sec

Densities                   ....       0.000 sec  (  0.0%)
One electron gradient       ....       0.070 sec  (  2.3%)
RI-J Coulomb gradient       ....       0.742 sec  ( 24.0%)
XC gradient                 ....       2.257 sec  ( 73.0%)

Maximum memory used throughout the entire SCFGRAD-calculation: 33.9 MB

------------------------------------------------------------------------------
                              ORCA PROPERTY CALCULATIONS
------------------------------------------------------------------------------

GBWName                                 ... xtb_opt.gbw
Number of atoms                         ...      8
Number of basis functions               ...    191
Max core memory                         ...   1024 MB

Electric properties:
Dipole moment                           ... YES
Quadrupole moment                       ...  NO
Static polarizability (Dipole/Dipole)   ...  NO
Static polarizability (Dipole/Quad.)    ...  NO
Static polarizability (Quad./Quad.)     ...  NO
Static polarizability (Velocity)        ...  NO

Atomic electric properties:
Dipole moment                           ...  NO
Quadrupole moment                       ...  NO
Static polarizability                   ...  NO

Choice of electric origin               ... Center of mass
Position of electric origin             ...    -0.001715     0.004262    -0.001102

General magnetic properties:
Magnetizability                         ...  NO

EPR properties:
g-Tensor (aka g-matrix)                 ...  NO
Zero-Field splitting spin-orbit         ...  NO
Zero-field splitting spin-spin          ...  NO
Hyperfine couplings                     ...  NO (   0 nuclei)
Quadrupole couplings                    ...  NO (   0 nuclei)
Contact density                         ...  NO (   0 nuclei)

NMR properties:
Chemical shifts                         ...  NO (   0 nuclei)
Spin-rotation constants                 ...  NO (   0 nuclei)
Spin-spin couplings                     ...  NO (   0 nuclei,    0 pairs)

Choice of magnetic origin               ... GIAO
Position of magnetic origin             ...     0.000000     0.000000     0.000000

Properties with geometric perturbations:
SCF Hessian                             ...  NO
IR spectrum                             ...  NO
VCD spectrum                            ...  NO
X-ray spectroscopy properties:
SCF XES/XAS/RIXS spectra                ...  NO


-------------
DIPOLE MOMENT
-------------

Method             : SCF
Type of density    : Electron Density
Multiplicity       :   1
Irrep              :   0
Energy             : -1756.2590993636965777 Eh
Relativity type    : 
Basis              : AO
                                X                 Y                 Z
Electronic contribution:      0.091256301       0.150290185       0.003999798
Nuclear contribution   :     -0.130770439      -0.278368220       0.043196678
                        -----------------------------------------
Total Dipole Moment    :     -0.039514137      -0.128078035       0.047196476
                        -----------------------------------------
Magnitude (a.u.)       :      0.142101574
Magnitude (Debye)      :      0.361193496



--------------------
Rotational spectrum 
--------------------
 
Rotational constants in cm-1:             0.051854             0.035719             0.029116 
Rotational constants in MHz :          1554.544943          1070.826843           872.890061 

Dipole components along the rotational axes: 
x,y,z [a.u.] :    -0.043345     0.127420     0.045588 
x,y,z [Debye]:    -0.110174     0.323875     0.115876 

 

Dipole moment calculation done in   0.0 sec 

Maximum memory used throughout the entire PROP-calculation: 12.3 MB

--------------------------------
SUGGESTED CITATIONS FOR THIS RUN
--------------------------------

Below you find a list of papers that are relevant to this ORCA run
We neither can nor want to force you to cite these papers, but we appreciate if you do
You receive ORCA, which is the product of decades of hard work by many enthusiastic individuals, for free
The only thing we kindly ask in return is that you cite our papers,
We deeply appreciate it, if you show your appreciation for ORCA by not just citing the generic ORCA reference.

Please note that relegating all ORCA citations to the supporting information does *not* help us.
SI sections are not indexed - citations you put there will not count into any citation statistics
But we need these citations in order to attract the funding resources that allow us to do what we are doing

[...]
Iteration    Energy (Eh)           Delta-E    RMSDP     MaxDP     MaxGrad    Time(sec)
--------------------------------------------------------------------------------------
    1    -1756.2590532539609285     0.00e+00  1.70e-06  3.58e-05  6.45e-06     0.8
               *** Restarting incremental Fock matrix formation ***
    2    -1756.2590532530232394     9.38e-10  2.59e-06  5.16e-05  2.00e-05     0.8
                  *** Gradient check signals convergence ***

               *****************************************************
               *                     SUCCESS                       *
               *           SCF CONVERGED AFTER   2 CYCLES          *
               *****************************************************

             **** ENERGY FILE WAS UPDATED (xtb_opt.en.tmp) ****

----------------
TOTAL SCF ENERGY
----------------

Total Energy       :      -1756.25905325302324 Eh          -47790.23845 eV

Components:
Nuclear Repulsion  :        696.51734988929888 Eh           18953.20065 eV
Electronic Energy  :      -2452.77640314232212 Eh          -66743.43910 eV
One Electron Energy:      -3813.78545618537646 Eh         -103778.37825 eV
Two Electron Energy:       1361.00905304305434 Eh           37034.93915 eV

Virial components:
Potential Energy   :      -3508.00494934147355 Eh          -95457.66765 eV
Kinetic Energy     :       1751.74589608845054 Eh           47667.42920 eV
Virial Ratio       :          2.00257637661641

DFT components:
N(Alpha)           :       45.000034800809 electrons
N(Beta)            :       45.000034800809 electrons
N(Total)           :       90.000069601618 electrons
E(X)               :     -123.366789487701 Eh       
E(C)               :       -3.352067186317 Eh       
E(XC)              :     -126.718856674018 Eh       

---------------
SCF CONVERGENCE
---------------

  Last Energy change         ...   -9.3769e-10  Tolerance :   1.0000e-07
  Last MAX-Density change    ...    5.1608e-05  Tolerance :   1.0000e-07
  Last RMS-Density change    ...    2.5886e-06  Tolerance :   5.0000e-09
  Last DIIS Error            ...    4.0678e-05  Tolerance :   1.0000e-07
  Last Orbital Gradient      ...    1.9965e-05  Tolerance :   1.0000e-04
  Last Orbital Rotation      ...    4.1269e-05  Tolerance :   1.0000e-04


----------------
ORBITAL ENERGIES
----------------

  NO   OCC          E(Eh)            E(eV) 
   0   2.0000    -101.257647     -2755.3606 
   1   2.0000    -101.256752     -2755.3363 
   2   2.0000    -101.253745     -2755.2545 
   3   2.0000     -24.554643      -668.1658 
   4   2.0000     -24.553926      -668.1463 
   5   2.0000     -24.552661      -668.1119 
   6   2.0000     -10.306060      -280.4421 
   7   2.0000     -10.283570      -279.8302 
   8   2.0000      -9.413285      -256.1485 
   9   2.0000      -9.412290      -256.1214 
  10   2.0000      -9.409500      -256.0455 
  11   2.0000      -7.160369      -194.8435 
  12   2.0000      -7.159393      -194.8170 
  13   2.0000      -7.156380      -194.7350 
  14   2.0000      -7.149024      -194.5348 
  15   2.0000      -7.148826      -194.5294 
  16   2.0000      -7.148024      -194.5076 
  17   2.0000      -7.147850      -194.5029 
  18   2.0000      -7.145290      -194.4332 
  19   2.0000      -7.145176      -194.4301 
  20   2.0000      -1.283721       -34.9318 
  21   2.0000      -1.250799       -34.0360 
  22   2.0000      -1.219667       -33.1888 
  23   2.0000      -0.900153       -24.4944 
  24   2.0000      -0.855677       -23.2842 
  25   2.0000      -0.823888       -22.4191 
  26   2.0000      -0.721929       -19.6447 
  27   2.0000      -0.639997       -17.4152 
  28   2.0000      -0.581947       -15.8356 
  29   2.0000      -0.575991       -15.6735 
  30   2.0000      -0.545432       -14.8420 
  31   2.0000      -0.519141       -14.1265 
  32   2.0000      -0.506314       -13.7775 
  33   2.0000      -0.452328       -12.3085 
  34   2.0000      -0.438915       -11.9435 
  35   2.0000      -0.420725       -11.4485 
  36   2.0000      -0.415117       -11.2959 
  37   2.0000      -0.399863       -10.8808 
  38   2.0000      -0.375159       -10.2086 
  39   2.0000      -0.344109        -9.3637 
  40   2.0000      -0.335010        -9.1161 
  41   2.0000      -0.330764        -9.0005 
  42   2.0000      -0.319602        -8.6968 
  43   2.0000      -0.318320        -8.6619 
  44   2.0000      -0.303046        -8.2463 
  45   0.0000      -0.073310        -1.9949 
  46   0.0000      -0.055917        -1.5216 
  47   0.0000      -0.016712        -0.4548 
  48   0.0000       0.020209         0.5499 
  49   0.0000       0.085974         2.3395 
  50   0.0000       0.095987         2.6119 
  51   0.0000       0.111307         3.0288 
  52   0.0000       0.146338         3.9820 
  53   0.0000       0.171512         4.6671 
  54   0.0000       0.205132         5.5819 
  55   0.0000       0.226984         6.1766 
*Only the first 10 virtual orbitals were printed.
Total SCF time: 0 days 0 hours 0 min 1 sec 
Finished LeanSCF after   1.6 sec

Maximum memory used throughout the entire LEANSCF-calculation: 19.0 MB


-------------------------------------------------------------------------------
                          DFT DISPERSION CORRECTION                            
                                                                               
                                DFTD4 V3.4.0                                   
-------------------------------------------------------------------------------
-------------------------   ----------------
Dispersion correction           -0.003018639
-------------------------   ----------------

------------------   -----------------
gCP correction             0.014599069
------------------   -----------------

-------------------------   --------------------
FINAL SINGLE POINT ENERGY     -1756.247472822908
-------------------------   --------------------

------------------------------------------------------------------------------
                         ORCA SCF GRADIENT CALCULATION
------------------------------------------------------------------------------

Nuc. rep. gradient        (SHARK) ... done (  0.0 sec)
HCore & Overlap gradient  (SHARK) ... done (  0.1 sec)
Split-RIJ-J gradient      (SHARK) ... done (  0.8 sec)
XC gradient                       ... done (  2.2 sec)
Dispersion correction             ... done (  0.0 sec)

-------------------
DISPERSION GRADIENT
-------------------

   1   C   :   -0.000060451   -0.000034157   -0.000013252
   2   C   :    0.000029198    0.000012624    0.000012248
   3   F   :   -0.000013652   -0.000005373   -0.000026037
   4   Cl  :   -0.000051632    0.000027040    0.000000412
   5   Cl  :   -0.000023205   -0.000048251    0.000009468
   6   F   :    0.000020439    0.000032990   -0.000003557
   7   F   :    0.000019371    0.000016179    0.000025885
   8   Cl  :    0.000079931   -0.000001053   -0.000005166

Difference to translation invariance:
           :   -0.0000000000    0.0000000000    0.0000000000

Difference to rotation invariance:
           :    0.0000000000    0.0000000000    0.0000000000

Norm of the Dispersion gradient    ...    0.0001504916
RMS gradient                       ...    0.0000307190
MAX gradient                       ...    0.0000799313
gCP correction                   ... done

------------------
CARTESIAN GRADIENT
------------------

   1   C   :    0.000142736    0.000172874    0.000224088
   2   C   :   -0.000032986    0.000031157   -0.000342390
   3   F   :   -0.000036425   -0.000028487    0.000228942
   4   Cl  :   -0.000028409   -0.000011225    0.000010548
   5   Cl  :    0.000027777   -0.000042718    0.000044613
   6   F   :   -0.000064809   -0.000117603    0.000116245
   7   F   :   -0.000031674    0.000010637   -0.000254024
   8   Cl  :    0.000023789   -0.000014636   -0.000028021

Difference to translation invariance:
           :   -0.0000000001   -0.0000000000    0.0000000000

Difference to rotation invariance:
           :   -0.0000452252    0.0000359193    0.0003407456

Norm of the Cartesian gradient     ...    0.0006153871
RMS gradient                       ...    0.0001256154
MAX gradient                       ...    0.0003423903

-------
TIMINGS
-------

Total SCF gradient time     ....        3.075 sec

Densities                   ....       0.000 sec  (  0.0%)
One electron gradient       ....       0.068 sec  (  2.2%)
RI-J Coulomb gradient       ....       0.754 sec  ( 24.5%)
XC gradient                 ....       2.231 sec  ( 72.6%)

Maximum memory used throughout the entire SCFGRAD-calculation: 33.9 MB

------------------------------------------------------------------------------
                              ORCA PROPERTY CALCULATIONS
------------------------------------------------------------------------------

GBWName                                 ... xtb_opt.gbw
Number of atoms                         ...      8
Number of basis functions               ...    191
Max core memory                         ...   1024 MB

Electric properties:
Dipole moment                           ... YES
Quadrupole moment                       ...  NO
Static polarizability (Dipole/Dipole)   ...  NO
Static polarizability (Dipole/Quad.)    ...  NO
Static polarizability (Quad./Quad.)     ...  NO
Static polarizability (Velocity)        ...  NO

Atomic electric properties:
Dipole moment                           ...  NO
Quadrupole moment                       ...  NO
Static polarizability                   ...  NO

Choice of electric origin               ... Center of mass
Position of electric origin             ...    -0.002160     0.000551     0.000773

General magnetic properties:
Magnetizability                         ...  NO

EPR properties:
g-Tensor (aka g-matrix)                 ...  NO
Zero-Field splitting spin-orbit         ...  NO
Zero-field splitting spin-spin          ...  NO
Hyperfine couplings                     ...  NO (   0 nuclei)
Quadrupole couplings                    ...  NO (   0 nuclei)
Contact density                         ...  NO (   0 nuclei)

NMR properties:
Chemical shifts                         ...  NO (   0 nuclei)
Spin-rotation constants                 ...  NO (   0 nuclei)
Spin-spin couplings                     ...  NO (   0 nuclei,    0 pairs)

Choice of magnetic origin               ... GIAO
Position of magnetic origin             ...     0.000000     0.000000     0.000000

Properties with geometric perturbations:
SCF Hessian                             ...  NO
IR spectrum                             ...  NO
VCD spectrum                            ...  NO
X-ray spectroscopy properties:
SCF XES/XAS/RIXS spectra                ...  NO


-------------
DIPOLE MOMENT
-------------

Method             : SCF
Type of density    : Electron Density
Multiplicity       :   1
Irrep              :   0
Energy             : -1756.2590532530232394 Eh
Relativity type    : 
Basis              : AO
                                X                 Y                 Z
Electronic contribution:      0.091209781       0.159166964       0.004197921
Nuclear contribution   :     -0.133483538      -0.277371341       0.045930255
                        -----------------------------------------
Total Dipole Moment    :     -0.042273756      -0.118204378       0.050128176
                        -----------------------------------------
Magnitude (a.u.)       :      0.135174626
Magnitude (Debye)      :      0.343586593



--------------------
Rotational spectrum 
--------------------
 
Rotational constants in cm-1:             0.051694             0.035586             0.028997 
Rotational constants in MHz :          1549.754742          1066.852382           869.313917 

Dipole components along the rotational axes: 
x,y,z [a.u.] :    -0.044676     0.117857     0.048848 
x,y,z [Debye]:    -0.113557     0.299568     0.124161 

 

Dipole moment calculation done in   0.0 sec 

Maximum memory used throughout the entire PROP-calculation: 12.3 MB

--------------------------------
SUGGESTED CITATIONS FOR THIS RUN
--------------------------------

Below you find a list of papers that are relevant to this ORCA run
We neither can nor want to force you to cite these papers, but we appreciate if you do
You receive ORCA, which is the product of decades of hard work by many enthusiastic individuals, for free
The only thing we kindly ask in return is that you cite our papers,
We deeply appreciate it, if you show your appreciation for ORCA by not just citing the generic ORCA reference.

Please note that relegating all ORCA citations to the supporting information does *not* help us.
SI sections are not indexed - citations you put there will not count into any citation statistics
But we need these citations in order to attract the funding resources that allow us to do what we are doing

Therefore, if you are a happy ORCA user, please consider citing a few of the papers listed below in the main body of your paper

In addition to the list printed below, the program has created the file xtb_opt.bibtex that contains the list in bibtex format
You can import this file easily into all common literature databanks and citation aid programs


List of essential papers. We consider these as the minimum necessary citations

  1. Neese,F.
     Software update: the ORCA program system, version 5.0
     WIRES Comput. Molec. Sci., 2022 12(1)e1606
     doi.org/10.1002/wcms.1606
  2. Grimme,S.; Hansen,A.; Ehlert,S.; Mewes,J.
     r2SCAN-3c: A 'Swiss army knife' composite electronic-structure method
     J. Chem. Phys., 2021 154 064103
     doi.org/10.1063/5.0040021

List of papers to cite with high priority. The work reported in these papers was absolutely
necessary for this run to complete.
Our perspective: the developers of density functionals and basis sets usually get cited in chemistry papers
Good! But without the algorithms to do something with them, the functionals or basis sets would not do anything.
Hence, in our opinion, the algorithm design and method developments papers are equally worthy of getting cited

  1. Neese,F.
     An improvement of the resolution of the identity approximation for the formation of the Coulomb matrix
     J. Comp. Chem., 2003 24(14)1740-1747
     doi.org/10.1002/jcc.10318
  2. Neese,F.
     The SHARK Integral Generation and Digestion System
     J. Comp. Chem., 2022  1-16
     doi.org/10.1002/jcc.26942
  3. Lehtola,S.; Steigemann,C.; Oliveira,M.; Marques,M.
     Recent developments in Libxc - A comprehensive library of functionals for density functional theory
     Software X, 2018 7 
     doi.org/10.1016/j.softx.2017.11.002
  4. Caldeweyher,E.; Bannwarth,C.; Grimme,S.
     Extension of the D3 dispersion coefficient model
     J. Chem. Phys., 2017 147 034112
     doi.org/10.1063/1.4993215
  5. Caldeweyher,E.; Ehlert,S.; Hansen,A.; Neugebauer,H.; Spicher,S.; Bannwarth,C.; Grimme,S.
     A generally applicable atomic-charge dependent London dispersion correction
     J. Chem. Phys., 2019 150 154122
     doi.org/10.1063/1.5090222
  6. Caldeweyher,E.; Mewes,J.; Ehlert,S.; Grimme,S.
     Extension and evaluation of the D4 London-dispersion model for periodic systems
     Phys. Chem. Chem. Phys., 2020 22(16)8499-8512
     doi.org/10.1039/D0CP00502A
  7. Wittmann,L.; Gordiy,I.; Friede,M.; Helmich-Paris,B.; Grimme,S.; Hansen,A.; Bursch,M.
     Extension of the D3 and D4 London Dispersion Corrections to the full Actinides Series
     Phys. Chem. Chem. Phys., 2024 26(32)21379-21394
     doi.org/https://doi.org/10.1039/D4CP01514B 

List of suggested additional citations. These are papers that are important in the 'surrounding' of 
of this run, or papers that preceded the highly important papers. If you like your results we are grateful for a citation.

  1. Neese,F.
     The ORCA program system
     WIRES Comput. Molec. Sci., 2012 2(1)73-78
     doi.org/10.1002/wcms.81
  2. Neese,F.
     Software update: the ORCA program system, version 4.0
     WIRES Comput. Molec. Sci., 2018 8(1)1-6
     doi.org/10.1002/wcms.1327
  3. Neese,F.; Wennmohs,F.; Becker,U.; Riplinger,C.
     The ORCA quantum chemistry program package
     J. Chem. Phys., 2020 152 Art. No. L224108
     doi.org/10.1063/5.0004608

List of optional additional citations

  1. Neese,F.
     Approximate second-order SCF convergence for spin unrestricted wavefunctions
     Chem. Phys. Lett., 2000 325(1-3)93-98
     doi.org/10.1016/s0009-2614(00)00662-x

Timings for individual modules:

Sum of individual times          ...        5.179 sec (=   0.086 min)
Startup calculation              ...        0.349 sec (=   0.006 min)   6.7 %
SCF iterations                   ...        1.682 sec (=   0.028 min)  32.5 %
Property calculations            ...        0.035 sec (=   0.001 min)   0.7 %
SCF Gradient evaluation          ...        3.113 sec (=   0.052 min)  60.1 %
                             ****ORCA TERMINATED NORMALLY****
TOTAL RUN TIME: 0 days 0 hours 0 minutes 5 seconds 244 msec
  ------------------------------------------------------------------------
          * successful ORCA run, taking over control again...

         :::::::::::::::::::::::::::::::::::::::::::::::::::::
         ::                  ORCA SUMMARY                   ::
         :::::::::::::::::::::::::::::::::::::::::::::::::::::
         :: total energy           -1756.247472822908 Eh    ::
         :: gradient norm              0.000615387057 Eh/a0 ::
         :: HOMO-LUMO gap              0.000000000000 eV    ::
         :::::::::::::::::::::::::::::::::::::::::::::::::::::

           -------------------------------------------------
          |                Property Printout                |
           -------------------------------------------------
           -------------------------------------------------
          |                Geometry Summary                 |
           -------------------------------------------------

      molecular mass/u    :      187.3754940
   center of mass at/Å    :       -0.0011411       0.0002961       0.0004081
  moments of inertia/u·Å² :        0.3261061E+03   0.4737127E+03   0.5813554E+03
rotational constants/cm⁻¹ :        0.5169370E-01   0.3558620E-01   0.2899712E-01

 * 6 selected distances

     #   Z          #   Z                                           value/Å
     2   6          3   9                                         1.3454029
     2   6          4  17                                         1.7896270
     2   6          5  17                                         1.7810947
     1   6          6   9                                         1.3425379
     1   6          7   9                                         1.3383975 (min)
     1   6          8  17                                         1.7901425 (max)

 * 2 distinct bonds (by element types)

   Z      Z             #   av. dist./Å        max./Å        min./Å
   6 C    9 F           3     1.3421128     1.3454029     1.3383975
   6 C   17 Cl          3     1.7869547     1.7901425     1.7810947


optimized geometry written to: xtbopt.coord


           -------------------------------------------------
          | TOTAL ENERGY            -1756.247472822908 Eh   |
          | GRADIENT NORM               0.000615387057 Eh/α |
           -------------------------------------------------

------------------------------------------------------------------------
 * finished run on 2025/04/09 at 01:37:14.723     
------------------------------------------------------------------------
 total:
 * wall-time:     0 d,  0 h,  0 min, 50.358 sec
 *  cpu-time:     0 d,  0 h,  0 min,  0.412 sec
 * ratio c/w:     0.008 speedup
 SCF:
 * wall-time:     0 d,  0 h,  0 min,  6.712 sec
 *  cpu-time:     0 d,  0 h,  0 min,  0.069 sec
 * ratio c/w:     0.010 speedup
 ANC optimizer:
 * wall-time:     0 d,  0 h,  0 min, 43.598 sec
 *  cpu-time:     0 d,  0 h,  0 min,  0.003 sec
 * ratio c/w:     0.000 speedup

