
                                 *****************
                                 * O   R   C   A *
                                 *****************

                                            #,                                       
                                            ###                                      
                                            ####                                     
                                            #####                                    
                                            ######                                   
                                           ########,                                 
                                     ,,################,,,,,                         
                               ,,#################################,,                 
                          ,,##########################################,,             
                       ,#########################################, ''#####,          
                    ,#############################################,,   '####,        
                  ,##################################################,,,,####,       
                ,###########''''           ''''###############################       
              ,#####''   ,,,,##########,,,,          '''####'''          '####       
            ,##' ,,,,###########################,,,                        '##       
           ' ,,###''''                  '''############,,,                           
         ,,##''                                '''############,,,,        ,,,,,,###''
      ,#''                                            '''#######################'''  
     '                                                          ''''####''''         
             ,#######,   #######,   ,#######,      ##                                
            ,#'     '#,  ##    ##  ,#'     '#,    #''#        ,####,   ,####,        
            ##       ##  ##   ,#'  ##            #'  '#       #'       #'  '#        
            ##       ##  #######   ##           ,######,      #####,   #    #        
            '#,     ,#'  ##    ##  '#,     ,#' ,#      #,     #,   #   #,  ,#        
             '#######'   ##     ##  '#######'  #'      '#     '####' # '####'        



                #########################################################
                #                        -***-                          #
                #          Department of theory and spectroscopy        #
                #                                                       #
                #                      Frank Neese                      #
                #                                                       #
                #     Directorship, Architecture, Infrastructure        #
                #                    SHARK, DRIVERS                     #
                #        Core code/Algorithms in most modules           #
                #                                                       #
                #        Max Planck Institute fuer Kohlenforschung      #
                #                Kaiser Wilhelm Platz 1                 #
                #                 D-45470 Muelheim/Ruhr                 #
                #                      Germany                          #
                #                                                       #
                #                  All rights reserved                  #
                #                        -***-                          #
                #########################################################


                         Program Version 6.0.1  -  RELEASE   -


 With contributions from (in alphabetic order):
[Max-Planck-Institut fuer Kohlenforschung]                               
  Daniel Aravena         : Magnetic Suceptibility                        
  Michael Atanasov       : Ab Initio Ligand Field Theory (pilot matlab implementation)
  Alexander A. Auer      : GIAO ZORA, VPT2 properties, NMR spectrum      
  Ute Becker             : All parallelization in ORCA, NUMFREQ, NUMCALC 
  Giovanni Bistoni       : ED, misc. LED, open-shell LED, HFLD           
  Martin Brehm           : Molecular dynamics                            
  Dmytro Bykov           : pre 5.0 version of the SCF Hessian            
  Marcos Casanova-Páez   : Triplet and SCS-CIS(D). UHF-(DLPNO)-IP/EA/STEOM-CCSD. UHF-CVS-IP/STEOM-CCSD   
  Vijay G. Chilkuri      : MRCI spin determinant printing, contributions to CSF-ICE 
  Pauline Colinet        : FMM embedding                                 
  Dipayan Datta          : RHF DLPNO-CCSD density                        
  Achintya Kumar Dutta   : EOM-CC, STEOM-CC                              
  Nicolas Foglia         : Exact transition moments, OPA infrastructure, MCD improvements    
  Dmitry Ganyushin       : Spin-Orbit,Spin-Spin,Magnetic field MRCI      
  Miquel Garcia-Rates    : C-PCM and meta-GGA Hessian, CCSD/C-PCM, Gaussian charge scheme 
  Tiago L. C. Gouveia    : GS-ROHF, GS-ROCIS                             
  Yang Guo               : DLPNO-NEVPT2, F12-NEVPT2, CIM, IAO-localization        
  Andreas Hansen         : Spin unrestricted coupled pair/coupled cluster methods 
  Ingolf Harden          : AUTO-CI MPn and infrastructure                
  Benjamin Helmich-Paris : MC-RPA, TRAH-(SCF,CASSCF), AVAS, COSX integrals, SCF dyn. polar. 
  Lee Huntington         : MR-EOM, pCC                                   
  Robert Izsak           : Overlap fitted RIJCOSX, COSX-SCS-MP3, EOM     
  Riya Kayal             : Wick's Theorem for AUTO-CI, AUTO-CI UHF-CCSDT 
  Emily Kempfer          : AUTO-CI, RHF CISDT and CCSDT                  
  Christian Kollmar      : KDIIS, OOCD, Brueckner-CCSD(T), CCSD density, CASPT2, CASPT2-K, improved NEVPT2 
  Axel Koslowski         : Symmetry handling                             
  Simone Kossmann        : meta-GGA functionals, TD-DFT gradient, OOMP2, (MP2 Hessian; deprecated post 5.0) 
  Lucas Lang             : DCDCAS                                        
  Marvin Lechner         : AUTO-CI (C++ implementation), FIC-MRCC        
  Spencer Leger          : CASSCF response                               
  Dagmar Lenk            : GEPOL surface, SMD, ORCA-2-JSON               
  Dimitrios Liakos       : Extrapolation schemes; Compound Job, initial MDCI parallelization 
  Dimitrios Manganas     : Further ROCIS development; embedding schemes. LFT, Crystal Embedding 
  Dimitrios Pantazis     : SARC Basis sets                               
  Anastasios Papadopoulos: AUTO-CI, single reference methods and gradients 
  Taras Petrenko         : pre 6.0 DFT Hessian and TD-DFT gradient, (ASA, deprecated), ECA, 1-Electron XAS/XES, NRVS 
  Peter Pinski           : DLPNO-MP2, DLPNO-MP2 Gradient                 
  Christoph Reimann      : Effective Core Potentials                     
  Marius Retegan         : Local ZFS, SOC                                
  Christoph Riplinger    : Optimizer, TS searches, QM/MM, DLPNO-CCSD(T), (RO)-DLPNO pert. Triples 
  Michael Roemelt        : Original ROCIS implementation                 
  Masaaki Saitow         : Open-shell DLPNO-CCSD energy and density      
  Barbara Sandhoefer     : DKH picture change effects                    
  Kantharuban Sivalingam : CASSCF convergence/infrastructure, NEVPT2 and variants, FIC-MRCI 
  Bernardo de Souza      : ESD, SOC TD-DFT                               
  Georgi L. Stoychev     : AutoAux, RI-MP2 NMR, DLPNO-MP2 response, X2C  
  Van Anh Tran           : RI-MP2 g-tensors                              
  Willem Van den Heuvel  : Paramagnetic NMR                              
  Zikuan Wang            : NOTCH, Electric field optimization            
  Frank Wennmohs         : Technical directorship and infrastructure     
  Hang Xu                : AUTO-CI-Response properties                   
                                                                         
[FACCTs GmbH]                                                            
  Markus Bursch, Miquel Garcia-Rates, Christoph Riplinger, Bernardo de Souza, Georgi L. Stoychev 
                                                                 
  APM, Basis sets (HGBS, AHGBS, def-TZVP (Ac-Lr), def2-XVPD (La-Lu)), CI-OPT, improved COSX, DLPNO-Multilevel,           
  DOCKER, DRACO, updates on ESD, GOAT, IRC, LR-CPCM, MBIS, meta-GGA TD-DFT gradient, ML-optimized integration grids, 
  MM, NACMEs, nearIR, NEB, NEB-TS, NL-DFT gradient (VV10), 2- and 3-layer-ONIOM, interface openCOSMO-RS, QMMM,   
  Crystal-QMMM, SF, symmetry and pop. for TD-DFT, r2SCAN hybrids, SOLVATOR                                   
                                                                         
[Other institutions]                                                     
  V. Asgeirsson          : NEB                                           
  Christoph Bannwarth    : sTDA-DFT, sTD-DFT, PBEh-3c, B97-3c, D3        
  Sebastian Ehlert       : rSCAN, r2SCAN, r2SCAN-3c, D4, dhf basis sets  
  Marvin Friede          : D4 for Fr, Ra, Ac-Lr                          
  Lars Goerigk           : TD-DFT with DH, B97 family of functionals     
  Stefan Grimme          : VdW corrections, initial TS optimization, DFT functionals, gCP, sTDA/sTD-DF 
  Waldemar Hujo          : DFT-NL                                        
  H. Jonsson             : NEB                                           
  Holger Kruse           : gCP                                           
  Marcel Mueller         : wB97X-3c, vDZP basis set                      
  Hagen Neugebauer       : wr2SCAN                                       
  Tobias Risthaus        : range-separated hybrid DFT                    
  Lukas Wittmann         : regularized MP2, r2SCAN double-hybrids, wr2SCAN        
                                                                         
We gratefully acknowledge several colleagues who have allowed us to      
interface, adapt or use parts of their codes:                            
  Ed Valeev, F. Pavosevic, A. Kumar             : LibInt (2-el integral package), F12 methods 
  Garnet Chan, S. Sharma, J. Yang, R. Olivares  : DMRG                   
  Ulf Ekstrom                                   : XCFun DFT Library      
  Mihaly Kallay                                 : mrcc  (arbitrary order and MRCC methods)
  Frank Weinhold                                : gennbo (NPA and NBO analysis)           
  Simon Mueller                                 : openCOSMO-RS                            
  Christopher J. Cramer and Donald G. Truhlar   : smd solvation model                     
  S Lehtola, MJT Oliveira, MAL Marques          : LibXC Library                           
  Liviu Ungur et al                             : ANISO software                          


 Your calculation uses the libint2 library for the computation of 2-el integrals
 For citations please refer to: http://libint.valeyev.net

 Your ORCA version has been built with support for libXC version: 6.2.2
 For citations please refer to: https://libxc.gitlab.io

 This ORCA versions uses:
   CBLAS   interface :  Fast vector & matrix operations
   LAPACKE interface :  Fast linear algebra routines
   SCALAPACK package :  Parallel linear algebra routines
   Shared memory     :  Shared parallel matrices
   BLAS/LAPACK       :  OpenBLAS 0.3.27  USE64BITINT DYNAMIC_ARCH NO_AFFINITY Zen SINGLE_THREADED
        Core in use  :  Zen
   Copyright (c) 2011-2014, The OpenBLAS Project


Your calculation utilizes the geometrical counterpoise correction gCP
Please cite in your paper:
H.Kruse, S. Grimme J.Chem.Phys., 136, (2012), 154101 
   

Your calculation utilizes the DFT-NL dispersion correction.
Cite in your paper:
Vydrov, O. A.; Van Voorhis, T. J. Chem. Phys. 2010, 133, 244103
Hujo, W.; Grimme, S. J. Chem. Theory Comput. 2011, 7, 3866 
   

================================================================================

----- Orbital basis set information -----
Your calculation utilizes the basis: def2-TZVP
   F. Weigend and R. Ahlrichs, Phys. Chem. Chem. Phys. 7, 3297 (2005).

----- AuxJ basis set information -----
Your calculation utilizes the auxiliary basis: def2/J
   F. Weigend, Phys. Chem. Chem. Phys. 8, 1057 (2006).

================================================================================
                                        WARNINGS
                       Please study these warnings very carefully!
================================================================================

WARNING: Old DensityContainer found on disk!
         Will remove this file - 
         If you want to keep old densities, please start your calculation with a different basename. 


================================================================================
                                       INPUT FILE
================================================================================
NAME = sp.inp
|  1> ! wb97x-v def2-tzvp def2/J RIJCOSX DEFGRID2 scfconv7 GCP(DFT/TZ) printgap
|  2> %output
|  3>     printlevel normal
|  4> end
|  5> * xyz 0 1
|  6> C -2.513408211196742 0.08077288655627805 0.006424789049581749
|  7> C -1.1044685269362633 -0.5127997873709005 0.03797302370894876
|  8> C -0.04016389746081953 0.5726781032528361 -0.06102487787191972
|  9> S 1.6905371992102742 -0.06110521169824771 0.0446583820128772
| 10> H -3.2716831203459344 -0.7052045347348614 0.06471522789202142
| 11> H -2.6724097796395685 0.7621911846208971 0.8487911210577562
| 12> H -2.6857602964187537 0.644463754308205 -0.9164753629078667
| 13> H -0.97937994733737 -1.2192815060706685 -0.7915726169355709
| 14> H -0.9507387739464813 -1.0838962542224004 0.9598322953752315
| 15> H -0.15207884045396472 1.1538982606329597 -0.9820209279761972
| 16> H -0.12746589451778498 1.2730241956758488 0.7770056318203914
| 17> H 1.6428876421714704 -0.8080145163400058 -1.0731422338834233
| 18> *
| 19> 
| 20>                          ****END OF INPUT****
================================================================================

                       ****************************
                       * Single Point Calculation *
                       ****************************

---------------------------------
CARTESIAN COORDINATES (ANGSTROEM)
---------------------------------
  C     -2.513408    0.080773    0.006425
  C     -1.104469   -0.512800    0.037973
  C     -0.040164    0.572678   -0.061025
  S      1.690537   -0.061105    0.044658
  H     -3.271683   -0.705205    0.064715
  H     -2.672410    0.762191    0.848791
  H     -2.685760    0.644464   -0.916475
  H     -0.979380   -1.219282   -0.791573
  H     -0.950739   -1.083896    0.959832
  H     -0.152079    1.153898   -0.982021
  H     -0.127466    1.273024    0.777006
  H      1.642888   -0.808015   -1.073142

----------------------------
CARTESIAN COORDINATES (A.U.)
----------------------------
  NO LB      ZA    FRAG     MASS         X           Y           Z
   0 C     6.0000    0    12.011   -4.749653    0.152639    0.012141
   1 C     6.0000    0    12.011   -2.087143   -0.969051    0.071759
   2 C     6.0000    0    12.011   -0.075899    1.082205   -0.115320
   3 S    16.0000    0    32.060    3.194652   -0.115472    0.084392
   4 H     1.0000    0     1.008   -6.182585   -1.332643    0.122294
   5 H     1.0000    0     1.008   -5.050123    1.440333    1.603983
   6 H     1.0000    0     1.008   -5.075351    1.217860   -1.731887
   7 H     1.0000    0     1.008   -1.850760   -2.304108   -1.495855
   8 H     1.0000    0     1.008   -1.796636   -2.048267    1.813820
   9 H     1.0000    0     1.008   -0.287387    2.180552   -1.855751
  10 H     1.0000    0     1.008   -0.240876    2.405667    1.468328
  11 H     1.0000    0     1.008    3.104608   -1.526926   -2.027945

--------------------------------
INTERNAL COORDINATES (ANGSTROEM)
--------------------------------
 C      0   0   0     0.000000000000     0.00000000     0.00000000
 C      1   0   0     1.529194181334     0.00000000     0.00000000
 C      2   1   0     1.523419567904   111.45520018     0.00000000
 S      3   2   1     1.846124732446   113.99236657   177.47438238
 H      1   2   3     1.093681452657   111.02337649   179.25864395
 H      1   2   3     1.095076907347   111.06605831   299.17856397
 H      1   2   3     1.095078684913   111.23556180    59.21025113
 H      2   1   3     1.096772328934   109.84706520   238.73623993
 H      2   1   3     1.095266418805   110.43108560   121.51148514
 H      3   2   1     1.094794752507   111.19402262   301.22557736
 H      3   2   1     1.095628323401   110.49264517    60.15887025
 H      4   3   2     1.345221991548    96.30601850    63.08693206

---------------------------
INTERNAL COORDINATES (A.U.)
---------------------------
 C      0   0   0     0.000000000000     0.00000000     0.00000000
 C      1   0   0     2.889758208308     0.00000000     0.00000000
 C      2   1   0     2.878845770395   111.45520018     0.00000000
 S      3   2   1     3.488670153382   113.99236657   177.47438238
 H      1   2   3     2.066758423270   111.02337649   179.25864395
 H      1   2   3     2.069395450468   111.06605831   299.17856397
 H      1   2   3     2.069398809580   111.23556180    59.21025113
 H      2   1   3     2.072599332948   109.84706520   238.73623993
 H      2   1   3     2.069753575222   110.43108560   121.51148514
 H      3   2   1     2.068862255093   111.19402262   301.22557736
 H      3   2   1     2.070437475794   110.49264517    60.15887025
 H      4   3   2     2.542101153354    96.30601850    63.08693206

---------------------
BASIS SET INFORMATION
---------------------
There are 3 groups of distinct atoms

 Group   1 Type C   : 11s6p2d1f contracted to 5s3p2d1f pattern {62111/411/11/1}
 Group   2 Type S   : 14s9p3d1f contracted to 5s5p2d1f pattern {73211/51111/21/1}
 Group   3 Type H   : 5s1p contracted to 3s1p pattern {311/1}

Atom   0C    basis set group =>   1
Atom   1C    basis set group =>   1
Atom   2C    basis set group =>   1
Atom   3S    basis set group =>   2
Atom   4H    basis set group =>   3
Atom   5H    basis set group =>   3
Atom   6H    basis set group =>   3
Atom   7H    basis set group =>   3
Atom   8H    basis set group =>   3
Atom   9H    basis set group =>   3
Atom  10H    basis set group =>   3
Atom  11H    basis set group =>   3
---------------------------------
AUXILIARY/J BASIS SET INFORMATION
---------------------------------
There are 3 groups of distinct atoms

 Group   1 Type C   : 12s5p4d2f1g contracted to 6s4p3d1f1g pattern {711111/2111/211/2/1}
 Group   2 Type S   : 14s5p5d2f1g contracted to 8s4p3d1f1g pattern {71111111/2111/311/2/1}
 Group   3 Type H   : 5s2p1d contracted to 3s1p1d pattern {311/2/1}

Atom   0C    basis set group =>   1
Atom   1C    basis set group =>   1
Atom   2C    basis set group =>   1
Atom   3S    basis set group =>   2
Atom   4H    basis set group =>   3
Atom   5H    basis set group =>   3
Atom   6H    basis set group =>   3
Atom   7H    basis set group =>   3
Atom   8H    basis set group =>   3
Atom   9H    basis set group =>   3
Atom  10H    basis set group =>   3
Atom  11H    basis set group =>   3

Checking for AutoStart:
The File: sp.gbw exists
Trying to determine its content:
     ... Fine, the file contains calculation information
     ... Fine, the calculation information was read
     ... Fine, the file contains a basis set
     ... Fine, the basis set was read
     ... Fine, the file contains a geometry
     ... Fine, the geometry was read
     ... Fine, the file contains a set of orbitals
     ... Fine, the orbitals can be read
     => possible old guess file was deleted
     => GBW file was renamed to GES file
     => GES file is set as startup file
     => Guess is set to MORead
     ... now leaving AutoStart

------------------------------------------------------------------------------
                             ORCA STARTUP CALCULATIONS
                           -- RI-GTO INTEGRALS CHOSEN --
------------------------------------------------------------------------------
------------------------------------------------------------------------------
                   ___                                                        
                  /   \      - P O W E R E D   B Y -                         
                 /     \                                                     
                 |  |  |   _    _      __       _____    __    __             
                 |  |  |  | |  | |    /  \     |  _  \  |  |  /  |          
                  \  \/   | |  | |   /    \    | | | |  |  | /  /          
                 / \  \   | |__| |  /  /\  \   | |_| |  |  |/  /          
                |  |  |   |  __  | /  /__\  \  |    /   |      \           
                |  |  |   | |  | | |   __   |  |    \   |  |\   \          
                \     /   | |  | | |  |  |  |  | |\  \  |  | \   \       
                 \___/    |_|  |_| |__|  |__|  |_| \__\ |__|  \__/        
                                                                              
                      - O R C A' S   B I G   F R I E N D -                    
                                      &                                       
                       - I N T E G R A L  F E E D E R -                       
                                                                              
 v1 FN, 2020, v2 2021, v3 2022-2024                                           
------------------------------------------------------------------------------


----------------------
SHARK INTEGRAL PACKAGE
----------------------

Number of atoms                             ...     12
Number of basis functions                   ...    178
Number of shells                            ...     78
Maximum angular momentum                    ...      3
Integral batch strategy                     ... SHARK/LIBINT Hybrid
RI-J (if used) integral strategy            ... SPLIT-RIJ (Revised 2003 algorithm where possible)
Printlevel                                  ...      1
Contraction scheme used                     ... SEGMENTED contraction
Prescreening option                         ... SCHWARTZ
   Thresh                                   ... 3.000e-11
   Tcut                                     ... 1.000e-12
   Tpresel                                  ... 1.000e-12 
Coulomb Range Separation                    ... NOT USED
Exchange Range Separation                   ... Long Range
   Mu parameter                             ... 3.000e-01
   Scaling (regular/separated)              ... 1.670e-01 8.330e-01
Multipole approximations                    ... NOT USED
Finite Nucleus Model                        ... NOT USED
CABS basis                                  ... NOT available
Auxiliary Coulomb fitting basis             ... AVAILABLE
   # of basis functions in Aux-J            ...    286
   # of shells in Aux-J                     ...    102
   Maximum angular momentum in Aux-J        ...      4
Auxiliary J/K fitting basis                 ... NOT available
Auxiliary Correlation fitting basis         ... NOT available
Auxiliary 'external' fitting basis          ... NOT available

Checking pre-screening integrals            ... done (  0.0 sec) Dimension = 78
Check shell pair data                       ... done (  0.0 sec)
Shell pair information
Shell pair cut-off parameter TPreSel        ...   1.0e-12
Total number of shell pairs                 ...      3081
Shell pairs after pre-screening             ...      2951
Total number of primitive shell pairs       ...      9306
Primitive shell pairs kept                  ...      7161
          la=0 lb=0:    937 shell pairs
          la=1 lb=0:    921 shell pairs
          la=1 lb=1:    242 shell pairs
          la=2 lb=0:    343 shell pairs
          la=2 lb=1:    173 shell pairs
          la=2 lb=2:     36 shell pairs
          la=3 lb=0:    171 shell pairs
          la=3 lb=1:     86 shell pairs
          la=3 lb=2:     32 shell pairs
          la=3 lb=3:     10 shell pairs

Calculating one electron integrals          ... done (  0.0 sec)
Calculating RI/J V-Matrix + Cholesky decomp.... done (  0.0 sec)
Calculating Nuclear repulsion               ... done (  0.0 sec) ENN=    162.062443589664 Eh

Diagonalization of the overlap matrix:
Smallest eigenvalue                        ... 3.354e-04
Time for diagonalization                   ...    0.002 sec
Threshold for overlap eigenvalues          ... 1.000e-07
Number of eigenvalues below threshold      ... 0
Time for construction of square roots      ...    0.001 sec
Total time needed                          ...    0.004 sec

-------------------
DFT GRID GENERATION
-------------------

General Integration Accuracy     IntAcc      ... 4.388
Radial Grid Type                 RadialGrid  ... OptM3 with GC (2021)
Angular Grid (max. ang.)         AngularGrid ... 4 (Lebedev-302)
Angular grid pruning method      GridPruning ... 4 (adaptive)
Weight generation scheme         WeightScheme... mBecke (2022)
Basis function cutoff            BFCut       ... 1.0000e-11
Integration weight cutoff        WCut        ... 1.0000e-14
Partially contracted basis set               ... off
Rotationally invariant grid construction     ... off
Angular grids for H and He will be reduced by one unit

Total number of grid points                  ...    51317
Total number of batches                      ...      809
Average number of points per batch           ...       63
Average number of grid points per atom       ...     4276

--------------------
COSX GRID GENERATION
--------------------

GRIDX 1
-------
General Integration Accuracy     IntAcc      ... 3.816
Radial Grid Type                 RadialGrid  ... OptM3 with GC (2021)
Angular Grid (max. ang.)         AngularGrid ... 1 (Lebedev-50)
Angular grid pruning method      GridPruning ... 4 (adaptive)
Weight generation scheme         WeightScheme... mBecke (2022)
Basis function cutoff            BFCut       ... 1.0000e-11
Integration weight cutoff        WCut        ... 1.0000e-14
Partially contracted basis set               ... on
Rotationally invariant grid construction     ... off
Angular grids for H and He will be reduced by one unit

Total number of grid points                  ...     7646
Total number of batches                      ...       66
Average number of points per batch           ...      115
Average number of grid points per atom       ...      637
UseSFitting                                  ... on

GRIDX 2
-------
General Integration Accuracy     IntAcc      ... 4.020
Radial Grid Type                 RadialGrid  ... OptM3 with GC (2021)
Angular Grid (max. ang.)         AngularGrid ... 2 (Lebedev-110)
Angular grid pruning method      GridPruning ... 4 (adaptive)
Weight generation scheme         WeightScheme... mBecke (2022)
Basis function cutoff            BFCut       ... 1.0000e-11
Integration weight cutoff        WCut        ... 1.0000e-14
Partially contracted basis set               ... on
Rotationally invariant grid construction     ... off
Angular grids for H and He will be reduced by one unit

Total number of grid points                  ...    13613
Total number of batches                      ...      112
Average number of points per batch           ...      121
Average number of grid points per atom       ...     1134
UseSFitting                                  ... on

GRIDX 3
-------
General Integration Accuracy     IntAcc      ... 4.338
Radial Grid Type                 RadialGrid  ... OptM3 with GC (2021)
Angular Grid (max. ang.)         AngularGrid ... 3 (Lebedev-194)
Angular grid pruning method      GridPruning ... 4 (adaptive)
Weight generation scheme         WeightScheme... mBecke (2022)
Basis function cutoff            BFCut       ... 1.0000e-11
Integration weight cutoff        WCut        ... 1.0000e-14
Partially contracted basis set               ... on
Rotationally invariant grid construction     ... off
Angular grids for H and He will be reduced by one unit

Total number of grid points                  ...    30360
Total number of batches                      ...      242
Average number of points per batch           ...      125
Average number of grid points per atom       ...     2530
UseSFitting                                  ... on
Initializing property integral containers    ... done (  0.0 sec)

SHARK setup successfully completed in   0.6 seconds

Maximum memory used throughout the entire STARTUP-calculation: 26.5 MB
-------------------------------------------------------------------------------
                                 ORCA GUESS
                   Start orbitals & Density for SCF / CASSCF
-------------------------------------------------------------------------------

------------
SCF SETTINGS
------------
Hamiltonian:
 Density Functional     Method          .... DFT(GTOs)
 Exchange Functional    Exchange        .... WB97X-V
 Correlation Functional Correlation     .... WB97X-V
 Gradients option       PostSCFGGA      .... off
 Hybrid DFT is turned on
   Fraction HF Exchange ScalHFX         ....  0.167000
   Scaling of DF-GGA-X  ScalDFX         ....  0.000000
   Scaling of DF-GGA-C  ScalDFC         ....  1.000000
   Scaling of DF-LDA-C  ScalLDAC        ....  1.000000
   Perturbative correction              ....  0.000000
 Long-range corrected/Screened/Range-Separated Hybrid DFT is turned on
   Amount of maximum screened exact exchange              ....  0.833000
   Range separation parameter mu (erf(mu*r12)/r12)        ....  0.300000
   NL short-range parameter             ....  6.000000
   NL long-range parameter              ....  0.010000
 RI-approximation to the Coulomb term is turned on
   Number of AuxJ basis functions       .... 286
   RIJ-COSX (HFX calculated with COS-X)).... on


General Settings:
 Integral files         IntName         .... sp
 Hartree-Fock type      HFTyp           .... RHF
 Total Charge           Charge          ....    0
 Multiplicity           Mult            ....    1
 Number of Electrons    NEL             ....   42
 Basis Dimension        Dim             ....  178
 Nuclear Repulsion      ENuc            ....    162.0624435897 Eh

Convergence Acceleration:
 AO-DIIS                CNVDIIS         .... on
   Start iteration      DIISMaxIt       ....    12
   Startup error        DIISStart       ....  0.200000
   # of expansion vecs  DIISMaxEq       ....     5
   Bias factor          DIISBfac        ....   1.050
   Max. coefficient     DIISMaxC        ....  10.000
 MO-DIIS                CNVKDIIS        .... off
 Trust-Rad. Augm. Hess. CNVTRAH         .... auto
   Auto Start mean grad. ratio tolernc. ....  1.125000
   Auto Start start iteration           ....     1
   Auto Start num. interpolation iter.  ....    10
   Max. Number of Micro iterations      ....    24
   Max. Number of Macro iterations      .... Maxiter - #DIIS iter
   Number of Davidson start vectors     ....     2
   Converg. threshold    (grad. norm)   ....   1.000e-04
   Grad. Scal. Fac. for Micro threshold ....   0.100
   Minimum threshold for Micro iter.    ....   1.000e-02
   NR start threshold (gradient norm)   ....   1.000e-04
   Initial trust radius                 ....   0.400
   Minimum AH scaling param. (alpha)    ....   1.000
   Maximum AH scaling param. (alpha)    .... 1000.000
   Quad. conv. algorithm                .... NR
   White noise on init. David. guess    .... on
   Maximum white noise                  ....   0.010
   Pseudo random numbers                .... off
   Inactive MOs                         .... canonical
   Orbital update algorithm             .... Taylor
   Preconditioner                       .... Diag
   Full preconditioner red. dimension   ....   250
 SOSCF                  CNVSOSCF        .... on
   Start iteration      SOSCFMaxIt      ....   150
   Startup grad/error   SOSCFStart      ....  0.003300
   Hessian update       SOSCFHessUp     .... L-BFGS
 Level Shifting         CNVShift        .... on
   Level shift para.    LevelShift      ....    0.2500
   Turn off err/grad.   ShiftErr        ....    0.0010
 Zerner damping         CNVZerner       .... off
 Static damping         CNVDamp         .... on
   Fraction old density DampFac         ....    0.7000
   Max. Damping (<1)    DampMax         ....    0.9800
   Min. Damping (>=0)   DampMin         ....    0.0000
   Turn off err/grad.   DampErr         ....    0.1000

SCF Procedure:
 Maximum # iterations   MaxIter         ....   125
 SCF integral mode      SCFMode         .... Direct
   Integral package                     .... SHARK and LIBINT hybrid scheme
 Reset frequency        DirectResetFreq ....    20
 Integral Threshold     Thresh          ....  3.000e-11 Eh
 Primitive CutOff       TCut            ....  1.000e-12 Eh

Convergence Tolerance:
 Convergence Check Mode ConvCheckMode   .... Total+1el-Energy
 Convergence forced     ConvForced      .... 0
 Energy Change          TolE            ....  1.000e-07 Eh
 1-El. energy change                    ....  1.000e-04 Eh
 Orbital Gradient       TolG            ....  1.000e-04
 Orbital Rotation angle TolX            ....  1.000e-04
 DIIS Error             TolErr          ....  1.000e-07

---------------------
INITIAL GUESS: MOREAD
---------------------
Guess MOs are being read from file: sp.ges
Input Geometry matches current geometry (good)
Atom 0: N(Shells)= 11 and 9 - projection required
Input basis set needs projection
NBasis(read)= 124
NBasis(calc)= 178
Basis set overlap was calculated
Using GuessMode=FMatrix for the initial guess
C*T matrix was formed
Effective Fockian was calculated
Effective Fockian was diagonalized
Initial density was built
                      ------------------
                      INITIAL GUESS DONE (   0.0 sec)
                      ------------------
             **** ENERGY FILE WAS UPDATED (sp.en.tmp) ****
Finished Guess after   0.0 sec
Maximum memory used throughout the entire GUESS-calculation: 14.5 MB

-------------------------------------------------------------------------------------------
                                      ORCA LEAN-SCF
                              memory conserving SCF solver
-------------------------------------------------------------------------------------------

----------------------------------------D-I-I-S--------------------------------------------
Iteration    Energy (Eh)           Delta-E    RMSDP     MaxDP     DIISErr   Damp  Time(sec)
-------------------------------------------------------------------------------------------
               ***  Starting incremental Fock matrix formation  ***
    1    -517.4439391371156489     0.00e+00  8.57e-04  1.54e-02  3.60e-02  0.700   3.3
    2    -517.4469524184100919    -3.01e-03  7.51e-04  1.34e-02  2.66e-02  0.700   1.9
                               ***Turning on AO-DIIS***
    3    -517.4492451995720330    -2.29e-03  6.39e-04  1.12e-02  1.91e-02  0.700   1.9
    4    -517.4509428646265405    -1.70e-03  1.63e-03  2.87e-02  1.35e-02  0.000   1.8
                              *** Initializing SOSCF ***
---------------------------------------S-O-S-C-F--------------------------------------
Iteration    Energy (Eh)           Delta-E    RMSDP     MaxDP     MaxGrad    Time(sec)
--------------------------------------------------------------------------------------
    5    -517.4553178205358108    -4.37e-03  9.24e-05  2.15e-03  9.48e-04     1.9
               *** Restarting incremental Fock matrix formation ***
    6    -517.4553205896422696    -2.77e-06  4.62e-05  1.07e-03  2.66e-04     3.2
    7    -517.4553234239888297    -2.83e-06  2.62e-05  6.06e-04  8.39e-05     2.6
    8    -517.4553237703453306    -3.46e-07  4.20e-06  1.03e-04  3.78e-05     2.5
    9    -517.4553238309711105    -6.06e-08  1.44e-06  2.94e-05  1.03e-05     2.3
                 **** Energy Check signals convergence ****

               *****************************************************
               *                     SUCCESS                       *
               *           SCF CONVERGED AFTER   9 CYCLES          *
               *****************************************************


------------------
NL GRID GENERATION
------------------

General Integration Accuracy     IntAcc      ... 4.004
Radial Grid Type                 RadialGrid  ... OptM3 with GC (2021)
Angular Grid (max. ang.)         AngularGrid ... 2 (Lebedev-110)
Angular grid pruning method      GridPruning ... 4 (adaptive)
Weight generation scheme         WeightScheme... mBecke (2022)
Basis function cutoff            BFCut       ... 1.0000e-10
Integration weight cutoff        WCut        ... 1.0000e-14
Partially contracted basis set               ... off
Rotationally invariant grid construction     ... off
Angular grids for H and He will be reduced by one unit

Total number of grid points                  ...    15013
Total number of batches                      ...      240
Average number of points per batch           ...       62
Average number of grid points per atom       ...     1251
Final grid set up in    0.1 sec

-------------------------------------------------------------------------------
                    post-SCF DFT-NL dispersion correction                      
-------------------------------------------------------------------------------

SCF Energy:     -517.455323831 
NL    Energy:      0.165999281 
SC+NL Energy:   -517.289324550 
NL done in  :              0.7 sec
-------------------------------------------------------------------------------
Recomputing exchange energy using gridx3       ... done (    6.108 sec)
Old exchange energy                            :    -12.739907329 Eh
New exchange energy                            :    -12.739926009 Eh
Exchange energy change after final integration :     -0.000018679 Eh
Total energy after final integration           :   -517.289343229 Eh
             **** ENERGY FILE WAS UPDATED (sp.en.tmp) ****

----------------
TOTAL SCF ENERGY
----------------

Total Energy       :       -517.28934322932867 Eh          -14076.15865 eV

Components:
Nuclear Repulsion  :        162.06244358966381 Eh            4409.94329 eV
Electronic Energy  :       -679.51776742063498 Eh          -18490.61850 eV
One Electron Energy:      -1030.51695717057282 Eh          -28041.79202 eV
Two Electron Energy:        350.99918974993778 Eh            9551.17353 eV

Virial components:
Potential Energy   :      -1033.28103046435081 Eh          -28117.00628 eV
Kinetic Energy     :        515.99168723502225 Eh           14040.84763 eV
Virial Ratio       :          2.00251487771297

DFT components:
N(Alpha)           :       20.999997051332 electrons
N(Beta)            :       20.999997051332 electrons
N(Total)           :       41.999994102664 electrons
E(X)               :      -30.469904756642 Eh       
E(C)               :       -1.843186374405 Eh       
NL Energy, E(C,NL) :        0.165999280927 Eh       
E(XC)              :      -32.147091850120 Eh       

---------------
SCF CONVERGENCE
---------------

  Last Energy change         ...    6.0626e-08  Tolerance :   1.0000e-07
  Last MAX-Density change    ...    2.9370e-05  Tolerance :   1.0000e-05
  Last RMS-Density change    ...    1.4360e-06  Tolerance :   1.0000e-06
  Last DIIS Error            ...    9.4819e-04  Tolerance :   1.0000e-07
  Last Orbital Gradient      ...    1.0257e-05  Tolerance :   1.0000e-04
  Last Orbital Rotation      ...    1.5684e-05  Tolerance :   1.0000e-04


----------------
ORBITAL ENERGIES
----------------

  NO   OCC          E(Eh)            E(eV) 
   0   2.0000     -88.853192     -2417.8183 
   1   2.0000     -10.305438      -280.4252 
   2   2.0000     -10.276685      -279.6428 
   3   2.0000     -10.267036      -279.3803 
   4   2.0000      -8.031781      -218.5559 
   5   2.0000      -5.987828      -162.9371 
   6   2.0000      -5.984017      -162.8334 
   7   2.0000      -5.978803      -162.6915 
   8   2.0000      -0.946788       -25.7634 
   9   2.0000      -0.872398       -23.7392 
  10   2.0000      -0.778025       -21.1712 
  11   2.0000      -0.718611       -19.5544 
  12   2.0000      -0.597767       -16.2661 
  13   2.0000      -0.552142       -15.0245 
  14   2.0000      -0.524233       -14.2651 
  15   2.0000      -0.515340       -14.0231 
  16   2.0000      -0.479287       -13.0421 
  17   2.0000      -0.458520       -12.4770 
  18   2.0000      -0.446114       -12.1394 
  19   2.0000      -0.419180       -11.4065 
  20   2.0000      -0.338855        -9.2207 
  21   0.0000       0.089817         2.4441 
  22   0.0000       0.120210         3.2711 
  23   0.0000       0.139720         3.8020 
  24   0.0000       0.152167         4.1407 
  25   0.0000       0.158793         4.3210 
  26   0.0000       0.173777         4.7287 
  27   0.0000       0.196305         5.3417 
  28   0.0000       0.199703         5.4342 
  29   0.0000       0.216483         5.8908 
  30   0.0000       0.236260         6.4290 
  31   0.0000       0.247030         6.7220 
*Only the first 10 virtual orbitals were printed.

                    ********************************
                    * MULLIKEN POPULATION ANALYSIS *
                    ********************************

-----------------------
MULLIKEN ATOMIC CHARGES
-----------------------
   0 C :   -0.340656
   1 C :   -0.152423
   2 C :   -0.180979
   3 S :   -0.215330
   4 H :    0.118305
   5 H :    0.108137
   6 H :    0.106279
   7 H :    0.085817
   8 H :    0.104719
   9 H :    0.120990
  10 H :    0.115748
  11 H :    0.129392
Sum of atomic charges:    0.0000000

--------------------------------
MULLIKEN REDUCED ORBITAL CHARGES
--------------------------------
  0 C s       :     3.229685  s :     3.229685
      pz      :     1.047463  p :     3.049499
      px      :     0.961698
      py      :     1.040338
      dz2     :     0.006233  d :     0.058155
      dxz     :     0.010236
      dyz     :     0.016009
      dx2y2   :     0.009357
      dxy     :     0.016320
      f0      :     0.000330  f :     0.003317
      f+1     :     0.000114
      f-1     :     0.000901
      f+2     :     0.000216
      f-2     :     0.000271
      f+3     :     0.000874
      f-3     :     0.000611

  1 C s       :     3.168581  s :     3.168581
      pz      :     1.029322  p :     2.880007
      px      :     0.902261
      py      :     0.948425
      dz2     :     0.008552  d :     0.098255
      dxz     :     0.014161
      dyz     :     0.028500
      dx2y2   :     0.024096
      dxy     :     0.022947
      f0      :     0.000635  f :     0.005579
      f+1     :     0.000250
      f-1     :     0.000941
      f+2     :     0.000241
      f-2     :     0.000904
      f+3     :     0.001483
      f-3     :     0.001125

  2 C s       :     3.186500  s :     3.186500
      pz      :     1.056327  p :     2.890061
      px      :     0.863111
      py      :     0.970623
      dz2     :     0.009017  d :     0.099599
      dxz     :     0.013190
      dyz     :     0.027510
      dx2y2   :     0.029534
      dxy     :     0.020346
      f0      :     0.000480  f :     0.004818
      f+1     :     0.000259
      f-1     :     0.000901
      f+2     :     0.000074
      f-2     :     0.000742
      f+3     :     0.001222
      f-3     :     0.001141

  3 S s       :     5.804103  s :     5.804103
      pz      :     3.426854  p :    10.289992
      px      :     3.281451
      py      :     3.581687
      dz2     :     0.022935  d :     0.111035
      dxz     :     0.012921
      dyz     :     0.032030
      dx2y2   :     0.027020
      dxy     :     0.016129
      f0      :     0.000813  f :     0.010200
      f+1     :     0.000862
      f-1     :     0.002749
      f+2     :     0.001395
      f-2     :     0.000739
      f+3     :     0.001588
      f-3     :     0.002053

  4 H s       :     0.860535  s :     0.860535
      pz      :     0.004292  p :     0.021160
      px      :     0.008663
      py      :     0.008205

  5 H s       :     0.871047  s :     0.871047
      pz      :     0.008970  p :     0.020816
      px      :     0.004432
      py      :     0.007414

  6 H s       :     0.872891  s :     0.872891
      pz      :     0.009911  p :     0.020830
      px      :     0.004497
      py      :     0.006422

  7 H s       :     0.893221  s :     0.893221
      pz      :     0.008720  p :     0.020962
      px      :     0.004070
      py      :     0.008172

  8 H s       :     0.874148  s :     0.874148
      pz      :     0.010106  p :     0.021133
      px      :     0.004176
      py      :     0.006851

  9 H s       :     0.857425  s :     0.857425
      pz      :     0.010359  p :     0.021584
      px      :     0.004224
      py      :     0.007001

 10 H s       :     0.862822  s :     0.862822
      pz      :     0.009155  p :     0.021430
      px      :     0.004072
      py      :     0.008202

 11 H s       :     0.847318  s :     0.847318
      pz      :     0.010991  p :     0.023290
      px      :     0.003739
      py      :     0.008560


------------------------
MULLIKEN OVERLAP CHARGES
------------------------
B(  0-C ,  1-C ) :   0.6080 B(  0-C ,  2-C ) :  -0.0924 B(  0-C ,  4-H ) :   0.8255 
B(  0-C ,  5-H ) :   0.8280 B(  0-C ,  6-H ) :   0.8178 B(  0-C ,  7-H ) :  -0.0659 
B(  0-C ,  8-H ) :  -0.0619 B(  1-C ,  2-C ) :   0.6612 B(  1-C ,  3-S ) :  -0.1134 
B(  1-C ,  4-H ) :  -0.0738 B(  1-C ,  5-H ) :  -0.0761 B(  1-C ,  6-H ) :  -0.0679 
B(  1-C ,  7-H ) :   0.8200 B(  1-C ,  8-H ) :   0.8289 B(  1-C ,  9-H ) :  -0.0972 
B(  1-C , 10-H ) :  -0.0629 B(  2-C ,  3-S ) :   0.6406 B(  2-C ,  7-H ) :  -0.0780 
B(  2-C ,  8-H ) :  -0.0767 B(  2-C ,  9-H ) :   0.8492 B(  2-C , 10-H ) :   0.8005 
B(  2-C , 11-H ) :  -0.0718 B(  3-S ,  9-H ) :  -0.0845 B(  3-S , 11-H ) :   0.6940 
B(  5-H ,  6-H ) :  -0.0596 B(  7-H ,  8-H ) :  -0.0633 B(  9-H , 10-H ) :  -0.0664 



                     *******************************
                     * LOEWDIN POPULATION ANALYSIS *
                     *******************************

----------------------
LOEWDIN ATOMIC CHARGES
----------------------
   0 C :   -0.306643
   1 C :   -0.325741
   2 C :   -0.474511
   3 S :    0.217822
   4 H :    0.118085
   5 H :    0.116795
   6 H :    0.116156
   7 H :    0.128736
   8 H :    0.132325
   9 H :    0.120042
  10 H :    0.126314
  11 H :    0.030621

-------------------------------
LOEWDIN REDUCED ORBITAL CHARGES
-------------------------------
  0 C s       :     2.829704  s :     2.829704
      pz      :     1.071453  p :     3.187694
      px      :     1.045427
      py      :     1.070814
      dz2     :     0.036862  d :     0.264615
      dxz     :     0.041537
      dyz     :     0.062193
      dx2y2   :     0.045823
      dxy     :     0.078201
      f0      :     0.002271  f :     0.024630
      f+1     :     0.002866
      f-1     :     0.003436
      f+2     :     0.004291
      f-2     :     0.002070
      f+3     :     0.006005
      f-3     :     0.003691

  1 C s       :     2.786576  s :     2.786576
      pz      :     1.032668  p :     3.091919
      px      :     1.033294
      py      :     1.025957
      dz2     :     0.046207  d :     0.408146
      dxz     :     0.057210
      dyz     :     0.106558
      dx2y2   :     0.099210
      dxy     :     0.098960
      f0      :     0.004247  f :     0.039100
      f+1     :     0.003535
      f-1     :     0.004185
      f+2     :     0.004542
      f-2     :     0.005917
      f+3     :     0.009472
      f-3     :     0.007202

  2 C s       :     2.854349  s :     2.854349
      pz      :     1.075409  p :     3.172388
      px      :     1.032809
      py      :     1.064170
      dz2     :     0.049454  d :     0.413814
      dxz     :     0.050876
      dyz     :     0.101206
      dx2y2   :     0.119163
      dxy     :     0.093115
      f0      :     0.003236  f :     0.033961
      f+1     :     0.003177
      f-1     :     0.003939
      f+2     :     0.003723
      f-2     :     0.004946
      f+3     :     0.007850
      f-3     :     0.007089

  3 S s       :     5.384060  s :     5.384060
      pz      :     3.406838  p :    10.193411
      px      :     3.262683
      py      :     3.523890
      dz2     :     0.031899  d :     0.179391
      dxz     :     0.023788
      dyz     :     0.046573
      dx2y2   :     0.044142
      dxy     :     0.032990
      f0      :     0.002351  f :     0.025317
      f+1     :     0.002407
      f-1     :     0.005382
      f+2     :     0.003819
      f-2     :     0.001764
      f+3     :     0.004419
      f-3     :     0.005176

  4 H s       :     0.821444  s :     0.821444
      pz      :     0.013252  p :     0.060471
      px      :     0.022730
      py      :     0.024489

  5 H s       :     0.823019  s :     0.823019
      pz      :     0.025926  p :     0.060187
      px      :     0.012919
      py      :     0.021342

  6 H s       :     0.823607  s :     0.823607
      pz      :     0.028459  p :     0.060237
      px      :     0.013030
      py      :     0.018747

  7 H s       :     0.813554  s :     0.813554
      pz      :     0.024709  p :     0.057710
      px      :     0.012329
      py      :     0.020673

  8 H s       :     0.809351  s :     0.809351
      pz      :     0.027966  p :     0.058325
      px      :     0.012366
      py      :     0.017993

  9 H s       :     0.818699  s :     0.818699
      pz      :     0.029614  p :     0.061259
      px      :     0.012042
      py      :     0.019602

 10 H s       :     0.812875  s :     0.812875
      pz      :     0.026648  p :     0.060811
      px      :     0.011980
      py      :     0.022183

 11 H s       :     0.894807  s :     0.894807
      pz      :     0.037650  p :     0.074572
      px      :     0.011071
      py      :     0.025852


---------------------------------
LOEWDIN BOND ORDERS (THRESH 0.050000)
---------------------------------
B(  0-C ,  1-C ) :   1.2809 B(  0-C ,  2-C ) :   0.1547 B(  0-C ,  4-H ) :   0.9089 
B(  0-C ,  5-H ) :   0.9086 B(  0-C ,  6-H ) :   0.9087 B(  0-C ,  7-H ) :   0.0741 
B(  0-C ,  8-H ) :   0.0738 B(  1-C ,  2-C ) :   1.2722 B(  1-C ,  3-S ) :   0.1418 
B(  1-C ,  4-H ) :   0.0796 B(  1-C ,  5-H ) :   0.0763 B(  1-C ,  6-H ) :   0.0762 
B(  1-C ,  7-H ) :   0.8526 B(  1-C ,  8-H ) :   0.8521 B(  1-C ,  9-H ) :   0.0761 
B(  1-C , 10-H ) :   0.0758 B(  2-C ,  3-S ) :   1.4548 B(  2-C ,  7-H ) :   0.0770 
B(  2-C ,  8-H ) :   0.0768 B(  2-C ,  9-H ) :   0.8844 B(  2-C , 10-H ) :   0.8775 
B(  2-C , 11-H ) :   0.0656 B(  3-S ,  9-H ) :   0.0548 B(  3-S , 10-H ) :   0.0582 
B(  3-S , 11-H ) :   1.0367 

------------------------------------------
LOEWDIN REDUCED ORBITAL POPULATIONS PER MO
-------------------------------------------
THRESHOLD FOR PRINTING IS 0.1%%
                      0         1         2         3         4         5   
                 -88.85319 -10.30544 -10.27668 -10.26704  -8.03178  -5.98783
                   2.00000   2.00000   2.00000   2.00000   2.00000   2.00000
                  --------  --------  --------  --------  --------  --------
 0 C  s               0.0       0.0       0.0      99.4       0.0       0.0
 1 C  s               0.0       0.0      99.2       0.0       0.0       0.0
 1 C  dxy             0.0       0.1       0.0       0.1       0.0       0.0
 2 C  s               0.0      99.4       0.0       0.0       0.0       0.0
 2 C  px              0.0       0.0       0.0       0.0       0.1       0.0
 2 C  dxy             0.0       0.0       0.1       0.0       0.0       0.0
 3 S  s             100.0       0.0       0.0       0.0      99.6       0.0
 3 S  pz              0.0       0.0       0.0       0.0       0.0      20.6
 3 S  px              0.0       0.0       0.0       0.0       0.0      43.6
 3 S  py              0.0       0.0       0.0       0.0       0.0      35.7

                      6         7         8         9        10        11   
                  -5.98402  -5.97880  -0.94679  -0.87240  -0.77803  -0.71861
                   2.00000   2.00000   2.00000   2.00000   2.00000   2.00000
                  --------  --------  --------  --------  --------  --------
 0 C  s               0.0       0.0       8.6      16.6      12.8       3.3
 0 C  px              0.0       0.0       2.9       0.3       3.4       3.4
 0 C  py              0.0       0.0       0.2       0.2       0.1       3.5
 0 C  dz2             0.0       0.0       0.1       0.0       0.1       0.2
 0 C  dx2y2           0.0       0.0       0.3       0.0       0.3       0.1
 0 C  dxy             0.0       0.0       0.1       0.1       0.0       0.7
 1 C  s               0.0       0.0      20.0       5.9       2.7      10.3
 1 C  px              0.0       0.0       0.4       7.8       7.0       0.3
 1 C  py              0.0       0.0       2.0       0.0       0.2      10.3
 1 C  dz2             0.0       0.0       0.4       0.0       0.0       0.6
 1 C  dx2y2           0.0       0.0       0.1       0.1       0.8       0.0
 1 C  dxy             0.0       0.0       0.2       0.8       1.1       0.1
 2 C  s               0.0       0.0      22.8       4.3       7.1       7.4
 2 C  px              0.0       0.0       0.0      11.3       5.7       0.1
 2 C  py              0.0       0.0       1.8       0.0       0.2      12.2
 2 C  dz2             0.0       0.0       0.4       0.0       0.2       0.6
 2 C  dx2y2           0.0       0.0       0.2       0.2       0.9       0.0
 2 C  dxy             0.0       0.0       0.1       1.1       0.8       0.3
 3 S  s               0.0       0.0       9.8      24.7      20.0       2.5
 3 S  pz             51.3      28.0       0.1       0.2       0.4       0.2
 3 S  px             44.8      11.5       2.0       0.4       2.2       1.2
 3 S  py              3.8      60.4       0.1       0.0       0.8       2.2
 3 S  dz2             0.0       0.0       0.1       0.0       0.3       0.2
 3 S  dx2y2           0.0       0.0       0.3       0.0       0.3       0.1
 3 S  dxy             0.0       0.0       0.1       0.1       0.1       0.5
 4 H  s               0.0       0.0       1.5       4.1       5.6       1.2
 4 H  px              0.0       0.0       0.1       0.2       0.2       0.0
 4 H  py              0.0       0.0       0.0       0.2       0.3       0.1
 5 H  s               0.0       0.0       1.7       3.9       4.6       2.8
 5 H  pz              0.0       0.0       0.1       0.2       0.3       0.2
 5 H  py              0.0       0.0       0.1       0.2       0.2       0.0
 6 H  s               0.0       0.0       1.7       3.8       4.6       2.7
 6 H  pz              0.0       0.0       0.1       0.3       0.3       0.2
 6 H  py              0.0       0.0       0.0       0.1       0.1       0.0
 7 H  s               0.0       0.0       3.9       1.3       0.8       7.7
 7 H  pz              0.0       0.0       0.2       0.1       0.1       0.5
 7 H  py              0.0       0.0       0.2       0.0       0.1       0.1
 8 H  s               0.0       0.0       3.9       1.2       0.9       7.1
 8 H  pz              0.0       0.0       0.2       0.1       0.1       0.6
 8 H  py              0.0       0.0       0.1       0.0       0.0       0.1
 9 H  s               0.0       0.0       4.5       1.1       2.4       5.9
 9 H  pz              0.0       0.0       0.3       0.1       0.2       0.5
 9 H  py              0.0       0.0       0.1       0.0       0.1       0.0
10 H  s               0.0       0.0       4.7       1.1       2.6       6.7
10 H  pz              0.0       0.0       0.2       0.1       0.2       0.5
10 H  py              0.0       0.0       0.2       0.0       0.1       0.1
11 H  s               0.0       0.0       2.2       6.3       7.8       2.4
11 H  pz              0.0       0.0       0.2       0.5       0.5       0.1
11 H  py              0.0       0.0       0.1       0.2       0.2       0.0

                     12        13        14        15        16        17   
                  -0.59777  -0.55214  -0.52423  -0.51534  -0.47929  -0.45852
                   2.00000   2.00000   2.00000   2.00000   2.00000   2.00000
                  --------  --------  --------  --------  --------  --------
 0 C  s               0.0       0.0       0.0       0.1       0.0       0.2
 0 C  pz             10.8       1.5      16.8       7.0       5.5       1.8
 0 C  px              0.1       8.7       0.5      16.2       7.1       0.9
 0 C  py              0.0      17.0       8.0       3.4       5.5      15.3
 0 C  dz2             0.0       0.1       0.3       0.1       0.1       0.6
 0 C  dxz             0.4       0.0       0.0       0.0       0.1       0.2
 0 C  dyz             0.0       0.1       0.3       0.2       0.4       0.1
 0 C  dx2y2           0.0       0.2       0.0       0.1       0.1       1.0
 0 C  dxy             0.0       0.1       0.0       0.3       1.0       1.0
 0 C  f+3             0.0       0.0       0.0       0.0       0.0       0.2
 1 C  s               0.0       0.1       0.0       0.2       0.1       0.2
 1 C  pz             24.4       1.0       2.9       0.7       0.7       1.7
 1 C  px              0.0       0.3       5.7      17.5       2.8       0.3
 1 C  py              0.0      15.6       0.5       0.7       0.4      20.0
 1 C  dz2             0.0       0.1       0.0       0.0       0.0       0.9
 1 C  dxz             0.1       0.0       1.0       0.7       0.6       0.2
 1 C  dyz             0.0       0.1       0.2       0.1       0.0       0.1
 1 C  dx2y2           0.0       0.3       0.0       0.1       0.0       2.4
 1 C  dxy             0.0       0.2       0.0       0.2       0.9       0.9
 1 C  f-2             0.0       0.0       0.1       0.1       0.0       0.0
 1 C  f+3             0.0       0.0       0.0       0.0       0.1       0.1
 2 C  s               0.0       0.2       0.0       0.5       0.3       0.5
 2 C  pz             25.4       0.0       9.3       4.6       6.1       0.0
 2 C  px              0.6      11.8       0.2       0.6       5.7       1.0
 2 C  py              0.0       1.6       9.6      12.7       0.0      12.2
 2 C  dz2             0.0       0.0       0.4       0.0       0.2       0.3
 2 C  dxz             0.1       0.2       0.4       0.1       0.4       0.1
 2 C  dyz             0.0       0.0       0.4       0.4       0.4       0.0
 2 C  dx2y2           0.0       0.1       0.1       0.4       1.3       1.2
 2 C  f-3             0.0       0.0       0.0       0.0       0.0       0.1
 3 S  s               0.4       0.0       0.4       2.5       2.7       0.4
 3 S  pz              4.4       2.8       8.7       1.5       9.5       2.9
 3 S  px              0.1       3.2       1.4       9.0       0.1       0.6
 3 S  py              0.5       6.1       0.3       0.6      13.2       0.0
 3 S  dz2             0.1       0.3       0.2       0.1       0.3       0.1
 3 S  dxz             0.4       0.0       0.1       0.2       0.2       0.0
 3 S  dyz             0.0       0.3       0.1       0.0       1.1       0.1
 3 S  dx2y2           0.0       0.1       0.3       0.4       0.1       0.3
 3 S  dxy             0.0       0.3       0.1       0.0       0.0       0.1
 4 H  s               0.1      11.4       1.4       1.6       7.1       4.7
 4 H  pz              0.1       0.0       0.2       0.1       0.1       0.0
 4 H  px              0.0       0.2       0.1       0.0       0.0       0.2
 4 H  py              0.0       0.1       0.0       0.2       0.1       0.0
 5 H  s               2.3       3.7       0.7       7.6       5.6       1.3
 5 H  pz              0.0       0.1       0.1       0.1       0.1       0.1
 5 H  px              0.0       0.2       0.0       0.1       0.1       0.0
 5 H  py              0.1       0.0       0.2       0.1       0.0       0.1
 6 H  s               2.7       0.1      12.7       0.2       0.7       7.0
 6 H  pz              0.0       0.0       0.2       0.0       0.0       0.1
 6 H  px              0.0       0.1       0.0       0.2       0.1       0.0
 6 H  py              0.1       0.1       0.1       0.1       0.2       0.0
 7 H  s               4.6       4.0       0.5       0.0       0.7       2.9
 7 H  pz              0.0       0.2       0.0       0.0       0.0       0.2
 7 H  px              0.0       0.0       0.0       0.3       0.0       0.0
 7 H  py              0.3       0.0       0.1       0.0       0.0       0.1
 8 H  s               6.6       0.4       1.1       0.8       0.0       8.7
 8 H  pz              0.1       0.1       0.0       0.0       0.0       0.2
 8 H  px              0.0       0.0       0.1       0.2       0.0       0.0
 8 H  py              0.2       0.1       0.0       0.0       0.0       0.0
 9 H  s               7.2       0.2       9.5       0.1       1.2       1.4
 9 H  pz              0.1       0.0       0.2       0.0       0.0       0.1
 9 H  px              0.0       0.2       0.0       0.0       0.1       0.0
 9 H  py              0.3       0.0       0.0       0.2       0.0       0.1
10 H  s               5.3       0.4       0.0       6.1       4.5       2.8
10 H  pz              0.0       0.0       0.1       0.1       0.0       0.1
10 H  px              0.0       0.2       0.0       0.0       0.1       0.0
10 H  py              0.2       0.0       0.1       0.0       0.1       0.0
11 H  s               1.4       5.2       3.7       0.0      11.2       1.5
11 H  pz              0.0       0.1       0.0       0.0       0.1       0.0

                     18        19        20        21        22        23   
                  -0.44611  -0.41918  -0.33886   0.08982   0.12021   0.13972
                   2.00000   2.00000   2.00000   0.00000   0.00000   0.00000
                  --------  --------  --------  --------  --------  --------
 0 C  s               0.0       0.3       0.0       1.8       6.3       1.5
 0 C  pz             10.1       0.0       0.0       0.0       0.1       0.0
 0 C  px              0.7       7.5       0.7       0.1       0.7       1.0
 0 C  py              0.4       0.0       0.0       0.1       0.2       1.4
 0 C  dz2             0.0       0.0       0.0       0.2       0.0       1.7
 0 C  dxz             1.4       0.0       0.0       0.0       0.0       0.0
 0 C  dyz             2.0       0.0       0.0       0.0       0.1       0.0
 0 C  dx2y2           0.1       0.0       0.1       0.0       0.1       0.2
 0 C  dxy             0.0       0.4       0.0       0.6       0.2       0.1
 0 C  f+2             0.1       0.0       0.0       0.0       0.0       0.0
 1 C  s               0.0       0.0       0.4       1.7       0.3       1.5
 1 C  pz             20.1       0.1       0.0       0.1       0.5       0.0
 1 C  px              0.3       7.0       2.2       0.1       1.5       0.9
 1 C  py              1.0       0.0       0.5       1.3       0.1       0.2
 1 C  dz2             0.0       0.1       0.0       1.2       0.2       0.3
 1 C  dxz             0.3       0.0       0.0       0.0       0.0       0.0
 1 C  dyz             4.6       0.2       0.0       0.0       0.0       0.1
 1 C  dx2y2           0.3       0.8       0.0       0.1       0.6       1.1
 1 C  dxy             0.0       0.3       0.1       0.1       0.5       0.9
 1 C  f0              0.1       0.0       0.0       0.0       0.0       0.0
 1 C  f+2             0.2       0.0       0.0       0.0       0.0       0.0
 1 C  f-3             0.0       0.1       0.0       0.0       0.0       0.2
 2 C  s               0.0       0.1       0.0       5.1       0.5       2.4
 2 C  pz              5.9       1.7       0.7       0.0       0.1       0.1
 2 C  px              0.6      13.1       0.5       1.5       4.1       9.1
 2 C  py              1.0       0.5       1.4       0.2       0.4       4.7
 2 C  dz2             0.0       0.1       0.1       0.6       0.2       3.4
 2 C  dxz             0.3       0.2       0.7       0.3       0.1       0.1
 2 C  dyz             2.7       0.6       0.4       0.0       0.1       0.0
 2 C  dx2y2           0.4       0.6       0.6       0.5       0.3       0.4
 2 C  dxy             0.0       0.3       1.8       0.0       1.9       0.5
 2 C  f-2             0.1       0.0       0.0       0.0       0.0       0.0
 2 C  f+3             0.0       0.1       0.2       0.0       0.0       0.1
 3 S  s               0.0       6.1       0.0       1.2       6.3       3.5
 3 S  pz              0.0      15.5      24.3       4.8       5.1       0.1
 3 S  px              0.7      32.7       9.6       4.5       2.0      18.8
 3 S  py              0.9       0.1      51.5       6.6       1.0       3.0
 3 S  dz2             0.0       0.0       0.0       5.8       0.2       2.8
 3 S  dxz             0.1       0.0       0.1       0.0       0.1       0.0
 3 S  dyz             0.2       0.4       0.0       2.5       2.7       0.3
 3 S  dx2y2           0.1       0.1       0.2       2.4       0.0       7.7
 3 S  dxy             0.0       0.3       0.1       2.4       0.3       5.0
 3 S  f+1             0.0       0.0       0.0       0.1       0.0       0.1
 3 S  f-1             0.0       0.1       0.0       0.1       0.2       0.0
 3 S  f+3             0.0       0.0       0.0       0.0       0.0       0.2
 3 S  f-3             0.0       0.1       0.0       0.1       0.1       0.3
 4 H  s               0.0       2.1       0.2       2.1       9.3       1.6
 4 H  pz              0.1       0.0       0.0       0.0       0.0       0.0
 4 H  px              0.0       0.0       0.0       0.1       0.4       0.0
 4 H  py              0.0       0.1       0.0       0.2       0.9       0.2
 5 H  s               7.0       0.0       0.0       2.2      11.9       4.4
 5 H  pz              0.0       0.0       0.0       0.2       0.9       0.6
 5 H  px              0.0       0.1       0.0       0.0       0.0       0.0
 5 H  py              0.1       0.0       0.0       0.1       0.6       0.1
 6 H  s               4.8       0.1       0.0       3.5       6.9       5.1
 6 H  pz              0.0       0.0       0.0       0.3       0.8       0.6
 6 H  px              0.0       0.1       0.0       0.0       0.0       0.0
 6 H  py              0.1       0.0       0.0       0.1       0.2       0.0
 7 H  s              14.1       0.0       0.1       7.4       0.0       3.9
 7 H  pz              0.0       0.0       0.0       0.6       0.0       0.4
 7 H  px              0.0       0.1       0.0       0.0       0.1       0.0
 7 H  py              0.2       0.0       0.0       0.1       0.0       0.0
 8 H  s               8.7       0.7       0.2       3.7       1.2       2.6
 8 H  pz              0.0       0.0       0.0       0.5       0.1       0.3
 8 H  py              0.2       0.0       0.0       0.0       0.1       0.0
 9 H  s               2.3       3.0       1.9       7.9       0.2       0.5
 9 H  pz              0.0       0.0       0.0       0.9       0.0       0.1
 9 H  px              0.0       0.2       0.0       0.2       0.2       0.3
 9 H  py              0.1       0.0       0.0       0.1       0.0       0.2
10 H  s               6.1       0.2       0.0       7.0       1.2       0.0
10 H  pz              0.0       0.0       0.0       0.7       0.1       0.1
10 H  px              0.0       0.2       0.0       0.0       0.4       0.2
10 H  py              0.0       0.0       0.0       0.1       0.1       0.2
11 H  s               0.6       2.4       0.0      13.3      23.1       4.1
11 H  pz              0.0       0.0       0.3       1.6       2.3       0.1
11 H  px              0.0       0.3       0.1       0.3       0.0       0.3
11 H  py              0.0       0.0       0.6       0.4       1.4       0.1

                     24        25        26        27        28        29   
                   0.15217   0.15879   0.17378   0.19631   0.19970   0.21648
                   0.00000   0.00000   0.00000   0.00000   0.00000   0.00000
                  --------  --------  --------  --------  --------  --------
 0 C  s               0.2       0.4       2.8       0.0       0.1       0.0
 0 C  pz              0.6       5.5       0.7       3.3       0.3       8.1
 0 C  px              0.5       0.8      12.1       0.1       3.5       0.3
 0 C  py              4.0       1.3       1.7       0.3       4.7       0.2
 0 C  dz2             0.4       0.0       1.1       0.0       3.2       0.1
 0 C  dxz             0.0       0.2       0.0       4.7       0.1       0.0
 0 C  dyz             0.2       0.9       0.0       0.8       0.0       7.0
 0 C  dx2y2           0.0       0.1       0.5       0.0       0.5       0.0
 0 C  dxy             1.0       0.5       1.3       0.0       1.9       0.0
 1 C  s               1.2       1.5       4.0       0.0       0.4       0.0
 1 C  pz              0.7       4.1       0.2       8.9       0.2       0.0
 1 C  px              0.6       0.1       0.8       0.0       1.4       0.0
 1 C  py              5.8       1.2       0.6       0.0       3.0       0.1
 1 C  dz2             0.1       0.1       0.0       0.0       1.6       0.0
 1 C  dxz             0.0       0.0       0.1       0.4       0.0       4.8
 1 C  dyz             0.2       2.1       0.6       1.5       0.0       0.2
 1 C  dx2y2           2.2       0.0       0.5       0.0       0.0       0.0
 1 C  dxy             0.2       0.1       0.9       0.0       2.1       0.0
 1 C  f+3             0.0       0.0       0.0       0.0       0.2       0.0
 2 C  s               3.0       0.2       1.4       0.0       0.5       0.0
 2 C  pz              0.8       7.3       1.4       2.1       0.0       2.9
 2 C  px              1.4       0.1       0.2       0.3       1.7       0.1
 2 C  py              4.8       0.7       0.3       0.0       7.9       0.2
 2 C  dz2             0.7       0.0       0.5       0.0       0.5       0.0
 2 C  dxz             0.0       0.0       0.3       3.0       0.3       0.0
 2 C  dyz             0.5       2.5       0.1       0.1       0.0       4.1
 2 C  dx2y2           1.4       0.1       0.0       0.0       0.3       0.1
 2 C  dxy             0.6       0.0       1.0       0.2       0.2       0.0
 2 C  f-1             0.1       0.0       0.0       0.0       0.0       0.0
 3 S  s               0.2       0.2       0.7       0.3       0.8       0.0
 3 S  pz              0.2       1.2       3.3       0.1       0.2       1.8
 3 S  px              0.4       0.1       0.5       0.2       1.7       0.2
 3 S  py              1.5       0.2       0.6       0.1       0.9       0.2
 3 S  dz2             0.0       0.0       0.5       0.1       1.7       0.0
 3 S  dxz             0.1       0.8       0.5       4.9       0.0       2.5
 3 S  dyz             0.0       0.0       3.5       0.0       0.6       0.6
 3 S  dx2y2           0.1       0.0       0.4       0.0       0.0       0.1
 3 S  dxy             0.1       0.0       1.0       0.2       0.0       0.0
 3 S  f-1             0.0       0.0       0.2       0.0       0.0       0.0
 4 H  s               9.3       0.0       7.8       0.9      29.6       0.3
 4 H  pz              0.0       0.1       0.0       0.4       0.0       0.9
 4 H  px              0.4       0.0       0.6       0.0       1.4       0.0
 4 H  py              0.3       0.0       0.3       0.0       1.2       0.0
 5 H  s               3.5       1.6       7.8       3.0       2.6      22.9
 5 H  pz              0.2       0.0       0.3       0.1       0.6       0.7
 5 H  px              0.0       0.0       0.2       0.1       0.5       0.3
 5 H  py              0.0       0.2       0.6       0.1       0.1       1.5
 6 H  s               0.0      15.8       1.6       0.8       6.8      18.2
 6 H  pz              0.0       0.8       0.1       0.0       0.8       0.7
 6 H  px              0.0       0.1       0.1       0.2       0.4       0.1
 6 H  py              0.1       0.7       0.1       0.1       0.0       1.3
 7 H  s              13.4       0.2      10.5      20.0       0.1       0.3
 7 H  pz              0.6       0.1       0.9       0.3       0.2       0.0
 7 H  px              0.0       0.0       0.1       0.1       0.1       0.2
 7 H  py              1.0       0.1       0.6       1.3       0.1       0.0
 8 H  s               1.7      19.8       4.2      22.6       2.3       0.2
 8 H  pz              0.2       1.3       0.5       0.6       0.4       0.0
 8 H  px              0.0       0.0       0.2       0.1       0.1       0.2
 8 H  py              0.0       0.9       0.0       1.1       0.0       0.1
 9 H  s               6.0      16.5       9.5       8.2       4.1       6.2
 9 H  pz              1.0       0.7       0.8       0.2       0.2       0.2
 9 H  px              0.1       0.1       0.0       0.1       0.2       0.0
 9 H  py              0.0       1.1       0.3       0.3       0.2       0.7
10 H  s              24.4       6.6       0.2       5.9       5.1       8.6
10 H  pz              1.9       0.1       0.2       0.1       0.2       0.3
10 H  px              0.0       0.0       0.0       0.3       0.0       0.0
10 H  py              1.0       0.5       0.0       0.3       0.3       0.8
11 H  s               0.4       0.0       6.5       0.1       1.4       0.6
11 H  pz              0.0       0.0       0.8       0.0       0.0       0.0
11 H  px              0.0       0.1       0.0       0.4       0.0       0.1
11 H  py              0.0       0.0       0.5       0.0       0.0       0.0

                     30        31        32        33        34        35   
                   0.23626   0.24703   0.28162   0.30072   0.31199   0.32426
                   0.00000   0.00000   0.00000   0.00000   0.00000   0.00000
                  --------  --------  --------  --------  --------  --------
 0 C  s               0.1       0.3       0.4       0.0       0.0       0.3
 0 C  pz              0.3       0.2       0.0      29.1      16.5       0.6
 0 C  px             17.1       0.3      14.5       0.4       1.1       0.9
 0 C  py              3.3       5.0      24.0       0.2       1.6       1.6
 0 C  dz2             0.0       0.6       9.3       0.1       0.2       0.7
 0 C  dxz             0.1       0.0       0.0       0.3       0.3       0.0
 0 C  dyz             0.0       0.1       0.3       4.4       1.7       0.0
 0 C  dx2y2           7.9       0.2       1.2       0.3       0.0       0.4
 0 C  dxy             1.3       0.2       4.0       0.3       1.1       0.6
 1 C  s               1.1       0.3       0.1       0.1       0.2       0.5
 1 C  pz              0.0       0.1       0.3       0.3       0.6       0.1
 1 C  px              0.9      10.0       5.5       2.9      12.1       0.8
 1 C  py             14.1       5.0       8.6       5.3       5.7       6.0
 1 C  dz2             8.3       0.6       0.9       0.4       0.0       2.4
 1 C  dxz             0.0       0.0       0.1       1.0       0.4       0.0
 1 C  dyz             0.4       0.0       0.0       0.1       0.0       0.0
 1 C  dx2y2           0.0       0.3       0.5       0.1       0.2       0.1
 1 C  dxy             1.1       2.8       1.7       1.6       3.2       0.1
 1 C  f+1             0.0       0.0       0.0       0.0       0.1       0.0
 1 C  f+3             0.0       0.1       0.0       0.0       0.0       0.0
 2 C  s               1.3       0.1       0.4       0.4       2.1       2.9
 2 C  pz              0.0       0.1       0.1       7.7       2.2       4.0
 2 C  px              9.9       1.3       0.6       2.1       0.4      18.3
 2 C  py              1.2      15.7       1.4       5.4      13.0       1.4
 2 C  dz2             0.0       8.8       0.8       0.1       1.0       0.4
 2 C  dxz             0.4       0.1       0.2       0.9       0.0       0.7
 2 C  dyz             0.0       0.0       0.2       1.8       0.0       0.2
 2 C  dx2y2           0.0       0.5       0.4       0.0       0.0       1.3
 2 C  dxy             6.0       1.1       1.5       0.9       2.0       0.1
 2 C  f+3             0.0       0.0       0.0       0.0       0.0       0.2
 2 C  f-3             0.1       0.0       0.1       0.0       0.0       0.0
 3 S  s               0.2       0.3       0.0       0.4       0.8       2.9
 3 S  pz              0.7       0.6       0.3       3.1       1.4       8.5
 3 S  px              0.9       0.2       0.4       0.4       4.0       4.8
 3 S  py              1.6       3.7       0.1       0.2       0.8       9.3
 3 S  dz2             0.1       7.3       0.3       0.2       0.1       0.7
 3 S  dxz             0.0       0.0       0.0       2.9       1.2       4.6
 3 S  dyz             1.3       1.6       1.5       2.3       3.0       0.1
 3 S  dx2y2           2.4       4.0       1.6       0.5       0.9       0.2
 3 S  dxy             1.5       0.5       0.1       1.6       5.5       8.4
 3 S  f-3             0.0       0.0       0.0       0.0       0.0       0.1
 4 H  s               1.1       3.8       1.9       0.7       1.5       1.5
 4 H  pz              0.0       0.0       0.0       0.5       0.3       0.0
 4 H  px              0.9       0.2       0.0       0.2       0.2       0.2
 4 H  py              0.3       0.1       1.0       0.0       0.1       0.0
 5 H  s               1.6       3.2       1.9       3.8       0.5       1.5
 5 H  pz              0.1       0.3       0.9       0.2       0.0       0.2
 5 H  px              0.1       0.0       0.5       0.0       0.2       0.2
 5 H  py              0.3       0.0       0.0       0.1       0.0       0.0
 6 H  s               0.3       5.8       1.0       2.8       3.2       0.6
 6 H  pz              0.1       0.5       0.7       0.1       0.2       0.1
 6 H  px              0.2       0.1       0.7       0.1       0.0       0.0
 6 H  py              0.1       0.0       0.2       0.0       0.0       0.0
 7 H  s               2.9       0.9       1.6       0.5       1.9       0.6
 7 H  pz              0.9       0.0       0.0       0.0       0.1       0.1
 7 H  px              0.0       0.5       0.1       1.1       0.2       0.0
 7 H  py              0.2       0.0       0.3       0.0       0.2       0.0
 8 H  s               1.2       1.8       1.9       0.9       0.1       0.6
 8 H  pz              0.6       0.0       0.0       0.0       0.0       0.2
 8 H  px              0.0       0.3       0.2       0.1       1.2       0.0
 8 H  py              0.6       0.1       0.3       0.1       0.0       0.1
 9 H  s               0.1       2.5       1.3       0.5       2.2       0.4
 9 H  pz              0.0       0.9       0.2       0.1       0.0       0.1
 9 H  px              0.6       0.0       0.0       0.0       0.2       0.2
 9 H  py              0.0       0.3       0.0       0.1       0.1       0.0
10 H  s               0.2       0.7       1.4       3.4       0.4       2.8
10 H  pz              0.0       0.7       0.2       0.0       0.0       0.1
10 H  px              0.4       0.0       0.1       0.4       0.2       0.1
10 H  py              0.0       0.5       0.0       0.0       0.1       0.1
11 H  s               2.6       4.3       1.6       5.4       2.5       4.0
11 H  pz              0.5       0.0       0.0       0.1       0.1       0.2
11 H  px              0.0       0.0       0.0       0.7       0.1       1.3
11 H  py              0.1       0.4       0.2       0.0       0.1       0.3

                     36        37        38        39        40        41   
                   0.33839   0.35082   0.35805   0.37796   0.41171   0.42250
                   0.00000   0.00000   0.00000   0.00000   0.00000   0.00000
                  --------  --------  --------  --------  --------  --------
 0 C  s               1.1       0.7       0.0       3.4       2.3       0.1
 0 C  pz              0.4       0.7      11.8       0.7       1.8       0.9
 0 C  px              4.3       7.2       0.3       1.7       2.8       2.6
 0 C  py              3.0       4.6       4.0       1.8       2.9       8.7
 0 C  dz2             0.2       1.7       0.2       0.1       0.4       1.5
[...]
 4 H  px              0.7       0.0       1.6       0.0       0.0       0.3
 4 H  py              0.0       0.0       1.3       0.0       0.0       0.8
 5 H  s               2.1       4.4       1.8       5.4       0.1       4.9
 5 H  pz              0.1       1.2       0.2       1.5       0.0       0.2
 5 H  px              0.0       0.0       0.2       0.1       0.2       0.0
 5 H  py              0.3       0.2       0.0       0.4       0.1       0.9
 6 H  s               2.4       4.6       1.0       5.7       0.3       4.8
 6 H  pz              0.2       1.4       0.1       1.7       0.0       0.3
 6 H  px              0.0       0.0       0.2       0.1       0.2       0.0
 6 H  py              0.3       0.1       0.0       0.2       0.2       0.6
 7 H  s               5.2       1.1       0.1       0.2       7.5       1.2
 7 H  pz              0.1       0.2       0.0       0.0       1.7       0.3
 7 H  px              0.1       0.0       0.0       0.3       0.0       0.1
 7 H  py              0.5       0.2       0.0       0.0       0.7       0.2
 8 H  s               5.1       1.0       0.0       0.2       9.2       0.1
 8 H  pz              0.1       0.2       0.1       0.0       2.4       0.0
 8 H  px              0.1       0.0       0.0       0.3       0.0       0.1
 8 H  py              0.4       0.3       0.0       0.0       0.5       0.0
 9 H  s               1.5       5.1       3.9       4.1       0.7       0.5
 9 H  pz              0.0       1.7       0.4       1.2       0.3       0.0
 9 H  px              0.1       0.1       0.1       0.0       0.1       0.0
 9 H  py              0.1       0.1       0.5       0.1       0.4       0.0
10 H  s               1.4       5.5       3.4       3.4       1.3       0.3
10 H  pz              0.0       1.7       0.2       1.0       0.2       0.0
10 H  px              0.1       0.1       0.1       0.0       0.0       0.0
10 H  py              0.1       0.2       0.6       0.1       0.6       0.0

                    168       169       170       171       172       173   
                   4.71243   4.88578   4.94343   9.00091   9.07151   9.39917
                   0.00000   0.00000   0.00000   0.00000   0.00000   0.00000
                  --------  --------  --------  --------  --------  --------
 0 C  s               3.0       1.8      14.6       0.0       0.0       0.1
 0 C  px              0.3       2.4       5.0       0.0       0.0       0.0
 0 C  py              0.0       0.2       1.1       0.0       0.0       0.0
 0 C  dz2             0.1       1.8       1.6       0.0       0.0       0.0
 0 C  dx2y2           0.3       2.9       2.5       0.0       0.0       0.0
 0 C  dxy             0.5       2.3       2.4       0.0       0.0       0.0
 0 C  f+1             0.2       0.2       2.3       0.0       0.0       0.0
 0 C  f-1             3.4       0.1       2.9       0.0       0.0       0.0
 0 C  f+3             2.0       0.0       2.8       0.0       0.0       0.0
 0 C  f-3             3.7       0.9       4.8       0.0       0.0       0.0
 1 C  s               3.1      22.2       0.5       0.0       0.0       0.0
 1 C  px              0.1       0.2      13.3       0.0       0.0       0.0
 1 C  py              2.5       4.1       0.1       0.0       0.0       0.0
 1 C  dz2             4.7       3.7       0.2       0.0       0.0       0.0
 1 C  dx2y2           4.2       1.5       3.3       0.0       0.0       0.0
 1 C  dxy             1.0       2.0      15.2       0.0       0.0       0.0
 1 C  f0              0.3       0.3       0.0       0.0       0.0       0.0
 1 C  f+1             2.2       0.1       3.0       0.0       0.0       0.0
 1 C  f-1            11.0       7.5       0.0       0.0       0.0       0.0
 1 C  f+2             0.3       0.0       0.0       0.0       0.0       0.0
 1 C  f+3             3.6       4.6       0.2       0.0       0.0       0.0
 1 C  f-3             0.2      10.4       1.4       0.0       0.0       0.0
 2 C  s               7.0       5.3       6.4       0.0       0.0       0.3
 2 C  px              0.2       3.3       1.8       0.0       0.0       0.2
 2 C  py              0.3       2.8       1.9       0.0       0.0       0.0
 2 C  dz2             1.0       2.9       0.5       0.0       0.0       0.0
 2 C  dx2y2           2.6       0.1       0.0       0.0       0.0       0.0
 2 C  dxy             0.2       8.8       2.7       0.0       0.0       0.0
 2 C  f0              0.4       0.1       0.1       0.0       0.0       0.0
 2 C  f+1             0.2       0.6       0.7       0.0       0.0       0.0
 2 C  f-1            13.5       1.0       2.0       0.0       0.0       0.0
 2 C  f+2             0.2       0.0       0.0       0.0       0.0       0.0
 2 C  f+3             4.2       1.9       0.6       0.0       0.0       0.0
 2 C  f-3             0.0       0.7       2.5       0.0       0.0       0.0
 3 S  s               0.0       0.0       0.1       0.0       0.0       0.5
 3 S  pz              0.0       0.0       0.0      37.9      61.9       0.1
 3 S  px              0.0       0.2       0.3       7.3       3.2      88.1
 3 S  py              0.0       0.0       0.0      54.7      34.7      10.3
 4 H  s               2.3       0.1       1.0       0.0       0.0       0.0
 4 H  px              0.0       0.1       0.1       0.0       0.0       0.0
 4 H  py              0.3       0.0       0.0       0.0       0.0       0.0
 5 H  s               0.7       0.0       0.5       0.0       0.0       0.0
 6 H  s               0.7       0.0       0.6       0.0       0.0       0.0
 7 H  s               3.8       0.9       0.0       0.0       0.0       0.0
 7 H  pz              0.4       0.0       0.0       0.0       0.0       0.0
 7 H  py              0.7       0.0       0.0       0.0       0.0       0.0
 8 H  s               3.8       0.9       0.0       0.0       0.0       0.0
 8 H  pz              0.6       0.0       0.0       0.0       0.0       0.0
 8 H  py              0.5       0.0       0.0       0.0       0.0       0.0
 9 H  s               3.6       0.1       0.2       0.0       0.0       0.0
 9 H  pz              0.3       0.1       0.0       0.0       0.0       0.0
 9 H  py              0.4       0.0       0.0       0.0       0.0       0.0
10 H  s               3.7       0.1       0.1       0.0       0.0       0.0
10 H  pz              0.2       0.1       0.0       0.0       0.0       0.0
10 H  py              0.4       0.0       0.0       0.0       0.0       0.0

                    174       175       176       177   
                  19.18590  22.30940  22.42388  22.51491
                   0.00000   0.00000   0.00000   0.00000
                  --------  --------  --------  --------
 0 C  s               0.1      20.9      77.1       0.8
 1 C  s               0.0       6.8       0.2      91.9
 1 C  px              0.0       0.0       0.1       0.0
 2 C  s               0.8      70.8      21.3       6.2
 2 C  px              0.3       0.0       0.0       0.1
 3 S  s              97.7       0.3       0.1       0.1
 3 S  pz              0.1       0.0       0.0       0.0
 3 S  px              0.3       0.0       0.0       0.0
 4 H  s               0.0       0.1       0.1       0.0
 5 H  s               0.0       0.0       0.1       0.0
 6 H  s               0.0       0.0       0.1       0.0
 7 H  s               0.0       0.0       0.0       0.2
 8 H  s               0.0       0.0       0.0       0.2
 9 H  s               0.0       0.2       0.1       0.0
10 H  s               0.0       0.1       0.1       0.0
11 H  s               0.2       0.0       0.0       0.0


                      *****************************
                      * MAYER POPULATION ANALYSIS *
                      *****************************

  NA   - Mulliken gross atomic population
  ZA   - Total nuclear charge
  QA   - Mulliken gross atomic charge
  VA   - Mayer's total valence
  BVA  - Mayer's bonded valence
  FA   - Mayer's free valence

  ATOM       NA         ZA         QA         VA         BVA        FA
  0 C      6.3407     6.0000    -0.3407     3.9224     3.9224     0.0000
  1 C      6.1524     6.0000    -0.1524     3.8709     3.8709     0.0000
  2 C      6.1810     6.0000    -0.1810     3.9459     3.9459    -0.0000
  3 S     16.2153    16.0000    -0.2153     2.0712     2.0712    -0.0000
  4 H      0.8817     1.0000     0.1183     0.9729     0.9729     0.0000
  5 H      0.8919     1.0000     0.1081     0.9735     0.9735     0.0000
  6 H      0.8937     1.0000     0.1063     0.9732     0.9732     0.0000
  7 H      0.9142     1.0000     0.0858     0.9786     0.9786    -0.0000
  8 H      0.8953     1.0000     0.1047     0.9773     0.9773    -0.0000
  9 H      0.8790     1.0000     0.1210     0.9644     0.9644    -0.0000
 10 H      0.8843     1.0000     0.1157     0.9707     0.9707    -0.0000
 11 H      0.8706     1.0000     0.1294     0.9763     0.9763    -0.0000

  Mayer bond orders larger than 0.100000
B(  0-C ,  1-C ) :   0.9757 B(  0-C ,  4-H ) :   0.9801 B(  0-C ,  5-H ) :   0.9803 
B(  0-C ,  6-H ) :   0.9778 B(  1-C ,  2-C ) :   0.9744 B(  1-C ,  7-H ) :   0.9707 
B(  1-C ,  8-H ) :   0.9716 B(  2-C ,  3-S ) :   1.0480 B(  2-C ,  9-H ) :   0.9689 
B(  2-C , 10-H ) :   0.9609 B(  3-S , 11-H ) :   0.9722 

-------
TIMINGS
-------

Total SCF time: 0 days 0 hours 0 min 28 sec 

Total time                  ....      28.421 sec
Sum of individual times     ....      27.687 sec  ( 97.4%)

SCF preparation             ....       0.045 sec  (  0.2%)
Fock matrix formation       ....      27.463 sec  ( 96.6%)
  Startup                   ....       0.002 sec  (  0.0% of F)
  Split-RI-J                ....       0.881 sec  (  3.2% of F)
  Chain of spheres X        ....      23.858 sec  ( 86.9% of F)
  XC integration            ....       3.409 sec  ( 12.4% of F)
    Basis function eval.    ....       0.941 sec  ( 27.6% of XC)
    Density eval.           ....       0.651 sec  ( 19.1% of XC)
    XC-Functional eval.     ....       0.957 sec  ( 28.1% of XC)
    XC-Potential eval.      ....       0.792 sec  ( 23.2% of XC)
Diagonalization             ....       0.000 sec  (  0.0%)
Density matrix formation    ....       0.007 sec  (  0.0%)
Total Energy calculation    ....       0.001 sec  (  0.0%)
Population analysis         ....       0.069 sec  (  0.2%)
Orbital Transformation      ....       0.008 sec  (  0.0%)
Orbital Orthonormalization  ....       0.000 sec  (  0.0%)
DIIS solution               ....       0.025 sec  (  0.1%)
  MO trafo                  ....       0.000 sec  (  0.0 % of DIIS)
  Orb grad                  ....       0.000 sec  (  0.0 % of DIIS)
  Energy W gradient         ....       0.000 sec  (  0.0 % of DIIS)
  DIIS error                ....       0.003 sec  ( 11.0 % of DIIS)
  DIIS work                 ....       0.018 sec  ( 72.7 % of DIIS)
  Form Q                    ....       0.000 sec  (  0.0 % of DIIS)
  Form QpQm                 ....       0.000 sec  (  0.0 % of DIIS)
  Exp/Cayley                ....       0.000 sec  (  0.0 % of DIIS)
  Orb update                ....       0.000 sec  (  0.0 % of DIIS)
  Wake-sleep                ....       0.000 sec  (  1.1 % of DIIS)
SOSCF solution              ....       0.012 sec  (  0.0%)
  MO trafo                  ....       0.007 sec  ( 53.9 % of SOSCF)
  Orb grad                  ....       0.000 sec  (  1.0 % of SOSCF)
  Rot update                ....       0.001 sec  (  4.1 % of SOSCF)
  Step                      ....       0.005 sec  ( 40.7 % of SOSCF)
Grid generation             ....       0.057 sec  (  0.2%)
Finished LeanSCF after  28.4 sec

Maximum memory used throughout the entire LEANSCF-calculation: 19.9 MB
------------------   -----------------
gCP correction             0.008253285
------------------   -----------------

-------------------------   --------------------
FINAL SINGLE POINT ENERGY      -517.281089944629
-------------------------   --------------------


------------------------------------------------------------------------------
                              ORCA PROPERTY CALCULATIONS
------------------------------------------------------------------------------

GBWName                                 ... sp.gbw
Number of atoms                         ...     12
Number of basis functions               ...    178
Max core memory                         ...   1024 MB

Electric properties:
Dipole moment                           ... YES
Quadrupole moment                       ...  NO
Static polarizability (Dipole/Dipole)   ...  NO
Static polarizability (Dipole/Quad.)    ...  NO
Static polarizability (Quad./Quad.)     ...  NO
Static polarizability (Velocity)        ...  NO

Atomic electric properties:
Dipole moment                           ...  NO
Quadrupole moment                       ...  NO
Static polarizability                   ...  NO

Choice of electric origin               ... Center of mass
Position of electric origin             ...     0.024607    -0.006262     0.002736

General magnetic properties:
Magnetizability                         ...  NO

EPR properties:
g-Tensor (aka g-matrix)                 ...  NO
Zero-Field splitting spin-orbit         ...  NO
Zero-field splitting spin-spin          ...  NO
Hyperfine couplings                     ...  NO (   0 nuclei)
Quadrupole couplings                    ...  NO (   0 nuclei)
Contact density                         ...  NO (   0 nuclei)

NMR properties:
Chemical shifts                         ...  NO (   0 nuclei)
Spin-rotation constants                 ...  NO (   0 nuclei)
Spin-spin couplings                     ...  NO (   0 nuclei,    0 pairs)

Choice of magnetic origin               ... GIAO
Position of magnetic origin             ...     0.000000     0.000000     0.000000

Properties with geometric perturbations:
SCF Hessian                             ...  NO
IR spectrum                             ...  NO
VCD spectrum                            ...  NO
X-ray spectroscopy properties:
SCF XES/XAS/RIXS spectra                ...  NO


-------------
DIPOLE MOMENT
-------------

Method             : SCF
Type of density    : Electron Density
Multiplicity       :   1
Irrep              :   0
Energy             :  -517.2893432293286651 Eh
Relativity type    : 
Basis              : AO
                                X                 Y                 Z
Electronic contribution:      8.130525029      -0.051340274       0.793564679
Nuclear contribution   :     -8.774356588       0.042661338      -1.056183693
                        -----------------------------------------
Total Dipole Moment    :     -0.643831558      -0.008678936      -0.262619014
                        -----------------------------------------
Magnitude (a.u.)       :      0.695387048
Magnitude (Debye)      :      1.767533407



--------------------
Rotational spectrum 
--------------------
 
Rotational constants in cm-1:             0.798112             0.077307             0.074206 
Rotational constants in MHz :         23926.804941          2317.600485          2224.632240 

Dipole components along the rotational axes: 
x,y,z [a.u.] :    -0.643656     0.007057    -0.263097 
x,y,z [Debye]:    -1.636044     0.017937    -0.668739 

 

Dipole moment calculation done in   0.0 sec 

Maximum memory used throughout the entire PROP-calculation: 11.6 MB

--------------------------------
SUGGESTED CITATIONS FOR THIS RUN
--------------------------------

Below you find a list of papers that are relevant to this ORCA run
We neither can nor want to force you to cite these papers, but we appreciate if you do
You receive ORCA, which is the product of decades of hard work by many enthusiastic individuals, for free
The only thing we kindly ask in return is that you cite our papers,
We deeply appreciate it, if you show your appreciation for ORCA by not just citing the generic ORCA reference.

Please note that relegating all ORCA citations to the supporting information does *not* help us.
SI sections are not indexed - citations you put there will not count into any citation statistics
But we need these citations in order to attract the funding resources that allow us to do what we are doing

Therefore, if you are a happy ORCA user, please consider citing a few of the papers listed below in the main body of your paper

In addition to the list printed below, the program has created the file sp.bibtex that contains the list in bibtex format
You can import this file easily into all common literature databanks and citation aid programs


List of essential papers. We consider these as the minimum necessary citations

  1. Neese,F.
     Software update: the ORCA program system, version 5.0
     WIRES Comput. Molec. Sci., 2022 12(1)e1606
     doi.org/10.1002/wcms.1606

List of papers to cite with high priority. The work reported in these papers was absolutely
necessary for this run to complete.
Our perspective: the developers of density functionals and basis sets usually get cited in chemistry papers
Good! But without the algorithms to do something with them, the functionals or basis sets would not do anything.
Hence, in our opinion, the algorithm design and method developments papers are equally worthy of getting cited

  1. Neese,F.
     An improvement of the resolution of the identity approximation for the formation of the Coulomb matrix
     J. Comp. Chem., 2003 24(14)1740-1747
     doi.org/10.1002/jcc.10318
  2. Neese,F.; Wennmohs,F.; Hansen,A.; Becker,U.
     Efficient, approximate and parallel Hartree-Fock and hybrid DFT calculations. A 'chain-of-spheres' algorithm for the Hartree-Fock exchange
     Chem. Phys., 2009 356(1-3)98-109
     doi.org/10.1016/j.chemphys.2008.10.036
  3. Helmich-Paris,B.; de Souza,B.; Neese,F.; Izsák,R.
     An improved chain of spheres for exchange algorithm
     J. Chem. Phys., 2021 155 104109
     doi.org/doi: 10.1063/5.0058766.
  4. Neese,F.
     The SHARK Integral Generation and Digestion System
     J. Comp. Chem., 2022  1-16
     doi.org/10.1002/jcc.26942

List of suggested additional citations. These are papers that are important in the 'surrounding' of 
of this run, or papers that preceded the highly important papers. If you like your results we are grateful for a citation.

  1. Izsak,R.; Neese,F.
     An overlap fitted chain of spheres exchange method
     J. Chem. Phys., 2011 135 144105
     doi.org/10.1063/1.3646921
  2. Izsak,R.; Hansen,A.; Neese,F.
     The resolution of identity and chain of spheres approximations for the LPNO-CCSD singles Fock term
     Molec. Phys., 2012 110 2413-2417
     doi.org/10.1080/00268976.2012.687466
  3. Neese,F.
     The ORCA program system
     WIRES Comput. Molec. Sci., 2012 2(1)73-78
     doi.org/10.1002/wcms.81
  4. Izsak,R.; Neese,F.; Klopper,W.
     Robust fitting techniques in the chain of spheres approximation to the Fock exchange: The role of the complementary space
     J. Chem. Phys., 2013 139 
     doi.org/10.1063/1.4819264
  5. Neese,F.
     Software update: the ORCA program system, version 4.0
     WIRES Comput. Molec. Sci., 2018 8(1)1-6
     doi.org/10.1002/wcms.1327
  6. Neese,F.; Wennmohs,F.; Becker,U.; Riplinger,C.
     The ORCA quantum chemistry program package
     J. Chem. Phys., 2020 152 Art. No. L224108
     doi.org/10.1063/5.0004608

List of optional additional citations

  1. Neese,F.
     Approximate second-order SCF convergence for spin unrestricted wavefunctions
     Chem. Phys. Lett., 2000 325(1-3)93-98
     doi.org/10.1016/s0009-2614(00)00662-x

Timings for individual modules:

Sum of individual times          ...       29.126 sec (=   0.485 min)
Startup calculation              ...        0.597 sec (=   0.010 min)   2.1 %
SCF iterations                   ...       28.492 sec (=   0.475 min)  97.8 %
Property calculations            ...        0.037 sec (=   0.001 min)   0.1 %
                             ****ORCA TERMINATED NORMALLY****
TOTAL RUN TIME: 0 days 0 hours 0 minutes 29 seconds 182 msec
