
                                 *****************
                                 * O   R   C   A *
                                 *****************

                                            #,                                       
                                            ###                                      
                                            ####                                     
                                            #####                                    
                                            ######                                   
                                           ########,                                 
                                     ,,################,,,,,                         
                               ,,#################################,,                 
                          ,,##########################################,,             
                       ,#########################################, ''#####,          
                    ,#############################################,,   '####,        
                  ,##################################################,,,,####,       
                ,###########''''           ''''###############################       
              ,#####''   ,,,,##########,,,,          '''####'''          '####       
            ,##' ,,,,###########################,,,                        '##       
           ' ,,###''''                  '''############,,,                           
         ,,##''                                '''############,,,,        ,,,,,,###''
      ,#''                                            '''#######################'''  
     '                                                          ''''####''''         
             ,#######,   #######,   ,#######,      ##                                
            ,#'     '#,  ##    ##  ,#'     '#,    #''#        ,####,   ,####,        
            ##       ##  ##   ,#'  ##            #'  '#       #'       #'  '#        
            ##       ##  #######   ##           ,######,      #####,   #    #        
            '#,     ,#'  ##    ##  '#,     ,#' ,#      #,     #,   #   #,  ,#        
             '#######'   ##     ##  '#######'  #'      '#     '####' # '####'        



                #########################################################
                #                        -***-                          #
                #          Department of theory and spectroscopy        #
                #                                                       #
                #                      Frank Neese                      #
                #                                                       #
                #     Directorship, Architecture, Infrastructure        #
                #                    SHARK, DRIVERS                     #
                #        Core code/Algorithms in most modules           #
                #                                                       #
                #        Max Planck Institute fuer Kohlenforschung      #
                #                Kaiser Wilhelm Platz 1                 #
                #                 D-45470 Muelheim/Ruhr                 #
                #                      Germany                          #
                #                                                       #
                #                  All rights reserved                  #
                #                        -***-                          #
                #########################################################


                         Program Version 6.0.1  -  RELEASE   -


 With contributions from (in alphabetic order):
[Max-Planck-Institut fuer Kohlenforschung]                               
  Daniel Aravena         : Magnetic Suceptibility                        
  Michael Atanasov       : Ab Initio Ligand Field Theory (pilot matlab implementation)
  Alexander A. Auer      : GIAO ZORA, VPT2 properties, NMR spectrum      
  Ute Becker             : All parallelization in ORCA, NUMFREQ, NUMCALC 
  Giovanni Bistoni       : ED, misc. LED, open-shell LED, HFLD           
  Martin Brehm           : Molecular dynamics                            
  Dmytro Bykov           : pre 5.0 version of the SCF Hessian            
  Marcos Casanova-Páez   : Triplet and SCS-CIS(D). UHF-(DLPNO)-IP/EA/STEOM-CCSD. UHF-CVS-IP/STEOM-CCSD   
  Vijay G. Chilkuri      : MRCI spin determinant printing, contributions to CSF-ICE 
  Pauline Colinet        : FMM embedding                                 
  Dipayan Datta          : RHF DLPNO-CCSD density                        
  Achintya Kumar Dutta   : EOM-CC, STEOM-CC                              
  Nicolas Foglia         : Exact transition moments, OPA infrastructure, MCD improvements    
  Dmitry Ganyushin       : Spin-Orbit,Spin-Spin,Magnetic field MRCI      
  Miquel Garcia-Rates    : C-PCM and meta-GGA Hessian, CCSD/C-PCM, Gaussian charge scheme 
  Tiago L. C. Gouveia    : GS-ROHF, GS-ROCIS                             
  Yang Guo               : DLPNO-NEVPT2, F12-NEVPT2, CIM, IAO-localization        
  Andreas Hansen         : Spin unrestricted coupled pair/coupled cluster methods 
  Ingolf Harden          : AUTO-CI MPn and infrastructure                
  Benjamin Helmich-Paris : MC-RPA, TRAH-(SCF,CASSCF), AVAS, COSX integrals, SCF dyn. polar. 
  Lee Huntington         : MR-EOM, pCC                                   
  Robert Izsak           : Overlap fitted RIJCOSX, COSX-SCS-MP3, EOM     
  Riya Kayal             : Wick's Theorem for AUTO-CI, AUTO-CI UHF-CCSDT 
  Emily Kempfer          : AUTO-CI, RHF CISDT and CCSDT                  
  Christian Kollmar      : KDIIS, OOCD, Brueckner-CCSD(T), CCSD density, CASPT2, CASPT2-K, improved NEVPT2 
  Axel Koslowski         : Symmetry handling                             
  Simone Kossmann        : meta-GGA functionals, TD-DFT gradient, OOMP2, (MP2 Hessian; deprecated post 5.0) 
  Lucas Lang             : DCDCAS                                        
  Marvin Lechner         : AUTO-CI (C++ implementation), FIC-MRCC        
  Spencer Leger          : CASSCF response                               
  Dagmar Lenk            : GEPOL surface, SMD, ORCA-2-JSON               
  Dimitrios Liakos       : Extrapolation schemes; Compound Job, initial MDCI parallelization 
  Dimitrios Manganas     : Further ROCIS development; embedding schemes. LFT, Crystal Embedding 
  Dimitrios Pantazis     : SARC Basis sets                               
  Anastasios Papadopoulos: AUTO-CI, single reference methods and gradients 
  Taras Petrenko         : pre 6.0 DFT Hessian and TD-DFT gradient, (ASA, deprecated), ECA, 1-Electron XAS/XES, NRVS 
  Peter Pinski           : DLPNO-MP2, DLPNO-MP2 Gradient                 
  Christoph Reimann      : Effective Core Potentials                     
  Marius Retegan         : Local ZFS, SOC                                
  Christoph Riplinger    : Optimizer, TS searches, QM/MM, DLPNO-CCSD(T), (RO)-DLPNO pert. Triples 
  Michael Roemelt        : Original ROCIS implementation                 
  Masaaki Saitow         : Open-shell DLPNO-CCSD energy and density      
  Barbara Sandhoefer     : DKH picture change effects                    
  Kantharuban Sivalingam : CASSCF convergence/infrastructure, NEVPT2 and variants, FIC-MRCI 
  Bernardo de Souza      : ESD, SOC TD-DFT                               
  Georgi L. Stoychev     : AutoAux, RI-MP2 NMR, DLPNO-MP2 response, X2C  
  Van Anh Tran           : RI-MP2 g-tensors                              
  Willem Van den Heuvel  : Paramagnetic NMR                              
  Zikuan Wang            : NOTCH, Electric field optimization            
  Frank Wennmohs         : Technical directorship and infrastructure     
  Hang Xu                : AUTO-CI-Response properties                   
                                                                         
[FACCTs GmbH]                                                            
  Markus Bursch, Miquel Garcia-Rates, Christoph Riplinger, Bernardo de Souza, Georgi L. Stoychev 
                                                                 
  APM, Basis sets (HGBS, AHGBS, def-TZVP (Ac-Lr), def2-XVPD (La-Lu)), CI-OPT, improved COSX, DLPNO-Multilevel,           
  DOCKER, DRACO, updates on ESD, GOAT, IRC, LR-CPCM, MBIS, meta-GGA TD-DFT gradient, ML-optimized integration grids, 
  MM, NACMEs, nearIR, NEB, NEB-TS, NL-DFT gradient (VV10), 2- and 3-layer-ONIOM, interface openCOSMO-RS, QMMM,   
  Crystal-QMMM, SF, symmetry and pop. for TD-DFT, r2SCAN hybrids, SOLVATOR                                   
                                                                         
[Other institutions]                                                     
  V. Asgeirsson          : NEB                                           
  Christoph Bannwarth    : sTDA-DFT, sTD-DFT, PBEh-3c, B97-3c, D3        
  Sebastian Ehlert       : rSCAN, r2SCAN, r2SCAN-3c, D4, dhf basis sets  
  Marvin Friede          : D4 for Fr, Ra, Ac-Lr                          
  Lars Goerigk           : TD-DFT with DH, B97 family of functionals     
  Stefan Grimme          : VdW corrections, initial TS optimization, DFT functionals, gCP, sTDA/sTD-DF 
  Waldemar Hujo          : DFT-NL                                        
  H. Jonsson             : NEB                                           
  Holger Kruse           : gCP                                           
  Marcel Mueller         : wB97X-3c, vDZP basis set                      
  Hagen Neugebauer       : wr2SCAN                                       
  Tobias Risthaus        : range-separated hybrid DFT                    
  Lukas Wittmann         : regularized MP2, r2SCAN double-hybrids, wr2SCAN        
                                                                         
We gratefully acknowledge several colleagues who have allowed us to      
interface, adapt or use parts of their codes:                            
  Ed Valeev, F. Pavosevic, A. Kumar             : LibInt (2-el integral package), F12 methods 
  Garnet Chan, S. Sharma, J. Yang, R. Olivares  : DMRG                   
  Ulf Ekstrom                                   : XCFun DFT Library      
  Mihaly Kallay                                 : mrcc  (arbitrary order and MRCC methods)
  Frank Weinhold                                : gennbo (NPA and NBO analysis)           
  Simon Mueller                                 : openCOSMO-RS                            
  Christopher J. Cramer and Donald G. Truhlar   : smd solvation model                     
  S Lehtola, MJT Oliveira, MAL Marques          : LibXC Library                           
  Liviu Ungur et al                             : ANISO software                          


 Your calculation uses the libint2 library for the computation of 2-el integrals
 For citations please refer to: http://libint.valeyev.net

 Your ORCA version has been built with support for libXC version: 6.2.2
 For citations please refer to: https://libxc.gitlab.io

 This ORCA versions uses:
   CBLAS   interface :  Fast vector & matrix operations
   LAPACKE interface :  Fast linear algebra routines
   SCALAPACK package :  Parallel linear algebra routines
   Shared memory     :  Shared parallel matrices
   BLAS/LAPACK       :  OpenBLAS 0.3.27  USE64BITINT DYNAMIC_ARCH NO_AFFINITY Zen SINGLE_THREADED
        Core in use  :  Zen
   Copyright (c) 2011-2014, The OpenBLAS Project


Your calculation utilizes the geometrical counterpoise correction gCP
Please cite in your paper:
H.Kruse, S. Grimme J.Chem.Phys., 136, (2012), 154101 
   

Your calculation utilizes the atom-pairwise dispersion correction
based on EEQ partial charges (D4)


================================================================================

----- Orbital basis set information -----
Your calculation utilizes the basis: def2-SV(P)
   F. Weigend and R. Ahlrichs, Phys. Chem. Chem. Phys. 7, 3297 (2005).

----- AuxJ basis set information -----
Your calculation utilizes the auxiliary basis: def2/J
   F. Weigend, Phys. Chem. Chem. Phys. 8, 1057 (2006).

================================================================================
                                        WARNINGS
                       Please study these warnings very carefully!
================================================================================

WARNING: Old DensityContainer found on disk!
         Will remove this file - 
         If you want to keep old densities, please start your calculation with a different basename. 


================================================================================
                                       INPUT FILE
================================================================================
NAME = sp.inp
|  1> ! pbe def2-sv(p) def2/J RI DEFGRID1 loosescf d4 GCP(DFT/SV(P)) printgap
|  2> %output
|  3>     printlevel normal
|  4> end
|  5> * xyz 0 1
|  6> C -1.3335027318 -0.3238422751 -0.384517231
|  7> C -0.4475235494 -1.2972912348 0.3845121194
|  8> C 1.0201293352 -1.1207541558 -0.0247310083
|  9> C 1.3247704821 0.3333887889 -0.4058718522
| 10> C 0.4562320488 1.2877546705 0.4057990567
| 11> C -1.0200972591 1.1207436832 0.0247987782
| 12> H -2.3864767651 -0.5414802284 -0.1964075686
| 13> H -1.1579408023 -0.4579416861 -1.4535919673
| 14> H -0.5646744335 -1.1099756021 1.453588469
| 15> H -0.7629945792 -2.325189737 0.1963157445
| 16> H 1.6623837368 -1.4288943351 0.8027003684
| 17> H 1.2485900436 -1.7689731913 -0.8730932764
| 18> H 2.3816954507 0.5467107505 -0.2358456921
| 19> H 1.125704211 0.4931662328 -1.467271566
| 20> H 0.5967802224 1.0746965521 1.4672002543
| 21> H 0.7677240602 2.3199995991 0.2356680541
| 22> H -1.6439131632 1.4087280268 0.8733143095
| 23> H -1.2669771987 1.7891598534 -0.8024563249
| 24> *
| 25> 
| 26>                          ****END OF INPUT****
================================================================================

                       ****************************
                       * Single Point Calculation *
                       ****************************

---------------------------------
CARTESIAN COORDINATES (ANGSTROEM)
---------------------------------
  C     -1.333503   -0.323842   -0.384517
  C     -0.447524   -1.297291    0.384512
  C      1.020129   -1.120754   -0.024731
  C      1.324770    0.333389   -0.405872
  C      0.456232    1.287755    0.405799
  C     -1.020097    1.120744    0.024799
  H     -2.386477   -0.541480   -0.196408
  H     -1.157941   -0.457942   -1.453592
  H     -0.564674   -1.109976    1.453588
  H     -0.762995   -2.325190    0.196316
  H      1.662384   -1.428894    0.802700
  H      1.248590   -1.768973   -0.873093
  H      2.381695    0.546711   -0.235846
  H      1.125704    0.493166   -1.467272
  H      0.596780    1.074697    1.467200
  H      0.767724    2.320000    0.235668
  H     -1.643913    1.408728    0.873314
  H     -1.266977    1.789160   -0.802456

----------------------------
CARTESIAN COORDINATES (A.U.)
----------------------------
  NO LB      ZA    FRAG     MASS         X           Y           Z
   0 C     6.0000    0    12.011   -2.519955   -0.611973   -0.726632
   1 C     6.0000    0    12.011   -0.845697   -2.451525    0.726623
   2 C     6.0000    0    12.011    1.927765   -2.117918   -0.046735
   3 C     6.0000    0    12.011    2.503453    0.630014   -0.766987
   4 C     6.0000    0    12.011    0.862154    2.433504    0.766849
   5 C     6.0000    0    12.011   -1.927704    2.117899    0.046863
   6 H     1.0000    0     1.008   -4.509788   -1.023249   -0.371157
   7 H     1.0000    0     1.008   -2.188191   -0.865384   -2.746891
   8 H     1.0000    0     1.008   -1.067080   -2.097550    2.746884
   9 H     1.0000    0     1.008   -1.441851   -4.393972    0.370983
  10 H     1.0000    0     1.008    3.141450   -2.700219    1.516884
  11 H     1.0000    0     1.008    2.359493   -3.342875   -1.649907
  12 H     1.0000    0     1.008    4.500752    1.033134   -0.445684
  13 H     1.0000    0     1.008    2.127273    0.931949   -2.772741
  14 H     1.0000    0     1.008    1.127751    2.030882    2.772607
  15 H     1.0000    0     1.008    1.450788    4.384164    0.445348
  16 H     1.0000    0     1.008   -3.106546    2.662110    1.650325
  17 H     1.0000    0     1.008   -2.394240    3.381022   -1.516423

--------------------------------
INTERNAL COORDINATES (ANGSTROEM)
--------------------------------
 C      0   0   0     0.000000000000     0.00000000     0.00000000
 C      1   0   0     1.524456667329     0.00000000     0.00000000
 C      2   1   0     1.533835150043   110.36565677     0.00000000
 C      3   2   1     1.533820809252   111.43603458    31.69516797
 C      4   3   2     1.524461514908   110.36816244    31.71060013
 C      1   2   3     1.533815887460   110.36707026   293.74038681
 H      1   2   3     1.091561193250   110.26614661   172.24458387
 H      1   2   3     1.091661776795   108.79109020    54.67843779
 H      2   1   3     1.091666486237   108.78914905   120.93978937
 H      2   1   3     1.091565470777   110.26553680   238.50423423
 H      3   2   1     1.091825887961   109.15801893   153.16178647
 H      3   2   1     1.091833664622   109.82802978   270.60405035
 H      4   3   2     1.091561058150   109.80889360   153.47620664
 H      4   3   2     1.091661836066   110.12950884   271.57328089
 H      5   4   3     1.091659311867   108.79234079    54.67352845
 H      5   4   3     1.091559171017   110.27031715   172.23958090
 H      6   1   2     1.091814943671   109.82024444   270.62148938
 H      6   1   2     1.091824567761   109.15882102   153.18600419

---------------------------
INTERNAL COORDINATES (A.U.)
---------------------------
 C      0   0   0     0.000000000000     0.00000000     0.00000000
 C      1   0   0     2.880805604282     0.00000000     0.00000000
 C      2   1   0     2.898528368163   110.36565677     0.00000000
 C      3   2   1     2.898501267996   111.43603458    31.69516797
 C      4   3   2     2.880814764879   110.36816244    31.71060013
 C      1   2   3     2.898491967156   110.36707026   293.74038681
 H      1   2   3     2.062751713658   110.26614661   172.24458387
 H      1   2   3     2.062941789012   108.79109020    54.67843779
 H      2   1   3     2.062950688568   108.78914905   120.93978937
 H      2   1   3     2.062759797014   110.26553680   238.50423423
 H      3   2   1     2.063251914171   109.15801893   153.16178647
 H      3   2   1     2.063266609932   109.82802978   270.60405035
 H      4   3   2     2.062751458357   109.80889360   153.47620664
 H      4   3   2     2.062941901019   110.12950884   271.57328089
 H      5   4   3     2.062937130973   108.79234079    54.67352845
 H      5   4   3     2.062747892193   110.27031715   172.23958090
 H      6   1   2     2.063231232462   109.82024444   270.62148938
 H      6   1   2     2.063249419355   109.15882102   153.18600419

---------------------
BASIS SET INFORMATION
---------------------
There are 2 groups of distinct atoms

 Group   1 Type C   : 7s4p1d contracted to 3s2p1d pattern {511/31/1}
 Group   2 Type H   : 4s contracted to 2s pattern {31}

Atom   0C    basis set group =>   1
Atom   1C    basis set group =>   1
Atom   2C    basis set group =>   1
Atom   3C    basis set group =>   1
Atom   4C    basis set group =>   1
Atom   5C    basis set group =>   1
Atom   6H    basis set group =>   2
Atom   7H    basis set group =>   2
Atom   8H    basis set group =>   2
Atom   9H    basis set group =>   2
Atom  10H    basis set group =>   2
Atom  11H    basis set group =>   2
Atom  12H    basis set group =>   2
Atom  13H    basis set group =>   2
Atom  14H    basis set group =>   2
Atom  15H    basis set group =>   2
Atom  16H    basis set group =>   2
Atom  17H    basis set group =>   2
---------------------------------
AUXILIARY/J BASIS SET INFORMATION
---------------------------------
There are 2 groups of distinct atoms

 Group   1 Type C   : 12s5p4d2f1g contracted to 6s4p3d1f1g pattern {711111/2111/211/2/1}
 Group   2 Type H   : 5s2p1d contracted to 3s1p1d pattern {311/2/1}

Atom   0C    basis set group =>   1
Atom   1C    basis set group =>   1
Atom   2C    basis set group =>   1
Atom   3C    basis set group =>   1
Atom   4C    basis set group =>   1
Atom   5C    basis set group =>   1
Atom   6H    basis set group =>   2
Atom   7H    basis set group =>   2
Atom   8H    basis set group =>   2
Atom   9H    basis set group =>   2
Atom  10H    basis set group =>   2
Atom  11H    basis set group =>   2
Atom  12H    basis set group =>   2
Atom  13H    basis set group =>   2
Atom  14H    basis set group =>   2
Atom  15H    basis set group =>   2
Atom  16H    basis set group =>   2
Atom  17H    basis set group =>   2

Checking for AutoStart:
The File: sp.gbw exists
Trying to determine its content:
     ... Fine, the file contains calculation information
     ... Fine, the calculation information was read
     ... Fine, the file contains a basis set
     ... Fine, the basis set was read
     ... Fine, the file contains a geometry
     ... Fine, the geometry was read
     ... Fine, the file contains a set of orbitals
     ... Fine, the orbitals can be read
     => possible old guess file was deleted
     => GBW file was renamed to GES file
     => GES file is set as startup file
     => Guess is set to MORead
     ... now leaving AutoStart

------------------------------------------------------------------------------
                             ORCA STARTUP CALCULATIONS
                           -- RI-GTO INTEGRALS CHOSEN --
------------------------------------------------------------------------------
------------------------------------------------------------------------------
                   ___                                                        
                  /   \      - P O W E R E D   B Y -                         
                 /     \                                                     
                 |  |  |   _    _      __       _____    __    __             
                 |  |  |  | |  | |    /  \     |  _  \  |  |  /  |          
                  \  \/   | |  | |   /    \    | | | |  |  | /  /          
                 / \  \   | |__| |  /  /\  \   | |_| |  |  |/  /          
                |  |  |   |  __  | /  /__\  \  |    /   |      \           
                |  |  |   | |  | | |   __   |  |    \   |  |\   \          
                \     /   | |  | | |  |  |  |  | |\  \  |  | \   \       
                 \___/    |_|  |_| |__|  |__|  |_| \__\ |__|  \__/        
                                                                              
                      - O R C A' S   B I G   F R I E N D -                    
                                      &                                       
                       - I N T E G R A L  F E E D E R -                       
                                                                              
 v1 FN, 2020, v2 2021, v3 2022-2024                                           
------------------------------------------------------------------------------


----------------------
SHARK INTEGRAL PACKAGE
----------------------

Number of atoms                             ...     18
Number of basis functions                   ...    108
Number of shells                            ...     60
Maximum angular momentum                    ...      2
Integral batch strategy                     ... SHARK/LIBINT Hybrid
RI-J (if used) integral strategy            ... SPLIT-RIJ (Revised 2003 algorithm where possible)
Printlevel                                  ...      1
Contraction scheme used                     ... SEGMENTED contraction
Prescreening option                         ... SCHWARTZ
   Thresh                                   ... 1.000e-09
   Tcut                                     ... 1.000e-10
   Tpresel                                  ... 1.000e-10 
Coulomb Range Separation                    ... NOT USED
Exchange Range Separation                   ... NOT USED
Multipole approximations                    ... NOT USED
Finite Nucleus Model                        ... NOT USED
CABS basis                                  ... NOT available
Auxiliary Coulomb fitting basis             ... AVAILABLE
   # of basis functions in Aux-J            ...    426
   # of shells in Aux-J                     ...    150
   Maximum angular momentum in Aux-J        ...      4
Auxiliary J/K fitting basis                 ... NOT available
Auxiliary Correlation fitting basis         ... NOT available
Auxiliary 'external' fitting basis          ... NOT available

Checking pre-screening integrals            ... done (  0.0 sec) Dimension = 60
Check shell pair data                       ... done (  0.0 sec)
Shell pair information
Shell pair cut-off parameter TPreSel        ...   1.0e-10
Total number of shell pairs                 ...      1830
Shell pairs after pre-screening             ...      1821
Total number of primitive shell pairs       ...      7374
Primitive shell pairs kept                  ...      5577
          la=0 lb=0:    894 shell pairs
          la=1 lb=0:    504 shell pairs
          la=1 lb=1:     78 shell pairs
          la=2 lb=0:    252 shell pairs
          la=2 lb=1:     72 shell pairs
          la=2 lb=2:     21 shell pairs

Calculating one electron integrals          ... done (  0.0 sec)
Calculating RI/J V-Matrix + Cholesky decomp.... done (  0.0 sec)
Calculating Nuclear repulsion               ... done (  0.0 sec) ENN=    257.768896205081 Eh

Diagonalization of the overlap matrix:
Smallest eigenvalue                        ... 8.308e-04
Time for diagonalization                   ...    0.001 sec
Threshold for overlap eigenvalues          ... 1.000e-07
Number of eigenvalues below threshold      ... 0
Time for construction of square roots      ...    0.000 sec
Total time needed                          ...    0.002 sec

-------------------
DFT GRID GENERATION
-------------------

General Integration Accuracy     IntAcc      ... 4.159
Radial Grid Type                 RadialGrid  ... OptM3 with GC (2021)
Angular Grid (max. ang.)         AngularGrid ... 3 (Lebedev-194)
Angular grid pruning method      GridPruning ... 4 (adaptive)
Weight generation scheme         WeightScheme... mBecke (2022)
Basis function cutoff            BFCut       ... 1.0000e-10
Integration weight cutoff        WCut        ... 1.0000e-14
Partially contracted basis set               ... off
Rotationally invariant grid construction     ... off
Angular grids for H and He will be reduced by one unit

Total number of grid points                  ...    36108
Total number of batches                      ...      570
Average number of points per batch           ...       63
Average number of grid points per atom       ...     2006
Initializing property integral containers    ... done (  0.0 sec)

SHARK setup successfully completed in   0.2 seconds

Maximum memory used throughout the entire STARTUP-calculation: 17.3 MB
-------------------------------------------------------------------------------
                                 ORCA GUESS
                   Start orbitals & Density for SCF / CASSCF
-------------------------------------------------------------------------------

------------
SCF SETTINGS
------------
Hamiltonian:
 Density Functional     Method          .... DFT(GTOs)
 Exchange Functional    Exchange        .... PBE
   PBE kappa parameter   XKappa         ....  0.804000
   PBE mue parameter    XMuePBE         ....  0.219520
 Correlation Functional Correlation     .... PBE
   PBE beta parameter  CBetaPBE         ....  0.066725
 LDA part of GGA corr.  LDAOpt          .... PW91-LDA
 Gradients option       PostSCFGGA      .... off
   NL short-range parameter             ....  6.400000
 RI-approximation to the Coulomb term is turned on
   Number of AuxJ basis functions       .... 426


General Settings:
 Integral files         IntName         .... sp
 Hartree-Fock type      HFTyp           .... RHF
 Total Charge           Charge          ....    0
 Multiplicity           Mult            ....    1
 Number of Electrons    NEL             ....   48
 Basis Dimension        Dim             ....  108
 Nuclear Repulsion      ENuc            ....    257.7688962051 Eh

Convergence Acceleration:
 AO-DIIS                CNVDIIS         .... on
   Start iteration      DIISMaxIt       ....    12
   Startup error        DIISStart       ....  0.200000
   # of expansion vecs  DIISMaxEq       ....     5
   Bias factor          DIISBfac        ....   1.050
   Max. coefficient     DIISMaxC        ....  10.000
 MO-DIIS                CNVKDIIS        .... off
 Trust-Rad. Augm. Hess. CNVTRAH         .... auto
   Auto Start mean grad. ratio tolernc. ....  1.125000
   Auto Start start iteration           ....     1
   Auto Start num. interpolation iter.  ....    10
   Max. Number of Micro iterations      ....    24
   Max. Number of Macro iterations      .... Maxiter - #DIIS iter
   Number of Davidson start vectors     ....     2
   Converg. threshold    (grad. norm)   ....   1.000e-04
   Grad. Scal. Fac. for Micro threshold ....   0.100
   Minimum threshold for Micro iter.    ....   1.000e-02
   NR start threshold (gradient norm)   ....   1.000e-04
   Initial trust radius                 ....   0.400
   Minimum AH scaling param. (alpha)    ....   1.000
   Maximum AH scaling param. (alpha)    .... 1000.000
   Quad. conv. algorithm                .... NR
   White noise on init. David. guess    .... on
   Maximum white noise                  ....   0.010
   Pseudo random numbers                .... off
   Inactive MOs                         .... canonical
   Orbital update algorithm             .... Taylor
   Preconditioner                       .... Diag
   Full preconditioner red. dimension   ....   250
 SOSCF                  CNVSOSCF        .... on
   Start iteration      SOSCFMaxIt      ....   150
   Startup grad/error   SOSCFStart      ....  0.003300
   Hessian update       SOSCFHessUp     .... L-BFGS
 Level Shifting         CNVShift        .... on
   Level shift para.    LevelShift      ....    0.2500
   Turn off err/grad.   ShiftErr        ....    0.0010
 Zerner damping         CNVZerner       .... off
 Static damping         CNVDamp         .... on
   Fraction old density DampFac         ....    0.7000
   Max. Damping (<1)    DampMax         ....    0.9800
   Min. Damping (>=0)   DampMin         ....    0.0000
   Turn off err/grad.   DampErr         ....    0.1000

SCF Procedure:
 Maximum # iterations   MaxIter         ....   125
 SCF integral mode      SCFMode         .... Direct
   Integral package                     .... SHARK and LIBINT hybrid scheme
 Reset frequency        DirectResetFreq ....    20
 Integral Threshold     Thresh          ....  1.000e-09 Eh
 Primitive CutOff       TCut            ....  1.000e-10 Eh

Convergence Tolerance:
 Convergence Check Mode ConvCheckMode   .... Total+1el-Energy
 Convergence forced     ConvForced      .... 0
 Energy Change          TolE            ....  1.000e-05 Eh
 1-El. energy change                    ....  1.000e-02 Eh
 Orbital Gradient       TolG            ....  1.000e-04
 Orbital Rotation angle TolX            ....  1.000e-04
 DIIS Error             TolErr          ....  5.000e-04

---------------------
INITIAL GUESS: MOREAD
---------------------
Guess MOs are being read from file: sp.ges
Input Geometry matches current geometry (good)
Input basis set matches current basis set (good)
Occupation numbers will be reassigned to an Aufbau configuration
MOs were renormalized
MOs were reorthogonalized (Cholesky)
                      ------------------
                      INITIAL GUESS DONE (   0.0 sec)
                      ------------------
             **** ENERGY FILE WAS UPDATED (sp.en.tmp) ****
Finished Guess after   0.0 sec
Maximum memory used throughout the entire GUESS-calculation: 8.9 MB

-------------------------------------------------------------------------------------------
                                      ORCA LEAN-SCF
                              memory conserving SCF solver
-------------------------------------------------------------------------------------------

----------------------------------------D-I-I-S--------------------------------------------
Iteration    Energy (Eh)           Delta-E    RMSDP     MaxDP     DIISErr   Damp  Time(sec)
-------------------------------------------------------------------------------------------
               ***  Starting incremental Fock matrix formation  ***
                              *** Initializing SOSCF ***
---------------------------------------S-O-S-C-F--------------------------------------
Iteration    Energy (Eh)           Delta-E    RMSDP     MaxDP     MaxGrad    Time(sec)
--------------------------------------------------------------------------------------
    1    -235.3286687095443313     0.00e+00  1.97e-05  1.73e-04  1.70e-05     0.2
               *** Restarting incremental Fock matrix formation ***
    2    -235.3286688212385798    -1.12e-07  1.82e-05  1.50e-04  3.58e-05     0.2
    3    -235.3286686361284978     1.85e-07  9.94e-06  7.75e-05  6.35e-05     0.2
                 **** Energy Check signals convergence ****

               *****************************************************
               *                     SUCCESS                       *
               *           SCF CONVERGED AFTER   3 CYCLES          *
               *****************************************************

             **** ENERGY FILE WAS UPDATED (sp.en.tmp) ****

----------------
TOTAL SCF ENERGY
----------------

Total Energy       :       -235.32866863612850 Eh           -6403.61863 eV

Components:
Nuclear Repulsion  :        257.76889620508098 Eh            7014.24826 eV
Electronic Energy  :       -493.09756484120948 Eh          -13417.86689 eV
One Electron Energy:       -826.24909126541877 Eh          -22483.38081 eV
Two Electron Energy:        333.15152642420929 Eh            9065.51392 eV

Virial components:
Potential Energy   :       -468.37120818322671 Eh          -12745.02852 eV
Kinetic Energy     :        233.04253954709822 Eh            6341.40989 eV
Virial Ratio       :          2.00980992180000

DFT components:
N(Alpha)           :       24.000043201019 electrons
N(Beta)            :       24.000043201019 electrons
N(Total)           :       48.000086402039 electrons
E(X)               :      -35.158319027190 Eh       
E(C)               :       -1.579480851017 Eh       
E(XC)              :      -36.737799878207 Eh       

---------------
SCF CONVERGENCE
---------------

  Last Energy change         ...   -1.8511e-07  Tolerance :   1.0000e-05
  Last MAX-Density change    ...    7.7522e-05  Tolerance :   1.0000e-03
  Last RMS-Density change    ...    9.9425e-06  Tolerance :   1.0000e-04
  Last DIIS Error            ...    1.1830e-04  Tolerance :   5.0000e-04
  Last Orbital Gradient      ...    6.3529e-05  Tolerance :   1.0000e-04
  Last Orbital Rotation      ...    4.9282e-05  Tolerance :   1.0000e-04


----------------
ORBITAL ENERGIES
----------------

  NO   OCC          E(Eh)            E(eV) 
   0   2.0000      -9.878032      -268.7949 
   1   2.0000      -9.878015      -268.7945 
   2   2.0000      -9.877890      -268.7911 
   3   2.0000      -9.877837      -268.7896 
   4   2.0000      -9.877820      -268.7891 
   5   2.0000      -9.877811      -268.7889 
   6   2.0000      -0.749178       -20.3862 
   7   2.0000      -0.658250       -17.9119 
   8   2.0000      -0.658075       -17.9071 
   9   2.0000      -0.546260       -14.8645 
  10   2.0000      -0.536184       -14.5903 
  11   2.0000      -0.459975       -12.5166 
  12   2.0000      -0.434997       -11.8369 
  13   2.0000      -0.429682       -11.6922 
  14   2.0000      -0.387044       -10.5320 
  15   2.0000      -0.353026        -9.6063 
  16   2.0000      -0.329620        -8.9694 
  17   2.0000      -0.323411        -8.8005 
  18   2.0000      -0.321321        -8.7436 
  19   2.0000      -0.315381        -8.5820 
  20   2.0000      -0.305882        -8.3235 
  21   2.0000      -0.256176        -6.9709 
  22   2.0000      -0.255946        -6.9646 
  23   2.0000      -0.255892        -6.9632 
  24   0.0000       0.029193         0.7944 
  25   0.0000       0.050753         1.3811 
  26   0.0000       0.071229         1.9382 
  27   0.0000       0.083168         2.2631 
  28   0.0000       0.095726         2.6049 
  29   0.0000       0.099824         2.7164 
  30   0.0000       0.106493         2.8978 
  31   0.0000       0.116968         3.1828 
  32   0.0000       0.134857         3.6696 
  33   0.0000       0.139909         3.8071 
  34   0.0000       0.148734         4.0473 
*Only the first 10 virtual orbitals were printed.

                    ********************************
                    * MULLIKEN POPULATION ANALYSIS *
                    ********************************

-----------------------
MULLIKEN ATOMIC CHARGES
-----------------------
   0 C :   -0.160462
   1 C :   -0.160875
   2 C :   -0.159626
   3 C :   -0.160285
   4 C :   -0.160701
   5 C :   -0.159607
   6 H :    0.083907
   7 H :    0.076252
   8 H :    0.076279
   9 H :    0.084016
  10 H :    0.080291
  11 H :    0.080114
  12 H :    0.083882
  13 H :    0.076204
  14 H :    0.076224
  15 H :    0.083992
  16 H :    0.080261
  17 H :    0.080134
Sum of atomic charges:   -0.0000000

--------------------------------
MULLIKEN REDUCED ORBITAL CHARGES
--------------------------------
  0 C s       :     3.021720  s :     3.021720
      pz      :     1.054737  p :     3.102234
      px      :     1.037580
      py      :     1.009918
      dz2     :     0.011394  d :     0.036507
      dxz     :     0.002830
      dyz     :     0.005874
      dx2y2   :     0.010323
      dxy     :     0.006085

  1 C s       :     3.022095  s :     3.022095
      pz      :     1.054828  p :     3.102275
      px      :     1.013249
      py      :     1.034197
      dz2     :     0.011393  d :     0.036505
      dxz     :     0.005581
      dyz     :     0.003123
      dx2y2   :     0.009547
      dxy     :     0.006861

  2 C s       :     3.041227  s :     3.041227
      pz      :     1.025519  p :     3.082558
      px      :     1.025842
      py      :     1.031197
      dz2     :     0.004784  d :     0.035841
      dxz     :     0.008080
      dyz     :     0.008684
      dx2y2   :     0.007223
      dxy     :     0.007071

  3 C s       :     3.021636  s :     3.021636
      pz      :     1.054817  p :     3.102142
      px      :     1.036644
      py      :     1.010680
      dz2     :     0.011210  d :     0.036507
      dxz     :     0.002906
      dyz     :     0.006069
      dx2y2   :     0.010346
      dxy     :     0.005977

  4 C s       :     3.021999  s :     3.021999
      pz      :     1.054898  p :     3.102197
      px      :     1.014041
      py      :     1.033258
      dz2     :     0.011209  d :     0.036506
      dxz     :     0.005745
      dyz     :     0.003228
      dx2y2   :     0.009575
      dxy     :     0.006748

  5 C s       :     3.041200  s :     3.041200
      pz      :     1.025521  p :     3.082565
      px      :     1.025219
      py      :     1.031825
      dz2     :     0.004784  d :     0.035843
      dxz     :     0.008147
      dyz     :     0.008617
      dx2y2   :     0.007247
      dxy     :     0.007048

  6 H s       :     0.916093  s :     0.916093

  7 H s       :     0.923748  s :     0.923748

  8 H s       :     0.923721  s :     0.923721

  9 H s       :     0.915984  s :     0.915984

 10 H s       :     0.919709  s :     0.919709

 11 H s       :     0.919886  s :     0.919886

 12 H s       :     0.916118  s :     0.916118

 13 H s       :     0.923796  s :     0.923796

 14 H s       :     0.923776  s :     0.923776

 15 H s       :     0.916008  s :     0.916008

 16 H s       :     0.919739  s :     0.919739

 17 H s       :     0.919866  s :     0.919866


------------------------
MULLIKEN OVERLAP CHARGES
------------------------
B(  0-C ,  1-C ) :   0.8547 B(  0-C ,  4-C ) :  -0.1111 B(  0-C ,  5-C ) :   0.7873 
B(  0-C ,  6-H ) :   0.6785 B(  0-C ,  7-H ) :   0.6733 B(  1-C ,  2-C ) :   0.7863 
B(  1-C ,  3-C ) :  -0.1111 B(  1-C ,  8-H ) :   0.6734 B(  1-C ,  9-H ) :   0.6786 
B(  2-C ,  3-C ) :   0.7876 B(  2-C ,  5-C ) :  -0.1247 B(  2-C , 10-H ) :   0.6714 
B(  2-C , 11-H ) :   0.6709 B(  3-C ,  4-C ) :   0.8549 B(  3-C , 12-H ) :   0.6785 
B(  3-C , 13-H ) :   0.6732 B(  4-C ,  5-C ) :   0.7866 B(  4-C , 14-H ) :   0.6733 
B(  4-C , 15-H ) :   0.6786 B(  5-C , 16-H ) :   0.6712 B(  5-C , 17-H ) :   0.6711 
B(  6-H ,  7-H ) :  -0.0653 B(  8-H ,  9-H ) :  -0.0653 B( 10-H , 11-H ) :  -0.0633 
B( 12-H , 13-H ) :  -0.0654 B( 14-H , 15-H ) :  -0.0653 B( 16-H , 17-H ) :  -0.0633 



                     *******************************
                     * LOEWDIN POPULATION ANALYSIS *
                     *******************************

----------------------
LOEWDIN ATOMIC CHARGES
----------------------
   0 C :   -0.230476
   1 C :   -0.230467
   2 C :   -0.229632
   3 C :   -0.230449
   4 C :   -0.230446
   5 C :   -0.229634
   6 H :    0.116615
   7 H :    0.113536
   8 H :    0.113542
   9 H :    0.116613
  10 H :    0.115145
  11 H :    0.115120
  12 H :    0.116605
  13 H :    0.113529
  14 H :    0.113533
  15 H :    0.116607
  16 H :    0.115142
  17 H :    0.115118

-------------------------------
LOEWDIN REDUCED ORBITAL CHARGES
-------------------------------
  0 C s       :     2.905663  s :     2.905663
      pz      :     1.094444  p :     3.236729
      px      :     1.082419
      py      :     1.059866
      dz2     :     0.027013  d :     0.088085
      dxz     :     0.006752
      dyz     :     0.014090
      dx2y2   :     0.025003
      dxy     :     0.015226

  1 C s       :     2.905681  s :     2.905681
      pz      :     1.094452  p :     3.236706
      px      :     1.061062
      py      :     1.081191
      dz2     :     0.027009  d :     0.088080
      dxz     :     0.013223
      dyz     :     0.007618
      dx2y2   :     0.023598
      dxy     :     0.016632

  2 C s       :     2.908826  s :     2.908826
      pz      :     1.101808  p :     3.233763
      px      :     1.065510
      py      :     1.066445
      dz2     :     0.011001  d :     0.087044
      dxz     :     0.019005
      dyz     :     0.020452
      dx2y2   :     0.021799
      dxy     :     0.014787

  3 C s       :     2.905663  s :     2.905663
      pz      :     1.093915  p :     3.236702
      px      :     1.082925
      py      :     1.059862
      dz2     :     0.026553  d :     0.088085
      dxz     :     0.007034
      dyz     :     0.014547
      dx2y2   :     0.025179
      dxy     :     0.014771

  4 C s       :     2.905674  s :     2.905674
      pz      :     1.093926  p :     3.236691
      px      :     1.061017
      py      :     1.081748
      dz2     :     0.026551  d :     0.088082
      dxz     :     0.013577
      dyz     :     0.008003
      dx2y2   :     0.023773
      dxy     :     0.016178

  5 C s       :     2.908818  s :     2.908818
      pz      :     1.101810  p :     3.233770
      px      :     1.065100
      py      :     1.066859
      dz2     :     0.011002  d :     0.087047
      dxz     :     0.019056
      dyz     :     0.020402
      dx2y2   :     0.021855
      dxy     :     0.014733

  6 H s       :     0.883385  s :     0.883385

  7 H s       :     0.886464  s :     0.886464

  8 H s       :     0.886458  s :     0.886458

  9 H s       :     0.883387  s :     0.883387

 10 H s       :     0.884855  s :     0.884855

 11 H s       :     0.884880  s :     0.884880

 12 H s       :     0.883395  s :     0.883395

 13 H s       :     0.886471  s :     0.886471

 14 H s       :     0.886467  s :     0.886467

 15 H s       :     0.883393  s :     0.883393

 16 H s       :     0.884858  s :     0.884858

 17 H s       :     0.884882  s :     0.884882


---------------------------------
LOEWDIN BOND ORDERS (THRESH 0.050000)
---------------------------------
B(  0-C ,  1-C ) :   1.0967 B(  0-C ,  2-C ) :   0.0507 B(  0-C ,  5-C ) :   1.0878 
B(  0-C ,  6-H ) :   0.9080 B(  0-C ,  7-H ) :   0.9056 B(  1-C ,  2-C ) :   1.0877 
B(  1-C ,  5-C ) :   0.0507 B(  1-C ,  8-H ) :   0.9056 B(  1-C ,  9-H ) :   0.9080 
B(  2-C ,  3-C ) :   1.0878 B(  2-C ,  4-C ) :   0.0507 B(  2-C , 10-H ) :   0.9101 
B(  2-C , 11-H ) :   0.9102 B(  3-C ,  4-C ) :   1.0967 B(  3-C ,  5-C ) :   0.0507 
B(  3-C , 12-H ) :   0.9080 B(  3-C , 13-H ) :   0.9056 B(  4-C ,  5-C ) :   1.0878 
B(  4-C , 14-H ) :   0.9056 B(  4-C , 15-H ) :   0.9080 B(  5-C , 16-H ) :   0.9101 
B(  5-C , 17-H ) :   0.9102 

------------------------------------------
LOEWDIN REDUCED ORBITAL POPULATIONS PER MO
-------------------------------------------
THRESHOLD FOR PRINTING IS 0.1%%
                      0         1         2         3         4         5   
                  -9.87803  -9.87802  -9.87789  -9.87784  -9.87782  -9.87781
                   2.00000   2.00000   2.00000   2.00000   2.00000   2.00000
                  --------  --------  --------  --------  --------  --------
 0 C  s               1.0       0.6      22.8      29.4      12.3      33.5
 1 C  s               1.3       0.4      29.4      28.7      32.2       7.7
 2 C  s              55.1      41.3       1.0       0.0       0.2       2.0
 3 C  s               1.2       0.4      20.9      25.4       9.4      42.4
 4 C  s               1.0       0.6      24.8      16.0      45.3      11.9
 5 C  s              39.9      56.4       0.9       0.0       0.2       2.1

                      6         7         8         9        10        11   
                  -0.74918  -0.65825  -0.65808  -0.54626  -0.53618  -0.45997
                   2.00000   2.00000   2.00000   2.00000   2.00000   2.00000
                  --------  --------  --------  --------  --------  --------
 0 C  s              11.2       4.3      13.7       7.9       2.5       4.3
 0 C  pz              0.5       0.0       0.3       2.5       0.0       5.4
 0 C  px              1.4       0.3       0.1       1.4       0.0       1.1
 0 C  py              0.1       4.8       1.5       1.0       7.2       0.5
 0 C  dx2y2           0.0       0.0       0.0       0.0       0.1       0.1
 1 C  s              11.2       4.2      13.7       7.9       2.5       4.3
 1 C  pz              0.5       0.0       0.3       2.5       0.0       5.4
 1 C  px              0.2       4.5       1.4       0.8       7.2       0.6
 1 C  py              1.3       0.6       0.1       1.6       0.1       1.0
 2 C  s              10.6      18.8       0.0       0.0      11.5       3.1
 2 C  pz              0.0       0.0       0.3       2.7       0.0       0.0
 2 C  px              0.9       0.0       3.4       3.4       1.8       1.3
 2 C  py              1.1       0.0       2.8       2.9       2.1       1.6
 2 C  dx2y2           0.0       0.0       0.2       0.2       0.0       0.0
 3 C  s              11.2       4.3      13.7       7.9       2.5       4.3
 3 C  pz              0.6       0.0       0.3       2.6       0.0       5.4
 3 C  px              1.4       0.3       0.0       1.3       0.0       1.0
 3 C  py              0.1       4.8       1.5       0.9       7.2       0.6
 3 C  dx2y2           0.0       0.0       0.0       0.0       0.1       0.1
 4 C  s              11.2       4.2      13.7       7.9       2.5       4.3
 4 C  pz              0.6       0.0       0.3       2.6       0.0       5.4
 4 C  px              0.2       4.5       1.4       0.7       7.2       0.7
 4 C  py              1.3       0.6       0.1       1.5       0.1       0.9
 5 C  s              10.6      18.8       0.0       0.0      11.5       3.1
 5 C  pz              0.0       0.0       0.3       2.7       0.0       0.0
 5 C  px              0.9       0.0       3.4       3.5       1.8       1.3
 5 C  py              1.1       0.0       2.8       2.8       2.1       1.6
 5 C  dx2y2           0.0       0.0       0.2       0.2       0.0       0.0
 6 H  s               1.7       1.1       3.3       3.2       1.1       2.6
 7 H  s               2.0       0.7       2.8       4.2       0.9       5.3
 8 H  s               2.0       0.7       2.8       4.3       0.9       5.3
 9 H  s               1.7       1.0       3.3       3.3       1.1       2.6
10 H  s               1.7       4.2       0.0       0.1       5.3       2.5
11 H  s               1.7       4.2       0.0       0.1       5.3       2.5
12 H  s               1.7       1.1       3.3       3.2       1.1       2.6
13 H  s               2.0       0.7       2.8       4.2       0.9       5.3
14 H  s               2.0       0.7       2.8       4.3       0.9       5.3
15 H  s               1.7       1.0       3.3       3.3       1.1       2.6
16 H  s               1.7       4.2       0.0       0.1       5.3       2.5
17 H  s               1.7       4.2       0.0       0.1       5.3       2.5

                     12        13        14        15        16        17   
                  -0.43500  -0.42968  -0.38704  -0.35303  -0.32962  -0.32341
                   2.00000   2.00000   2.00000   2.00000   2.00000   2.00000
                  --------  --------  --------  --------  --------  --------
 0 C  s               0.2       0.2       0.0       0.3       0.4       0.1
 0 C  pz              7.5       0.1       5.0       8.1       0.1       0.0
 0 C  px              3.4      11.8       0.0       3.3      14.4       5.4
 0 C  py              0.7       1.4       2.7       0.6       2.2       2.9
 0 C  dz2             0.0       0.0       0.0       0.0       0.1       0.0
 0 C  dx2y2           0.0       0.0       0.0       0.1       0.0       0.3
 0 C  dxy             0.0       0.0       0.0       0.1       0.1       0.1
 1 C  s               0.2       0.2       0.0       0.3       0.4       0.1
 1 C  pz              7.5       0.1       5.0       8.1       0.1       0.0
 1 C  px              0.4       2.2       2.7       0.3       1.3       3.7
 1 C  py              3.7      11.0       0.0       3.6      15.4       4.6
 1 C  dz2             0.0       0.0       0.0       0.0       0.1       0.0
 1 C  dx2y2           0.0       0.0       0.0       0.1       0.0       0.3
 1 C  dxy             0.0       0.0       0.0       0.2       0.1       0.0
 2 C  s               0.0       0.1       0.0       0.4       0.0       0.8
 2 C  pz              6.5       0.0      20.2       0.0       0.0       0.0
 2 C  px              3.7       4.4       0.0       2.7       1.2       8.5
 2 C  py              2.8       5.4       0.0       3.2       1.0      10.2
 2 C  dz2             0.0       0.0       0.0       0.2       0.0       0.0
 2 C  dx2y2           0.0       0.0       0.0       0.0       0.1       0.0
 2 C  dxy             0.0       0.1       0.0       0.2       0.0       0.0
 3 C  s               0.2       0.2       0.0       0.3       0.4       0.1
 3 C  pz              7.1       0.2       5.2       7.8       0.2       0.0
 3 C  px              3.6      11.7       0.0       3.6      14.4       5.4
 3 C  py              0.8       1.4       2.6       0.7       2.2       2.9
 3 C  dz2             0.0       0.0       0.0       0.0       0.1       0.0
 3 C  dx2y2           0.0       0.0       0.0       0.1       0.0       0.3
 3 C  dxy             0.0       0.0       0.0       0.1       0.1       0.1
 4 C  s               0.2       0.2       0.0       0.3       0.4       0.1
 4 C  pz              7.1       0.2       5.2       7.8       0.2       0.0
 4 C  px              0.5       2.2       2.5       0.4       1.3       3.7
 4 C  py              3.9      10.9       0.0       3.8      15.4       4.6
 4 C  dz2             0.0       0.0       0.0       0.0       0.1       0.0
 4 C  dx2y2           0.0       0.0       0.0       0.1       0.0       0.3
 4 C  dxy             0.0       0.0       0.0       0.2       0.1       0.0
 5 C  s               0.0       0.1       0.0       0.4       0.0       0.8
 5 C  pz              6.5       0.0      20.2       0.0       0.0       0.0
 5 C  px              3.5       4.4       0.0       2.7       1.2       8.5
 5 C  py              3.0       5.4       0.0       3.2       1.0      10.2
 5 C  dz2             0.0       0.0       0.0       0.2       0.0       0.0
 5 C  dx2y2           0.0       0.0       0.0       0.0       0.1       0.0
 5 C  dxy             0.0       0.1       0.0       0.2       0.0       0.0
 6 H  s               2.0       4.8       0.2       3.7       5.6       3.9
 7 H  s               2.5       0.1       1.6       3.2       0.6       0.1
 8 H  s               2.5       0.1       1.6       3.2       0.6       0.1
 9 H  s               2.0       4.9       0.2       3.7       5.6       3.9
10 H  s               2.1       1.5       5.2       2.1       0.2       2.4
11 H  s               2.1       1.5       5.2       2.1       0.2       2.4
12 H  s               2.0       4.8       0.2       3.7       5.6       3.9
13 H  s               2.5       0.1       1.6       3.2       0.6       0.1
14 H  s               2.5       0.1       1.6       3.2       0.6       0.1
15 H  s               2.0       4.9       0.2       3.7       5.6       3.9
16 H  s               2.1       1.5       5.2       2.1       0.2       2.4
17 H  s               2.1       1.5       5.2       2.1       0.2       2.4

                     18        19        20        21        22        23   
                  -0.32132  -0.31538  -0.30588  -0.25618  -0.25595  -0.25589
                   2.00000   2.00000   2.00000   2.00000   2.00000   2.00000
                  --------  --------  --------  --------  --------  --------
 0 C  s               0.1       0.1       0.0       0.1       0.0       0.1
 0 C  pz              0.4      13.4       2.6       0.0       0.0       8.7
 0 C  px              1.8       0.1       0.0       4.9       4.7       0.1
 0 C  py             10.2       1.2       2.8       5.0       8.0       0.1
 0 C  dz2             0.0       0.4       0.1       0.0       0.2       0.5
 0 C  dyz             0.1       0.0       0.1       0.0       0.1       0.1
 0 C  dx2y2           0.0       0.0       0.1       0.5       0.0       0.0
 0 C  dxy             0.0       0.0       0.0       0.0       0.2       0.0
 1 C  s               0.1       0.1       0.0       0.1       0.0       0.2
 1 C  pz              0.4      13.5       2.6       0.0       0.0       8.7
 1 C  px             10.8       1.2       2.7       5.1       7.7       0.1
 1 C  py              1.0       0.1       0.1       4.6       5.2       0.2
 1 C  dz2             0.0       0.4       0.1       0.0       0.1       0.5
 1 C  dxz             0.1       0.0       0.1       0.0       0.1       0.1
 1 C  dx2y2           0.0       0.0       0.1       0.4       0.0       0.0
 1 C  dxy             0.1       0.0       0.0       0.1       0.2       0.0
 2 C  s               0.0       0.2       0.0       0.0       0.3       0.0
 2 C  pz              0.2       0.0      18.1       0.2       0.0       6.8
 2 C  px             10.0       0.0       0.4       6.5       5.1       0.0
 2 C  py              8.3       0.0       0.4       6.0       5.2       0.1
 2 C  dxz             0.1       0.1       0.2       0.1       0.1       0.2
 2 C  dyz             0.1       0.1       0.2       0.2       0.1       0.2
 2 C  dx2y2           0.2       0.0       0.2       0.1       0.0       0.1
 2 C  dxy             0.0       0.0       0.0       0.0       0.4       0.0
 3 C  s               0.1       0.1       0.0       0.1       0.0       0.2
 3 C  pz              0.4      13.7       2.4       0.0       0.1       8.7
 3 C  px              1.7       0.0       0.0       4.9       4.7       0.0
 3 C  py             10.3       1.0       2.9       5.0       8.0       0.0
 3 C  dz2             0.0       0.4       0.1       0.0       0.1       0.5
 3 C  dyz             0.1       0.0       0.1       0.0       0.1       0.1
 3 C  dx2y2           0.0       0.0       0.1       0.5       0.0       0.0
 3 C  dxy             0.0       0.0       0.0       0.0       0.2       0.0
 4 C  s               0.1       0.1       0.0       0.1       0.0       0.2
 4 C  pz              0.4      13.7       2.4       0.0       0.1       8.7
 4 C  px             10.9       1.0       2.9       5.0       7.7       0.0
 4 C  py              1.0       0.1       0.1       4.6       5.2       0.0
 4 C  dz2             0.0       0.4       0.1       0.0       0.1       0.5
 4 C  dxz             0.1       0.0       0.1       0.0       0.1       0.1
 4 C  dx2y2           0.0       0.0       0.1       0.4       0.0       0.0
 4 C  dxy             0.1       0.0       0.0       0.1       0.2       0.0
 5 C  s               0.0       0.2       0.0       0.0       0.3       0.0
 5 C  pz              0.2       0.0      18.1       0.2       0.0       6.8
 5 C  px              9.9       0.0       0.5       6.5       5.0       0.1
 5 C  py              8.3       0.0       0.3       6.1       5.3       0.0
 5 C  dxz             0.1       0.1       0.2       0.1       0.1       0.2
 5 C  dyz             0.1       0.1       0.2       0.2       0.1       0.2
 5 C  dx2y2           0.2       0.0       0.2       0.1       0.0       0.1
 5 C  dxy             0.0       0.0       0.0       0.0       0.4       0.0
 6 H  s               1.7       0.4       0.0       5.9       2.7       0.2
 7 H  s               0.2       9.1       2.6       0.1       0.8       7.2
 8 H  s               0.2       9.1       2.6       0.2       0.8       7.2
 9 H  s               1.6       0.4       0.0       6.5       2.2       0.2
10 H  s               1.1       0.0       6.9       1.5       3.0       4.2
11 H  s               1.1       0.0       6.9       1.9       3.1       3.8
12 H  s               1.7       0.4       0.0       6.0       2.6       0.3
13 H  s               0.2       9.1       2.6       0.2       0.6       7.5
14 H  s               0.2       9.1       2.6       0.2       0.5       7.5
15 H  s               1.6       0.4       0.0       6.5       2.1       0.3
16 H  s               1.1       0.0       6.9       1.5       3.4       3.9
17 H  s               1.1       0.0       6.9       1.7       2.7       4.3

                     24        25        26        27        28        29   
                   0.02919   0.05075   0.07123   0.08317   0.09573   0.09982
                   0.00000   0.00000   0.00000   0.00000   0.00000   0.00000
                  --------  --------  --------  --------  --------  --------
 0 C  s               4.6       0.8       0.7       3.3       4.9       0.2
 0 C  pz              0.9       2.7       0.1       0.2       0.2       3.3
 0 C  px              0.6       0.8       0.9       4.2       1.4       3.0
 0 C  py              0.1       0.0       0.1       0.3       0.6       0.2
 0 C  dz2             0.0       0.5       0.1       0.0       0.0       0.0
 0 C  dxz             0.1       0.1       0.0       0.0       0.1       0.1
 0 C  dyz             0.0       0.0       0.1       0.0       0.3       0.1
 0 C  dx2y2           0.2       0.0       0.0       0.0       0.0       0.5
 1 C  s               4.6       0.8       0.7       3.3       4.9       0.2
 1 C  pz              0.9       2.7       0.1       0.2       0.2       3.3
 1 C  px              0.2       0.0       0.2       0.5       0.8       0.3
 1 C  py              0.6       0.8       0.9       4.0       1.2       2.8
 1 C  dz2             0.0       0.5       0.1       0.0       0.0       0.0
 1 C  dxz             0.0       0.0       0.1       0.0       0.3       0.1
 1 C  dyz             0.1       0.1       0.0       0.0       0.0       0.1
 1 C  dx2y2           0.1       0.0       0.0       0.0       0.0       0.4
 1 C  dxy             0.1       0.0       0.0       0.0       0.0       0.1
 2 C  s               2.6       0.0       8.2       0.0       0.0       1.2
 2 C  pz              0.0       4.2       0.0       0.8       1.4       0.0
 2 C  px              1.0       0.2       2.2       0.0       0.1       0.3
 2 C  py              1.2       0.1       2.7       0.0       0.1       0.3
 2 C  dz2             0.0       0.0       0.2       0.0       0.0       0.0
 2 C  dxz             0.2       0.3       0.0       0.0       0.1       0.2
 2 C  dyz             0.2       0.3       0.0       0.0       0.1       0.1
 2 C  dx2y2           0.0       0.0       0.0       0.0       0.3       0.0
 2 C  dxy             0.1       0.0       0.0       0.0       0.0       0.6
 3 C  s               4.6       0.8       0.7       3.3       4.9       0.2
 3 C  pz              0.9       2.7       0.0       0.2       0.2       3.2
 3 C  px              0.6       0.9       0.9       4.2       1.3       3.1
 3 C  py              0.1       0.0       0.1       0.3       0.6       0.1
 3 C  dz2             0.0       0.5       0.1       0.0       0.0       0.0
 3 C  dxz             0.1       0.1       0.0       0.0       0.1       0.1
 3 C  dyz             0.0       0.0       0.1       0.0       0.3       0.1
 3 C  dx2y2           0.2       0.0       0.0       0.0       0.0       0.5
 4 C  s               4.6       0.8       0.7       3.3       4.9       0.2
 4 C  pz              0.9       2.7       0.0       0.2       0.2       3.2
 4 C  px              0.2       0.0       0.2       0.5       0.8       0.3
 4 C  py              0.5       0.9       0.9       4.0       1.2       3.0
 4 C  dz2             0.0       0.5       0.1       0.0       0.0       0.0
 4 C  dxz             0.0       0.1       0.1       0.0       0.3       0.0
 4 C  dyz             0.1       0.1       0.0       0.0       0.0       0.1
 4 C  dx2y2           0.1       0.0       0.0       0.0       0.0       0.4
 4 C  dxy             0.1       0.0       0.0       0.0       0.0       0.1
 5 C  s               2.6       0.0       8.2       0.0       0.0       1.2
 5 C  pz              0.0       4.2       0.0       0.8       1.4       0.0
 5 C  px              1.0       0.2       2.2       0.0       0.1       0.3
 5 C  py              1.2       0.2       2.7       0.0       0.1       0.3
 5 C  dz2             0.0       0.0       0.2       0.0       0.0       0.0
 5 C  dxz             0.2       0.3       0.0       0.0       0.1       0.2
 5 C  dyz             0.2       0.3       0.0       0.0       0.1       0.2
 5 C  dx2y2           0.0       0.0       0.0       0.0       0.3       0.0
 5 C  dxy             0.1       0.0       0.0       0.0       0.0       0.6
 6 H  s               5.6       0.9       2.9      14.0      11.0       6.8
 7 H  s               5.6      10.6       0.1       1.7       3.7       9.0
 8 H  s               5.6      10.6       0.1       1.7       3.7       9.0
 9 H  s               5.6       0.9       2.9      14.0      11.0       6.7
10 H  s               4.5       5.9      13.3       0.8       1.8       0.5
11 H  s               4.5       5.9      13.4       0.8       1.8       0.5
12 H  s               5.6       0.9       2.9      14.1      11.0       6.7
13 H  s               5.6      10.6       0.1       1.7       3.7       9.0
14 H  s               5.6      10.6       0.1       1.7       3.7       9.0
15 H  s               5.6       0.9       2.9      14.0      11.0       6.7
16 H  s               4.5       5.9      13.4       0.8       1.8       0.5
17 H  s               4.5       5.9      13.4       0.8       1.8       0.5

                     30        31        32        33        34        35   
                   0.10649   0.11697   0.13486   0.13991   0.14873   0.16481
                   0.00000   0.00000   0.00000   0.00000   0.00000   0.00000
                  --------  --------  --------  --------  --------  --------
 0 C  s               1.1       2.3       0.7       3.4       4.0       1.2
 0 C  pz              1.2       0.1       3.9       5.0       0.2       1.4
 0 C  px              0.2       0.5       2.3       3.3       1.8       1.5
 0 C  py              0.0       1.0       0.5       0.4       0.2       1.4
 0 C  dz2             0.1       0.0       0.7       0.4       0.0       0.0
 0 C  dxz             0.0       0.0       0.2       0.9       0.0       0.1
 0 C  dyz             0.3       0.1       0.1       0.1       0.0       0.0
 0 C  dx2y2           0.0       0.2       0.0       0.3       0.0       0.9
 0 C  dxy             0.1       0.3       0.0       0.8       0.0       0.0
 1 C  s               1.1       2.3       0.7       3.4       4.0       1.2
 1 C  pz              1.2       0.1       3.9       5.0       0.2       1.4
 1 C  px              0.0       0.9       0.3       0.7       0.2       1.6
 1 C  py              0.2       0.5       2.5       3.1       1.7       1.3
 1 C  dz2             0.1       0.0       0.7       0.4       0.0       0.0
 1 C  dxz             0.3       0.1       0.1       0.2       0.0       0.0
 1 C  dyz             0.0       0.0       0.2       0.8       0.0       0.1
 1 C  dx2y2           0.0       0.2       0.0       0.2       0.0       0.9
 1 C  dxy             0.1       0.2       0.0       0.9       0.0       0.0
 2 C  s               0.0      10.3       0.7       0.0       3.1       0.0
 2 C  pz              7.5       0.0       0.0       0.3       0.0       5.7
 2 C  px              1.1       0.6       0.1       5.2       0.0       1.2
 2 C  py              0.8       0.8       0.1       4.3       0.0       1.1
 2 C  dxz             0.5       0.0       0.0       0.2       0.0       0.1
 2 C  dyz             0.6       0.0       0.0       0.3       0.0       0.1
 2 C  dx2y2           0.0       0.0       0.0       2.1       0.0       0.8
 2 C  dxy             0.0       0.2       0.2       0.0       0.2       0.0
 3 C  s               1.1       2.3       0.7       3.4       4.0       1.2
 3 C  pz              1.2       0.1       3.7       5.0       0.2       1.4
 3 C  px              0.2       0.5       2.4       3.2       1.7       1.6
 3 C  py              0.0       1.0       0.5       0.5       0.2       1.3
 3 C  dz2             0.1       0.0       0.7       0.4       0.0       0.0
 3 C  dxz             0.0       0.0       0.1       0.9       0.0       0.2
 3 C  dyz             0.3       0.1       0.1       0.1       0.0       0.0
 3 C  dx2y2           0.0       0.2       0.0       0.4       0.0       0.9
 3 C  dxy             0.1       0.2       0.0       0.7       0.0       0.0
 4 C  s               1.1       2.3       0.7       3.4       4.0       1.2
 4 C  pz              1.2       0.1       3.7       5.0       0.2       1.4
 4 C  px              0.0       1.0       0.4       0.7       0.2       1.5
 4 C  py              0.2       0.5       2.6       2.9       1.7       1.4
 4 C  dz2             0.1       0.0       0.7       0.4       0.0       0.0
 4 C  dxz             0.3       0.1       0.0       0.1       0.0       0.0
 4 C  dyz             0.0       0.0       0.2       0.9       0.0       0.2
 4 C  dx2y2           0.0       0.2       0.0       0.2       0.0       0.8
 4 C  dxy             0.1       0.2       0.0       0.9       0.0       0.0
 5 C  s               0.0      10.3       0.7       0.0       3.1       0.0
 5 C  pz              7.5       0.0       0.0       0.3       0.0       5.7
 5 C  px              1.0       0.6       0.1       5.1       0.0       1.3
 5 C  py              0.9       0.8       0.1       4.3       0.0       1.0
 5 C  dxz             0.5       0.0       0.0       0.2       0.0       0.1
 5 C  dyz             0.6       0.0       0.0       0.3       0.0       0.1
 5 C  dx2y2           0.0       0.0       0.0       2.1       0.0       0.8
 5 C  dxy             0.0       0.2       0.2       0.0       0.2       0.0
 6 H  s               0.2       4.2       3.3       1.1      10.8       3.0
 7 H  s               4.8       0.3      12.7       1.4       3.6       6.1
 8 H  s               4.8       0.3      12.7       1.4       3.6       6.1
 9 H  s               0.2       4.2       3.3       1.1      10.8       3.0
10 H  s              11.7      10.0       0.1       1.7       2.7       4.9
11 H  s              11.7      10.0       0.1       1.7       2.7       4.9
12 H  s               0.2       4.2       3.3       1.1      10.8       3.0
13 H  s               4.8       0.3      12.7       1.4       3.6       6.1
14 H  s               4.8       0.3      12.7       1.4       3.6       6.1
15 H  s               0.2       4.2       3.3       1.1      10.8       3.0
16 H  s              11.7      10.0       0.1       1.7       2.7       4.9
17 H  s              11.7      10.0       0.1       1.7       2.7       4.9

                     36        37        38        39        40        41   
                   0.17207   0.18655   0.20984   0.23244   0.25513   0.27551
                   0.00000   0.00000   0.00000   0.00000   0.00000   0.00000
                  --------  --------  --------  --------  --------  --------
 0 C  s               0.5       0.8       0.4       0.6       2.3       0.1
 0 C  pz              1.9       0.3       1.9       2.3       5.8       1.4
 0 C  px              0.9       4.9       0.8       0.5       3.0       2.1
 0 C  py             11.5       0.0       5.3       5.1       0.3      11.3
 0 C  dz2             0.0       0.0       0.0       0.1       0.7       0.5
 0 C  dxz             0.1       0.4       0.0       0.1       1.9       0.6
 0 C  dyz             1.5       0.1       0.1       0.0       0.0       1.7
 0 C  dx2y2           0.0       0.1       0.9       1.4       0.2       0.2
 0 C  dxy             1.6       0.1       1.4       0.0       0.0       0.5
 1 C  s               0.5       0.8       0.4       0.6       2.3       0.1
 1 C  pz              1.9       0.3       1.9       2.3       5.8       1.4
 1 C  px             10.8       0.1       5.5       5.1       0.5      10.3
 1 C  py              1.5       4.8       0.6       0.5       2.8       3.1
 1 C  dz2             0.0       0.0       0.0       0.1       0.7       0.5
 1 C  dxz             1.4       0.1       0.1       0.0       0.0       1.5
 1 C  dyz             0.2       0.5       0.0       0.0       1.9       0.8
 1 C  dx2y2           0.1       0.0       1.3       1.4       0.2       0.3
 1 C  dxy             1.5       0.1       1.0       0.0       0.0       0.4
 2 C  s               1.5       0.0       2.2       0.0       2.2       0.0
 2 C  pz              0.0       6.6       0.0       1.5       0.0       1.3
 2 C  px              2.1       0.4       6.6       6.9       3.9       4.6
 2 C  py              2.5       0.3       7.9       5.8       4.7       3.9
 2 C  dz2             0.1       0.0       2.0       0.0       2.0       0.0
 2 C  dxz             1.1       0.0       0.2       0.0       0.0       0.1
 2 C  dyz             1.0       0.0       0.1       0.0       0.0       0.1
 2 C  dx2y2           0.0       0.6       0.0       3.1       0.0       0.6
 2 C  dxy             0.5       0.0       0.1       0.0       0.0       0.0
 3 C  s               0.5       0.8       0.4       0.6       2.3       0.1
 3 C  pz              2.2       0.3       1.8       2.1       5.9       1.6
 3 C  px              0.8       4.9       0.8       0.5       2.8       2.0
 3 C  py             11.2       0.0       5.4       5.3       0.4      11.1
 3 C  dz2             0.0       0.0       0.0       0.1       0.6       0.6
 3 C  dxz             0.2       0.4       0.0       0.0       2.0       0.6
 3 C  dyz             1.5       0.1       0.1       0.0       0.0       1.6
 3 C  dx2y2           0.0       0.1       0.9       1.4       0.2       0.2
 3 C  dxy             1.5       0.1       1.4       0.0       0.0       0.4
 4 C  s               0.5       0.8       0.4       0.6       2.3       0.1
 4 C  pz              2.2       0.3       1.8       2.1       5.9       1.6
 4 C  px             10.6       0.1       5.6       5.2       0.5      10.1
 4 C  py              1.5       4.8       0.6       0.5       2.6       3.0
 4 C  dz2             0.0       0.0       0.0       0.1       0.6       0.6
 4 C  dxz             1.4       0.1       0.1       0.0       0.0       1.4
 4 C  dyz             0.3       0.5       0.0       0.0       2.0       0.8
 4 C  dx2y2           0.1       0.0       1.4       1.4       0.2       0.3
 4 C  dxy             1.4       0.1       1.0       0.0       0.0       0.3
 5 C  s               1.5       0.0       2.2       0.0       2.2       0.0
 5 C  pz              0.0       6.6       0.0       1.5       0.0       1.3
 5 C  px              2.1       0.3       6.6       7.0       3.9       4.7
 5 C  py              2.5       0.3       7.9       5.7       4.7       3.8
 5 C  dz2             0.1       0.0       2.0       0.0       2.0       0.0
 5 C  dxz             1.1       0.0       0.2       0.0       0.0       0.1
 5 C  dyz             0.9       0.0       0.2       0.0       0.0       0.1
 5 C  dx2y2           0.0       0.6       0.0       3.1       0.0       0.6
 5 C  dxy             0.5       0.0       0.1       0.0       0.0       0.0
 6 H  s               0.8       4.6       0.5       2.3       0.2       0.3
 7 H  s               0.4       2.0       1.4       3.2       3.9       0.6
 8 H  s               0.4       2.0       1.4       3.2       3.9       0.6
 9 H  s               0.8       4.6       0.5       2.3       0.2       0.3
10 H  s               1.4       7.7       2.8       0.8       0.4       0.4
11 H  s               1.4       7.7       2.8       0.8       0.4       0.4
12 H  s               0.8       4.6       0.5       2.3       0.2       0.3
13 H  s               0.4       2.0       1.4       3.2       3.9       0.6
14 H  s               0.4       2.0       1.4       3.2       3.9       0.6
15 H  s               0.8       4.6       0.5       2.3       0.2       0.3
16 H  s               1.4       7.7       2.8       0.8       0.4       0.4
17 H  s               1.4       7.7       2.8       0.8       0.4       0.4

                     42        43        44        45        46        47   
                   0.39039   0.41045   0.41141   0.43487   0.44677   0.44774
                   0.00000   0.00000   0.00000   0.00000   0.00000   0.00000
                  --------  --------  --------  --------  --------  --------
 0 C  s               0.2       1.0       0.2       1.0       1.1       0.5
 0 C  pz              1.3       0.3       2.8       2.5       2.6       2.9
 0 C  px              3.1       2.5       1.4       0.2       4.2       0.3
 0 C  py              0.2       0.7       9.2       3.1       7.0       3.7
 0 C  dz2             2.1       0.1       0.1       2.0       0.3       0.6
 0 C  dxz             0.1       0.1       0.4       0.0       1.0       0.4
 0 C  dyz             0.3       0.0       0.9       0.3       0.2       0.1
 0 C  dx2y2           0.2       2.9       0.2       0.0       0.1       0.5
 0 C  dxy             0.0       0.4       0.5       0.0       0.1       0.6
 1 C  s               0.2       1.0       0.2       1.0       1.1       0.5
 1 C  pz              1.3       0.3       2.8       2.5       2.6       3.0
 1 C  px              0.2       1.0       8.5       3.0       8.0       3.9
 1 C  py              3.1       2.2       2.1       0.3       3.2       0.1
 1 C  dz2             2.1       0.1       0.1       2.0       0.3       0.6
 1 C  dxz             0.3       0.0       0.8       0.3       0.3       0.1
 1 C  dyz             0.1       0.1       0.5       0.0       0.9       0.4
 1 C  dx2y2           0.2       2.4       0.3       0.0       0.1       0.8
 1 C  dxy             0.0       0.8       0.3       0.0       0.1       0.4
 2 C  s               0.0       2.8       0.0       0.7       0.0       0.0
 2 C  pz              3.5       0.0       3.0       0.0       3.5       1.0
 2 C  px              0.7       2.9       3.1       7.4       3.4       7.2
 2 C  py              0.5       3.5       2.6       8.9       2.9       5.9
 2 C  dz2             0.0       0.9       0.0       2.3       0.0       0.0
 2 C  dxz             1.4       0.3       0.3       0.7       0.1       1.4
 2 C  dyz             1.8       0.3       0.4       0.5       0.1       1.7
 2 C  dx2y2           0.4       0.0       1.2       0.0       2.8       0.4
 2 C  dxy             0.0       0.9       0.0       0.0       0.0       0.0
 3 C  s               0.2       1.0       0.2       1.0       1.1       0.5
 3 C  pz              1.3       0.3       3.2       2.4       2.6       2.8
 3 C  px              3.1       2.4       1.3       0.2       4.0       0.3
 3 C  py              0.2       0.8       8.9       3.2       7.2       3.9
 3 C  dz2             2.1       0.2       0.1       2.1       0.3       0.6
 3 C  dxz             0.1       0.1       0.4       0.0       1.0       0.3
 3 C  dyz             0.4       0.0       0.9       0.2       0.2       0.1
 3 C  dx2y2           0.2       2.9       0.2       0.0       0.1       0.5
 3 C  dxy             0.0       0.4       0.4       0.0       0.1       0.7
 4 C  s               0.2       1.0       0.2       1.0       1.1       0.5
 4 C  pz              1.3       0.3       3.2       2.4       2.6       2.8
 4 C  px              0.2       1.0       8.2       3.1       8.2       4.0
 4 C  py              3.2       2.2       2.0       0.3       3.1       0.1
 4 C  dz2             2.1       0.2       0.1       2.1       0.3       0.6
 4 C  dxz             0.4       0.0       0.8       0.2       0.2       0.1
 4 C  dyz             0.0       0.1       0.5       0.0       0.9       0.4
 4 C  dx2y2           0.2       2.5       0.3       0.0       0.2       0.8
 4 C  dxy             0.0       0.8       0.3       0.0       0.1       0.4
 5 C  s               0.0       2.8       0.0       0.7       0.0       0.0
 5 C  pz              3.5       0.0       3.0       0.0       3.5       1.0
 5 C  px              0.6       2.9       3.1       7.4       3.6       7.2
 5 C  py              0.6       3.5       2.5       8.9       2.8       6.0
 5 C  dz2             0.0       0.9       0.0       2.3       0.0       0.0
 5 C  dxz             1.5       0.3       0.4       0.6       0.0       1.4
 5 C  dyz             1.7       0.3       0.4       0.6       0.1       1.7
 5 C  dx2y2           0.4       0.0       1.2       0.0       2.8       0.4
 5 C  dxy             0.0       0.9       0.0       0.0       0.0       0.0
 6 H  s               3.0       8.4       0.1       0.3       0.2       0.1
 7 H  s               4.6       0.1       1.5       3.8       1.8       2.6
 8 H  s               4.6       0.1       1.5       3.8       1.8       2.6
 9 H  s               2.9       8.4       0.1       0.3       0.2       0.1
10 H  s               5.8       2.7       2.6       1.5       0.0       3.7
11 H  s               5.8       2.6       2.6       1.5       0.0       3.7
12 H  s               3.0       8.4       0.0       0.3       0.2       0.1
13 H  s               4.6       0.1       1.5       3.8       1.8       2.6
14 H  s               4.6       0.1       1.5       3.8       1.8       2.6
15 H  s               2.9       8.4       0.0       0.3       0.2       0.1
16 H  s               5.8       2.6       2.6       1.5       0.0       3.7
17 H  s               5.8       2.7       2.6       1.5       0.0       3.7

                     48        49        50        51        52        53   
                   0.47695   0.54945   0.56996   0.57882   0.60344   0.60628
                   0.00000   0.00000   0.00000   0.00000   0.00000   0.00000
                  --------  --------  --------  --------  --------  --------
 0 C  s               0.5       2.9       4.2       3.6       2.1       0.3
 0 C  pz             10.0       0.7       2.6       2.6       8.1       0.7
[...]
 5 C  dz2             1.3       0.0       9.1       0.4       0.0       0.0
 5 C  dxz             1.8       1.8       0.0       1.6       8.4       7.1
 5 C  dyz             1.7       2.0       0.0       1.5      10.0       8.4
 5 C  dx2y2           0.0       8.0       0.0       0.0       0.8       1.0
 5 C  dxy             7.0       0.1       2.8       5.5       0.0       0.0
 6 H  s               1.1       0.3       0.6       0.5       0.7       0.8
 7 H  s               0.9       0.7       0.1       1.8       1.0       0.8
 8 H  s               0.9       0.7       0.1       1.8       1.0       0.8
 9 H  s               1.1       0.3       0.6       0.5       0.7       0.8
10 H  s               0.1       0.4       0.1       0.0       1.7       1.2
11 H  s               0.1       0.4       0.1       0.0       1.7       1.2
12 H  s               1.1       0.3       0.6       0.5       0.7       0.8
13 H  s               0.9       0.7       0.1       1.8       1.0       0.8
14 H  s               0.9       0.7       0.1       1.8       1.0       0.8
15 H  s               1.1       0.3       0.6       0.5       0.7       0.8
16 H  s               0.1       0.4       0.1       0.0       1.6       1.2
17 H  s               0.1       0.4       0.1       0.0       1.7       1.2

                    102       103       104       105       106       107   
                   2.37205   2.52928   2.54894   2.60134   2.61006   2.69082
                   0.00000   0.00000   0.00000   0.00000   0.00000   0.00000
                  --------  --------  --------  --------  --------  --------
 0 C  s               0.9       0.2       0.4       0.8       0.4       0.0
 0 C  pz              0.4       0.0       0.1       0.1       0.2       0.1
 0 C  px              0.9       0.0       0.9       0.5       0.1       0.2
 0 C  py              0.0       0.3       1.5       1.1       0.1       2.1
 0 C  dz2             0.4       6.2       0.3       0.7       0.7       0.1
 0 C  dxz             3.5       0.1       2.9       0.7       0.1       1.6
 0 C  dyz             2.5       2.1       3.6       2.1       4.4       4.1
 0 C  dx2y2          10.1       3.2       4.2       4.4       7.8       2.4
 0 C  dxy             1.8       1.8       5.5       1.7       4.2       6.4
 1 C  s               0.9       0.2       0.4       0.8       0.4       0.0
 1 C  pz              0.4       0.0       0.1       0.1       0.2       0.1
 1 C  px              0.1       0.3       1.3       1.2       0.1       2.0
 1 C  py              0.9       0.0       1.1       0.4       0.1       0.4
 1 C  dz2             0.4       6.2       0.3       0.7       0.7       0.1
 1 C  dxz             2.0       2.0       2.9       2.3       4.3       3.6
 1 C  dyz             4.0       0.3       3.6       0.5       0.3       2.2
 1 C  dx2y2           8.2       2.3       6.1       5.4       5.5       3.9
 1 C  dxy             3.6       2.7       3.7       0.8       6.4       4.9
 2 C  s               0.0       0.7       1.1       0.0       0.0       0.0
 2 C  pz              0.8       0.0       0.0       0.3       0.0       0.1
 2 C  px              0.3       0.2       0.5       1.3       0.0       1.1
 2 C  py              0.3       0.2       0.7       1.1       0.0       0.9
 2 C  dz2             0.0       3.6       4.0       0.0       0.0       0.0
 2 C  dxz             0.1       2.9       1.4       0.5       3.4       0.9
 2 C  dyz             0.0       2.4       1.1       0.5       3.0       0.9
 2 C  dx2y2           5.1       0.1       0.0      21.1       0.0      11.7
 2 C  dxy             0.0      10.7       1.8       0.2       6.2       0.1
 3 C  s               0.9       0.2       0.4       0.8       0.4       0.0
 3 C  pz              0.4       0.0       0.1       0.1       0.2       0.1
 3 C  px              0.9       0.0       0.9       0.5       0.1       0.2
 3 C  py              0.0       0.3       1.5       1.1       0.1       2.1
 3 C  dz2             0.3       6.6       0.5       0.8       0.5       0.2
 3 C  dxz             3.4       0.1       3.2       0.6       0.1       1.9
 3 C  dyz             2.9       1.6       3.5       2.0       5.1       4.1
 3 C  dx2y2          10.1       3.3       4.3       4.6       7.5       2.4
 3 C  dxy             1.6       1.9       5.1       1.7       4.0       6.0
 4 C  s               0.9       0.2       0.4       0.8       0.4       0.0
 4 C  pz              0.4       0.0       0.1       0.1       0.2       0.1
 4 C  px              0.1       0.3       1.3       1.2       0.1       1.9
 4 C  py              0.9       0.0       1.1       0.4       0.1       0.3
 4 C  dz2             0.3       6.6       0.5       0.8       0.5       0.2
 4 C  dxz             2.4       1.5       2.8       2.1       4.9       3.6
 4 C  dyz             4.0       0.2       3.8       0.4       0.3       2.4
 4 C  dx2y2           8.3       2.3       6.0       5.6       5.4       4.0
 4 C  dxy             3.3       2.8       3.4       0.8       6.1       4.5
 5 C  s               0.0       0.7       1.1       0.0       0.0       0.0
 5 C  pz              0.8       0.0       0.0       0.3       0.0       0.1
 5 C  px              0.3       0.2       0.5       1.3       0.0       1.1
 5 C  py              0.2       0.2       0.7       1.1       0.0       0.9
 5 C  dz2             0.0       3.6       4.0       0.0       0.0       0.0
 5 C  dxz             0.0       2.9       1.3       0.4       3.6       0.7
 5 C  dyz             0.1       2.4       1.2       0.6       2.8       1.1
 5 C  dx2y2           5.1       0.1       0.0      21.1       0.1      11.6
 5 C  dxy             0.0      10.6       1.8       0.2       6.2       0.1
 6 H  s               0.9       0.0       0.0       0.2       0.3       0.0
 7 H  s               0.1       0.3       0.0       0.0       0.2       0.0
 8 H  s               0.1       0.3       0.0       0.0       0.2       0.0
 9 H  s               0.9       0.0       0.0       0.2       0.3       0.0
10 H  s               0.1       0.4       0.2       0.0       0.1       0.0
11 H  s               0.1       0.4       0.2       0.0       0.1       0.0
12 H  s               0.9       0.0       0.0       0.2       0.3       0.0
13 H  s               0.1       0.3       0.0       0.0       0.2       0.0
14 H  s               0.1       0.3       0.0       0.0       0.2       0.0
15 H  s               0.9       0.0       0.0       0.2       0.3       0.0
16 H  s               0.1       0.4       0.2       0.0       0.1       0.0
17 H  s               0.1       0.4       0.2       0.0       0.1       0.0



                      *****************************
                      * MAYER POPULATION ANALYSIS *
                      *****************************

  NA   - Mulliken gross atomic population
  ZA   - Total nuclear charge
  QA   - Mulliken gross atomic charge
  VA   - Mayer's total valence
  BVA  - Mayer's bonded valence
  FA   - Mayer's free valence

  ATOM       NA         ZA         QA         VA         BVA        FA
  0 C      6.1605     6.0000    -0.1605     4.2037     4.2037    -0.0000
  1 C      6.1609     6.0000    -0.1609     4.2031     4.2031     0.0000
  2 C      6.1596     6.0000    -0.1596     4.1514     4.1514    -0.0000
  3 C      6.1603     6.0000    -0.1603     4.2037     4.2037     0.0000
  4 C      6.1607     6.0000    -0.1607     4.2032     4.2032    -0.0000
  5 C      6.1596     6.0000    -0.1596     4.1514     4.1514    -0.0000
  6 H      0.9161     1.0000     0.0839     0.9444     0.9444    -0.0000
  7 H      0.9237     1.0000     0.0763     0.9452     0.9452     0.0000
  8 H      0.9237     1.0000     0.0763     0.9452     0.9452     0.0000
  9 H      0.9160     1.0000     0.0840     0.9444     0.9444     0.0000
 10 H      0.9197     1.0000     0.0803     0.9443     0.9443    -0.0000
 11 H      0.9199     1.0000     0.0801     0.9443     0.9443    -0.0000
 12 H      0.9161     1.0000     0.0839     0.9444     0.9444    -0.0000
 13 H      0.9238     1.0000     0.0762     0.9452     0.9452     0.0000
 14 H      0.9238     1.0000     0.0762     0.9452     0.9452     0.0000
 15 H      0.9160     1.0000     0.0840     0.9444     0.9444    -0.0000
 16 H      0.9197     1.0000     0.0803     0.9443     0.9443    -0.0000
 17 H      0.9199     1.0000     0.0801     0.9443     0.9443    -0.0000

  Mayer bond orders larger than 0.100000
B(  0-C ,  1-C ) :   1.1836 B(  0-C ,  5-C ) :   1.1418 B(  0-C ,  6-H ) :   0.9236 
B(  0-C ,  7-H ) :   0.9110 B(  1-C ,  2-C ) :   1.1413 B(  1-C ,  8-H ) :   0.9111 
B(  1-C ,  9-H ) :   0.9236 B(  2-C ,  3-C ) :   1.1419 B(  2-C , 10-H ) :   0.9228 
B(  2-C , 11-H ) :   0.9227 B(  3-C ,  4-C ) :   1.1836 B(  3-C , 12-H ) :   0.9236 
B(  3-C , 13-H ) :   0.9110 B(  4-C ,  5-C ) :   1.1414 B(  4-C , 14-H ) :   0.9111 
B(  4-C , 15-H ) :   0.9236 B(  5-C , 16-H ) :   0.9227 B(  5-C , 17-H ) :   0.9227 


-------
TIMINGS
-------

Total SCF time: 0 days 0 hours 0 min 0 sec 

Total time                  ....       0.664 sec
Sum of individual times     ....       0.656 sec  ( 98.8%)

SCF preparation             ....       0.024 sec  (  3.6%)
Fock matrix formation       ....       0.588 sec  ( 88.7%)
  Startup                   ....       0.001 sec  (  0.1% of F)
  Split-RI-J                ....       0.238 sec  ( 40.4% of F)
  XC integration            ....       0.341 sec  ( 58.0% of F)
    Basis function eval.    ....       0.149 sec  ( 43.6% of XC)
    Density eval.           ....       0.072 sec  ( 21.1% of XC)
    XC-Functional eval.     ....       0.027 sec  (  7.8% of XC)
    XC-Potential eval.      ....       0.080 sec  ( 23.4% of XC)
Diagonalization             ....       0.000 sec  (  0.0%)
Density matrix formation    ....       0.001 sec  (  0.1%)
Total Energy calculation    ....       0.000 sec  (  0.0%)
Population analysis         ....       0.030 sec  (  4.6%)
Orbital Transformation      ....       0.001 sec  (  0.2%)
Orbital Orthonormalization  ....       0.000 sec  (  0.0%)
DIIS solution               ....       0.001 sec  (  0.2%)
  MO trafo                  ....       0.000 sec  (  0.1 % of DIIS)
  Orb grad                  ....       0.000 sec  (  0.0 % of DIIS)
  Energy W gradient         ....       0.000 sec  (  0.0 % of DIIS)
  DIIS error                ....       0.000 sec  ( 10.0 % of DIIS)
  DIIS work                 ....       0.001 sec  ( 87.9 % of DIIS)
  Form Q                    ....       0.000 sec  (  0.0 % of DIIS)
  Form QpQm                 ....       0.000 sec  (  0.0 % of DIIS)
  Exp/Cayley                ....       0.000 sec  (  0.0 % of DIIS)
  Orb update                ....       0.000 sec  (  0.0 % of DIIS)
  Wake-sleep                ....       0.000 sec  (  2.0 % of DIIS)
SOSCF solution              ....       0.009 sec  (  1.3%)
  MO trafo                  ....       0.008 sec  ( 88.5 % of SOSCF)
  Orb grad                  ....       0.000 sec  (  0.4 % of SOSCF)
  Rot update                ....       0.000 sec  (  1.4 % of SOSCF)
  Step                      ....       0.001 sec  (  9.0 % of SOSCF)
Finished LeanSCF after   0.7 sec

Maximum memory used throughout the entire LEANSCF-calculation: 11.1 MB


-------------------------------------------------------------------------------
                          DFT DISPERSION CORRECTION                            
                                                                               
                                DFTD4 V3.4.0                                   
-------------------------------------------------------------------------------
The PBE functional is recognized
Active option DFTDOPT                   ...         5   

-------------------------   ----------------
Dispersion correction           -0.014901263
-------------------------   ----------------

------------------   -----------------
gCP correction             0.076473999
------------------   -----------------

-------------------------   --------------------
FINAL SINGLE POINT ENERGY      -235.267095899916
-------------------------   --------------------


------------------------------------------------------------------------------
                              ORCA PROPERTY CALCULATIONS
------------------------------------------------------------------------------

GBWName                                 ... sp.gbw
Number of atoms                         ...     18
Number of basis functions               ...    108
Max core memory                         ...   1024 MB

Electric properties:
Dipole moment                           ... YES
Quadrupole moment                       ...  NO
Static polarizability (Dipole/Dipole)   ...  NO
Static polarizability (Dipole/Quad.)    ...  NO
Static polarizability (Quad./Quad.)     ...  NO
Static polarizability (Velocity)        ...  NO

Atomic electric properties:
Dipole moment                           ...  NO
Quadrupole moment                       ...  NO
Static polarizability                   ...  NO

Choice of electric origin               ... Center of mass
Position of electric origin             ...    -0.000000     0.000000     0.000000

General magnetic properties:
Magnetizability                         ...  NO

EPR properties:
g-Tensor (aka g-matrix)                 ...  NO
Zero-Field splitting spin-orbit         ...  NO
Zero-field splitting spin-spin          ...  NO
Hyperfine couplings                     ...  NO (   0 nuclei)
Quadrupole couplings                    ...  NO (   0 nuclei)
Contact density                         ...  NO (   0 nuclei)

NMR properties:
Chemical shifts                         ...  NO (   0 nuclei)
Spin-rotation constants                 ...  NO (   0 nuclei)
Spin-spin couplings                     ...  NO (   0 nuclei,    0 pairs)

Choice of magnetic origin               ... GIAO
Position of magnetic origin             ...     0.000000     0.000000     0.000000

Properties with geometric perturbations:
SCF Hessian                             ...  NO
IR spectrum                             ...  NO
VCD spectrum                            ...  NO
X-ray spectroscopy properties:
SCF XES/XAS/RIXS spectra                ...  NO


-------------
DIPOLE MOMENT
-------------

Method             : SCF
Type of density    : Electron Density
Multiplicity       :   1
Irrep              :   0
Energy             :  -235.3286686361284978 Eh
Relativity type    : 
Basis              : AO
                                X                 Y                 Z
Electronic contribution:      0.000061337      -0.000038040       0.000163222
Nuclear contribution   :     -0.000093082       0.000005849       0.000113334
                        -----------------------------------------
Total Dipole Moment    :     -0.000031745      -0.000032191       0.000276556
                        -----------------------------------------
Magnitude (a.u.)       :      0.000280227
Magnitude (Debye)      :      0.000712282



--------------------
Rotational spectrum 
--------------------
 
Rotational constants in cm-1:             0.149407             0.140354             0.086589 
Rotational constants in MHz :          4479.102906          4207.715778          2595.871467 

Dipole components along the rotational axes: 
x,y,z [a.u.] :     0.000002    -0.000045     0.000277 
x,y,z [Debye]:     0.000005    -0.000115     0.000703 

 

Dipole moment calculation done in   0.0 sec 

Maximum memory used throughout the entire PROP-calculation: 7.1 MB

--------------------------------
SUGGESTED CITATIONS FOR THIS RUN
--------------------------------

Below you find a list of papers that are relevant to this ORCA run
We neither can nor want to force you to cite these papers, but we appreciate if you do
You receive ORCA, which is the product of decades of hard work by many enthusiastic individuals, for free
The only thing we kindly ask in return is that you cite our papers,
We deeply appreciate it, if you show your appreciation for ORCA by not just citing the generic ORCA reference.

Please note that relegating all ORCA citations to the supporting information does *not* help us.
SI sections are not indexed - citations you put there will not count into any citation statistics
But we need these citations in order to attract the funding resources that allow us to do what we are doing

Therefore, if you are a happy ORCA user, please consider citing a few of the papers listed below in the main body of your paper

In addition to the list printed below, the program has created the file sp.bibtex that contains the list in bibtex format
You can import this file easily into all common literature databanks and citation aid programs


List of essential papers. We consider these as the minimum necessary citations

  1. Neese,F.
     Software update: the ORCA program system, version 5.0
     WIRES Comput. Molec. Sci., 2022 12(1)e1606
     doi.org/10.1002/wcms.1606

List of papers to cite with high priority. The work reported in these papers was absolutely
necessary for this run to complete.
Our perspective: the developers of density functionals and basis sets usually get cited in chemistry papers
Good! But without the algorithms to do something with them, the functionals or basis sets would not do anything.
Hence, in our opinion, the algorithm design and method developments papers are equally worthy of getting cited

  1. Neese,F.
     An improvement of the resolution of the identity approximation for the formation of the Coulomb matrix
     J. Comp. Chem., 2003 24(14)1740-1747
     doi.org/10.1002/jcc.10318
  2. Neese,F.
     The SHARK Integral Generation and Digestion System
     J. Comp. Chem., 2022  1-16
     doi.org/10.1002/jcc.26942
  3. Caldeweyher,E.; Bannwarth,C.; Grimme,S.
     Extension of the D3 dispersion coefficient model
     J. Chem. Phys., 2017 147 034112
     doi.org/10.1063/1.4993215
  4. Caldeweyher,E.; Ehlert,S.; Hansen,A.; Neugebauer,H.; Spicher,S.; Bannwarth,C.; Grimme,S.
     A generally applicable atomic-charge dependent London dispersion correction
     J. Chem. Phys., 2019 150 154122
     doi.org/10.1063/1.5090222
  5. Caldeweyher,E.; Mewes,J.; Ehlert,S.; Grimme,S.
     Extension and evaluation of the D4 London-dispersion model for periodic systems
     Phys. Chem. Chem. Phys., 2020 22(16)8499-8512
     doi.org/10.1039/D0CP00502A
  6. Wittmann,L.; Gordiy,I.; Friede,M.; Helmich-Paris,B.; Grimme,S.; Hansen,A.; Bursch,M.
     Extension of the D3 and D4 London Dispersion Corrections to the full Actinides Series
     Phys. Chem. Chem. Phys., 2024 26(32)21379-21394
     doi.org/https://doi.org/10.1039/D4CP01514B 

List of suggested additional citations. These are papers that are important in the 'surrounding' of 
of this run, or papers that preceded the highly important papers. If you like your results we are grateful for a citation.

  1. Neese,F.
     The ORCA program system
     WIRES Comput. Molec. Sci., 2012 2(1)73-78
     doi.org/10.1002/wcms.81
  2. Neese,F.
     Software update: the ORCA program system, version 4.0
     WIRES Comput. Molec. Sci., 2018 8(1)1-6
     doi.org/10.1002/wcms.1327
  3. Neese,F.; Wennmohs,F.; Becker,U.; Riplinger,C.
     The ORCA quantum chemistry program package
     J. Chem. Phys., 2020 152 Art. No. L224108
     doi.org/10.1063/5.0004608

List of optional additional citations

  1. Neese,F.
     Approximate second-order SCF convergence for spin unrestricted wavefunctions
     Chem. Phys. Lett., 2000 325(1-3)93-98
     doi.org/10.1016/s0009-2614(00)00662-x

Timings for individual modules:

Sum of individual times          ...        0.961 sec (=   0.016 min)
Startup calculation              ...        0.209 sec (=   0.003 min)  21.7 %
SCF iterations                   ...        0.720 sec (=   0.012 min)  74.9 %
Property calculations            ...        0.032 sec (=   0.001 min)   3.4 %
                             ****ORCA TERMINATED NORMALLY****
TOTAL RUN TIME: 0 days 0 hours 0 minutes 1 seconds 27 msec
