10
 energy: -135.125245410748 gnorm: 0.017684102289 xtb: 6.7.1 (41059b4)
C           -1.27452680506478        0.26468479441729        0.00000340420000
C            0.01258651650558       -0.56535651045052       -0.00000492040000
N            1.23849138644881        0.21294952369436       -0.00000429250000
H           -2.14524765925062       -0.38590602377101        0.00059149640026
H           -1.31758484458386        0.90025528119893        0.88342018549147
H           -1.31815425168411        0.89949713909859       -0.88392043919169
H            0.03373149691495       -1.20791793593526       -0.88458511389198
H            0.03380223751498       -1.20808934303534        0.88446542879193
H            1.27027893156289        0.81300299966026       -0.81821846226257
H            1.27032708376292        0.81287837856021        0.81832462566262
10
 energy: -135.125724796936 gnorm: 0.006350014676 xtb: 6.7.1 (41059b4)
C           -1.27892623790635        0.25960301473779        0.00002703535251
C            0.01554407857339       -0.56053162264166       -0.00002255741818
N            1.25558518657161        0.21489026528483       -0.00001283991823
H           -2.16226323234210       -0.38595295486266        0.00053812954922
H           -1.32573101589321        0.90116390011695        0.88499232652338
H           -1.32623622008711        0.90047391498361       -0.88540629551911
H            0.02922852897961       -1.21737492882277       -0.87747051110878
H            0.02926077427628       -1.21744570219758        0.87737179113423
H            1.28360299961589        0.82063728979902       -0.81278381360815
H            1.28363932605277        0.82053515597306        0.81283859338669
10
 energy: -135.125778514129 gnorm: 0.002481282476 xtb: 6.7.1 (41059b4)
C           -1.27637966325388        0.26098339186337        0.00002701643994
C            0.01496660079648       -0.56286877809695       -0.00001041476301
N            1.25968816062241        0.21397304058753       -0.00002691945294
H           -2.16215723824259       -0.38504364318558        0.00046551477025
H           -1.32848950440702        0.90455520239013        0.88560395220247
H           -1.32894272189644        0.90397329508914       -0.88594512800117
H            0.02979531045446       -1.22367168074834       -0.87592851745933
H            0.02983611726277       -1.22369358423090        0.87588691544582
H            1.28266841386324        0.82393252258710       -0.81025427256690
H            1.28271869882874        0.82385855812617        0.81025372068310
10
 energy: -135.125787655068 gnorm: 0.001065773675 xtb: 6.7.1 (41059b4)
C           -1.27531720069312        0.26093819834218        0.00002978815496
C            0.01427418631895       -0.56321145028338       -0.00000170768890
N            1.26161669699741        0.21257745143651       -0.00004025776432
H           -2.16177807058127       -0.38449712767012        0.00040744601977
H           -1.32781004882256        0.90448521450537        0.88570428631171
H           -1.32820314157454        0.90398612653845       -0.88598379603874
H            0.02974303366733       -1.22377127570192       -0.87619501295001
H            0.02979374738080       -1.22375826129433        0.87619788889041
H            1.28066068514568        0.82464852252709       -0.80932398005207
H            1.28072427437727        0.82460092217937        0.80927722324103
10
 energy: -135.125790019527 gnorm: 0.000639378649 xtb: 6.7.1 (41059b4)
C           -1.27363102689375        0.26099681852655        0.00003611329934
C            0.01337688459268       -0.56443699626722        0.00001417497573
N            1.26241034256233        0.21143754375856       -0.00006310610550
H           -2.16042577756657       -0.38327685667217        0.00030760027157
H           -1.32533468421124        0.90406054968039        0.88565998421862
H           -1.32561393658775        0.90369992706542       -0.88583281927256
H            0.02969914417998       -1.22367344247385       -0.87680468059179
H            0.02977046768660       -1.22360577884651        0.87688224167782
H            1.27668205785723        0.82539802303208       -0.80868077891018
H            1.27677066001165        0.82539852342338        0.80855317387166
10
 energy: -135.125790019527 gnorm: 0.000639378649 xtb: 6.7.1 (41059b4)
C           -1.27363102689375        0.26099681852655        0.00003611329934
C            0.01337688459268       -0.56443699626722        0.00001417497573
N            1.26241034256233        0.21143754375856       -0.00006310610550
H           -2.16042577756657       -0.38327685667217        0.00030760027157
H           -1.32533468421124        0.90406054968039        0.88565998421862
H           -1.32561393658775        0.90369992706542       -0.88583281927256
H            0.02969914417998       -1.22367344247385       -0.87680468059179
H            0.02977046768660       -1.22360577884651        0.87688224167782
H            1.27668205785723        0.82539802303208       -0.80868077891018
H            1.27677066001165        0.82539852342338        0.80855317387166
