
                                 *****************
                                 * O   R   C   A *
                                 *****************

                                            #,                                       
                                            ###                                      
                                            ####                                     
                                            #####                                    
                                            ######                                   
                                           ########,                                 
                                     ,,################,,,,,                         
                               ,,#################################,,                 
                          ,,##########################################,,             
                       ,#########################################, ''#####,          
                    ,#############################################,,   '####,        
                  ,##################################################,,,,####,       
                ,###########''''           ''''###############################       
              ,#####''   ,,,,##########,,,,          '''####'''          '####       
            ,##' ,,,,###########################,,,                        '##       
           ' ,,###''''                  '''############,,,                           
         ,,##''                                '''############,,,,        ,,,,,,###''
      ,#''                                            '''#######################'''  
     '                                                          ''''####''''         
             ,#######,   #######,   ,#######,      ##                                
            ,#'     '#,  ##    ##  ,#'     '#,    #''#        ,####,   ,####,        
            ##       ##  ##   ,#'  ##            #'  '#       #'       #'  '#        
            ##       ##  #######   ##           ,######,      #####,   #    #        
            '#,     ,#'  ##    ##  '#,     ,#' ,#      #,     #,   #   #,  ,#        
             '#######'   ##     ##  '#######'  #'      '#     '####' # '####'        



                #########################################################
                #                        -***-                          #
                #          Department of theory and spectroscopy        #
                #                                                       #
                #                      Frank Neese                      #
                #                                                       #
                #     Directorship, Architecture, Infrastructure        #
                #                    SHARK, DRIVERS                     #
                #        Core code/Algorithms in most modules           #
                #                                                       #
                #        Max Planck Institute fuer Kohlenforschung      #
                #                Kaiser Wilhelm Platz 1                 #
                #                 D-45470 Muelheim/Ruhr                 #
                #                      Germany                          #
                #                                                       #
                #                  All rights reserved                  #
                #                        -***-                          #
                #########################################################


                         Program Version 6.0.1  -  RELEASE   -


 With contributions from (in alphabetic order):
[Max-Planck-Institut fuer Kohlenforschung]                               
  Daniel Aravena         : Magnetic Suceptibility                        
  Michael Atanasov       : Ab Initio Ligand Field Theory (pilot matlab implementation)
  Alexander A. Auer      : GIAO ZORA, VPT2 properties, NMR spectrum      
  Ute Becker             : All parallelization in ORCA, NUMFREQ, NUMCALC 
  Giovanni Bistoni       : ED, misc. LED, open-shell LED, HFLD           
  Martin Brehm           : Molecular dynamics                            
  Dmytro Bykov           : pre 5.0 version of the SCF Hessian            
  Marcos Casanova-Páez   : Triplet and SCS-CIS(D). UHF-(DLPNO)-IP/EA/STEOM-CCSD. UHF-CVS-IP/STEOM-CCSD   
  Vijay G. Chilkuri      : MRCI spin determinant printing, contributions to CSF-ICE 
  Pauline Colinet        : FMM embedding                                 
  Dipayan Datta          : RHF DLPNO-CCSD density                        
  Achintya Kumar Dutta   : EOM-CC, STEOM-CC                              
  Nicolas Foglia         : Exact transition moments, OPA infrastructure, MCD improvements    
  Dmitry Ganyushin       : Spin-Orbit,Spin-Spin,Magnetic field MRCI      
  Miquel Garcia-Rates    : C-PCM and meta-GGA Hessian, CCSD/C-PCM, Gaussian charge scheme 
  Tiago L. C. Gouveia    : GS-ROHF, GS-ROCIS                             
  Yang Guo               : DLPNO-NEVPT2, F12-NEVPT2, CIM, IAO-localization        
  Andreas Hansen         : Spin unrestricted coupled pair/coupled cluster methods 
  Ingolf Harden          : AUTO-CI MPn and infrastructure                
  Benjamin Helmich-Paris : MC-RPA, TRAH-(SCF,CASSCF), AVAS, COSX integrals, SCF dyn. polar. 
  Lee Huntington         : MR-EOM, pCC                                   
  Robert Izsak           : Overlap fitted RIJCOSX, COSX-SCS-MP3, EOM     
  Riya Kayal             : Wick's Theorem for AUTO-CI, AUTO-CI UHF-CCSDT 
  Emily Kempfer          : AUTO-CI, RHF CISDT and CCSDT                  
  Christian Kollmar      : KDIIS, OOCD, Brueckner-CCSD(T), CCSD density, CASPT2, CASPT2-K, improved NEVPT2 
  Axel Koslowski         : Symmetry handling                             
  Simone Kossmann        : meta-GGA functionals, TD-DFT gradient, OOMP2, (MP2 Hessian; deprecated post 5.0) 
  Lucas Lang             : DCDCAS                                        
  Marvin Lechner         : AUTO-CI (C++ implementation), FIC-MRCC        
  Spencer Leger          : CASSCF response                               
  Dagmar Lenk            : GEPOL surface, SMD, ORCA-2-JSON               
  Dimitrios Liakos       : Extrapolation schemes; Compound Job, initial MDCI parallelization 
  Dimitrios Manganas     : Further ROCIS development; embedding schemes. LFT, Crystal Embedding 
  Dimitrios Pantazis     : SARC Basis sets                               
  Anastasios Papadopoulos: AUTO-CI, single reference methods and gradients 
  Taras Petrenko         : pre 6.0 DFT Hessian and TD-DFT gradient, (ASA, deprecated), ECA, 1-Electron XAS/XES, NRVS 
  Peter Pinski           : DLPNO-MP2, DLPNO-MP2 Gradient                 
  Christoph Reimann      : Effective Core Potentials                     
  Marius Retegan         : Local ZFS, SOC                                
  Christoph Riplinger    : Optimizer, TS searches, QM/MM, DLPNO-CCSD(T), (RO)-DLPNO pert. Triples 
  Michael Roemelt        : Original ROCIS implementation                 
  Masaaki Saitow         : Open-shell DLPNO-CCSD energy and density      
  Barbara Sandhoefer     : DKH picture change effects                    
  Kantharuban Sivalingam : CASSCF convergence/infrastructure, NEVPT2 and variants, FIC-MRCI 
  Bernardo de Souza      : ESD, SOC TD-DFT                               
  Georgi L. Stoychev     : AutoAux, RI-MP2 NMR, DLPNO-MP2 response, X2C  
  Van Anh Tran           : RI-MP2 g-tensors                              
  Willem Van den Heuvel  : Paramagnetic NMR                              
  Zikuan Wang            : NOTCH, Electric field optimization            
  Frank Wennmohs         : Technical directorship and infrastructure     
  Hang Xu                : AUTO-CI-Response properties                   
                                                                         
[FACCTs GmbH]                                                            
  Markus Bursch, Miquel Garcia-Rates, Christoph Riplinger, Bernardo de Souza, Georgi L. Stoychev 
                                                                 
  APM, Basis sets (HGBS, AHGBS, def-TZVP (Ac-Lr), def2-XVPD (La-Lu)), CI-OPT, improved COSX, DLPNO-Multilevel,           
  DOCKER, DRACO, updates on ESD, GOAT, IRC, LR-CPCM, MBIS, meta-GGA TD-DFT gradient, ML-optimized integration grids, 
  MM, NACMEs, nearIR, NEB, NEB-TS, NL-DFT gradient (VV10), 2- and 3-layer-ONIOM, interface openCOSMO-RS, QMMM,   
  Crystal-QMMM, SF, symmetry and pop. for TD-DFT, r2SCAN hybrids, SOLVATOR                                   
                                                                         
[Other institutions]                                                     
  V. Asgeirsson          : NEB                                           
  Christoph Bannwarth    : sTDA-DFT, sTD-DFT, PBEh-3c, B97-3c, D3        
  Sebastian Ehlert       : rSCAN, r2SCAN, r2SCAN-3c, D4, dhf basis sets  
  Marvin Friede          : D4 for Fr, Ra, Ac-Lr                          
  Lars Goerigk           : TD-DFT with DH, B97 family of functionals     
  Stefan Grimme          : VdW corrections, initial TS optimization, DFT functionals, gCP, sTDA/sTD-DF 
  Waldemar Hujo          : DFT-NL                                        
  H. Jonsson             : NEB                                           
  Holger Kruse           : gCP                                           
  Marcel Mueller         : wB97X-3c, vDZP basis set                      
  Hagen Neugebauer       : wr2SCAN                                       
  Tobias Risthaus        : range-separated hybrid DFT                    
  Lukas Wittmann         : regularized MP2, r2SCAN double-hybrids, wr2SCAN        
                                                                         
We gratefully acknowledge several colleagues who have allowed us to      
interface, adapt or use parts of their codes:                            
  Ed Valeev, F. Pavosevic, A. Kumar             : LibInt (2-el integral package), F12 methods 
  Garnet Chan, S. Sharma, J. Yang, R. Olivares  : DMRG                   
  Ulf Ekstrom                                   : XCFun DFT Library      
  Mihaly Kallay                                 : mrcc  (arbitrary order and MRCC methods)
  Frank Weinhold                                : gennbo (NPA and NBO analysis)           
  Simon Mueller                                 : openCOSMO-RS                            
  Christopher J. Cramer and Donald G. Truhlar   : smd solvation model                     
  S Lehtola, MJT Oliveira, MAL Marques          : LibXC Library                           
  Liviu Ungur et al                             : ANISO software                          


 Your calculation uses the libint2 library for the computation of 2-el integrals
 For citations please refer to: http://libint.valeyev.net

 Your ORCA version has been built with support for libXC version: 6.2.2
 For citations please refer to: https://libxc.gitlab.io

 This ORCA versions uses:
   CBLAS   interface :  Fast vector & matrix operations
   LAPACKE interface :  Fast linear algebra routines
   SCALAPACK package :  Parallel linear algebra routines
   Shared memory     :  Shared parallel matrices
   BLAS/LAPACK       :  OpenBLAS 0.3.27  USE64BITINT DYNAMIC_ARCH NO_AFFINITY Zen SINGLE_THREADED
        Core in use  :  Zen
   Copyright (c) 2011-2014, The OpenBLAS Project


Your calculation utilizes the geometrical counterpoise correction gCP
Please cite in your paper:
H.Kruse, S. Grimme J.Chem.Phys., 136, (2012), 154101 
   

Your calculation utilizes the atom-pairwise dispersion correction
based on EEQ partial charges (D4)


================================================================================

----- Orbital basis set information -----
Your calculation utilizes the basis: def2-mTZVPP
   Stefan Grimme, Andreas Hansen, Sebastian Ehlert, and Jan-Michael Mewes 
   J. Chem. Phys. 154, 064103 (2021). DOI: 10.1063/5.0040021

----- AuxJ basis set information -----
Your calculation utilizes the auxiliary basis: def2/J
   F. Weigend, Phys. Chem. Chem. Phys. 8, 1057 (2006).

================================================================================
                                        WARNINGS
                       Please study these warnings very carefully!
================================================================================

WARNING: Old DensityContainer found on disk!
         Will remove this file - 
         If you want to keep old densities, please start your calculation with a different basename. 



WARNING: SCAN, rSCAN, or r2SCAN functional requested.
  ===> : libXC variant has now been activated.



================================================================================
                                       INPUT FILE
================================================================================
NAME = sp.inp
|  1> ! r2scan-3c def2/J RI DEFGRID2 scfconv6 printgap
|  2> %output
|  3>     printlevel normal
|  4> end
|  5> * xyz 0 1
|  6> C 0.7214510584 0.01317636 8.744e-07
|  7> O -0.6826917034 -0.0644383762 -4.03e-07
|  8> H 1.0991608461 0.5250038246 -0.8918759728
|  9> H 1.0880210845 -1.0116674201 0.0003099724
| 10> H 1.0991005592 0.5255476743 0.8915851579
| 11> H -1.0466664793 0.8269896139 -2.31798e-05
| 12> *
| 13> 
| 14>                          ****END OF INPUT****
================================================================================

                       ****************************
                       * Single Point Calculation *
                       ****************************

---------------------------------
CARTESIAN COORDINATES (ANGSTROEM)
---------------------------------
  C      0.721451    0.013176    0.000001
  O     -0.682692   -0.064438   -0.000000
  H      1.099161    0.525004   -0.891876
  H      1.088021   -1.011667    0.000310
  H      1.099101    0.525548    0.891585
  H     -1.046666    0.826990   -0.000023

----------------------------
CARTESIAN COORDINATES (A.U.)
----------------------------
  NO LB      ZA    FRAG     MASS         X           Y           Z
   0 C     6.0000    0    12.011    1.363345    0.024900    0.000002
   1 O     8.0000    0    15.999   -1.290100   -0.121771   -0.000001
   2 H     1.0000    0     1.008    2.077113    0.992113   -1.685401
   3 H     1.0000    0     1.008    2.056062   -1.911774    0.000586
   4 H     1.0000    0     1.008    2.076999    0.993141    1.684852
   5 H     1.0000    0     1.008   -1.977913    1.562784   -0.000044

--------------------------------
INTERNAL COORDINATES (ANGSTROEM)
--------------------------------
 C      0   0   0     0.000000000000     0.00000000     0.00000000
 O      1   0   0     1.406286223637     0.00000000     0.00000000
 H      1   2   0     1.095479962306   111.71866294     0.00000000
 H      1   2   3     1.088429351491   106.51747177   241.18859889
 H      1   2   3     1.095475259308   111.71715307   122.37620132
 H      2   1   3     0.962871486515   109.04661919   298.79586088

---------------------------
INTERNAL COORDINATES (A.U.)
---------------------------
 C      0   0   0     0.000000000000     0.00000000     0.00000000
 O      1   0   0     2.657495828581     0.00000000     0.00000000
 H      1   2   0     2.070157113957   111.71866294     0.00000000
 H      1   2   3     2.056833390439   106.51747177   241.18859889
 H      1   2   3     2.070148226579   111.71715307   122.37620132
 H      2   1   3     1.819563411675   109.04661919   298.79586088

---------------------
BASIS SET INFORMATION
---------------------
There are 3 groups of distinct atoms

 Group   1 Type C   : 11s6p1d contracted to 5s3p1d pattern {62111/411/1}
 Group   2 Type O   : 11s6p2d contracted to 5s3p2d pattern {62111/411/11}
 Group   3 Type H   : 4s1p contracted to 2s1p pattern {31/1}

Atom   0C    basis set group =>   1
Atom   1O    basis set group =>   2
Atom   2H    basis set group =>   3
Atom   3H    basis set group =>   3
Atom   4H    basis set group =>   3
Atom   5H    basis set group =>   3
---------------------------------
AUXILIARY/J BASIS SET INFORMATION
---------------------------------
There are 3 groups of distinct atoms

 Group   1 Type C   : 12s5p4d2f1g contracted to 6s4p3d1f1g pattern {711111/2111/211/2/1}
 Group   2 Type O   : 12s5p4d2f1g contracted to 6s4p3d1f1g pattern {711111/2111/211/2/1}
 Group   3 Type H   : 5s2p1d contracted to 3s1p1d pattern {311/2/1}

Atom   0C    basis set group =>   1
Atom   1O    basis set group =>   2
Atom   2H    basis set group =>   3
Atom   3H    basis set group =>   3
Atom   4H    basis set group =>   3
Atom   5H    basis set group =>   3

Checking for AutoStart:
The File: sp.gbw exists
Trying to determine its content:
     ... Fine, the file contains calculation information
     ... Fine, the calculation information was read
     ... Fine, the file contains a basis set
     ... Fine, the basis set was read
     ... Fine, the file contains a geometry
     ... Fine, the geometry was read
     ... Fine, the file contains a set of orbitals
     ... Fine, the orbitals can be read
     => possible old guess file was deleted
     => GBW file was renamed to GES file
     => GES file is set as startup file
     => Guess is set to MORead
     ... now leaving AutoStart

------------------------------------------------------------------------------
                             ORCA STARTUP CALCULATIONS
                           -- RI-GTO INTEGRALS CHOSEN --
------------------------------------------------------------------------------
------------------------------------------------------------------------------
                   ___                                                        
                  /   \      - P O W E R E D   B Y -                         
                 /     \                                                     
                 |  |  |   _    _      __       _____    __    __             
                 |  |  |  | |  | |    /  \     |  _  \  |  |  /  |          
                  \  \/   | |  | |   /    \    | | | |  |  | /  /          
                 / \  \   | |__| |  /  /\  \   | |_| |  |  |/  /          
                |  |  |   |  __  | /  /__\  \  |    /   |      \           
                |  |  |   | |  | | |   __   |  |    \   |  |\   \          
                \     /   | |  | | |  |  |  |  | |\  \  |  | \   \       
                 \___/    |_|  |_| |__|  |__|  |_| \__\ |__|  \__/        
                                                                              
                      - O R C A' S   B I G   F R I E N D -                    
                                      &                                       
                       - I N T E G R A L  F E E D E R -                       
                                                                              
 v1 FN, 2020, v2 2021, v3 2022-2024                                           
------------------------------------------------------------------------------


----------------------
SHARK INTEGRAL PACKAGE
----------------------

Number of atoms                             ...      6
Number of basis functions                   ...     63
Number of shells                            ...     31
Maximum angular momentum                    ...      2
Integral batch strategy                     ... SHARK/LIBINT Hybrid
RI-J (if used) integral strategy            ... SPLIT-RIJ (Revised 2003 algorithm where possible)
Printlevel                                  ...      1
Contraction scheme used                     ... SEGMENTED contraction
Prescreening option                         ... SCHWARTZ
   Thresh                                   ... 1.000e-10
   Tcut                                     ... 1.000e-11
   Tpresel                                  ... 1.000e-11 
Coulomb Range Separation                    ... NOT USED
Exchange Range Separation                   ... NOT USED
Multipole approximations                    ... NOT USED
Finite Nucleus Model                        ... NOT USED
CABS basis                                  ... NOT available
Auxiliary Coulomb fitting basis             ... AVAILABLE
   # of basis functions in Aux-J            ...    142
   # of shells in Aux-J                     ...     50
   Maximum angular momentum in Aux-J        ...      4
Auxiliary J/K fitting basis                 ... NOT available
Auxiliary Correlation fitting basis         ... NOT available
Auxiliary 'external' fitting basis          ... NOT available

Checking pre-screening integrals            ... done (  0.0 sec) Dimension = 31
Check shell pair data                       ... done (  0.0 sec)
Shell pair information
Shell pair cut-off parameter TPreSel        ...   1.0e-11
Total number of shell pairs                 ...       496
Shell pairs after pre-screening             ...       494
Total number of primitive shell pairs       ...      1709
Primitive shell pairs kept                  ...      1486
          la=0 lb=0:    169 shell pairs
          la=1 lb=0:    180 shell pairs
          la=1 lb=1:     55 shell pairs
          la=2 lb=0:     54 shell pairs
          la=2 lb=1:     30 shell pairs
          la=2 lb=2:      6 shell pairs

Calculating one electron integrals          ... done (  0.0 sec)
Calculating RI/J V-Matrix + Cholesky decomp.... done (  0.0 sec)
Calculating Nuclear repulsion               ... done (  0.0 sec) ENN=     40.518352447990 Eh

Diagonalization of the overlap matrix:
Smallest eigenvalue                        ... 2.331e-03
Time for diagonalization                   ...    0.000 sec
Threshold for overlap eigenvalues          ... 1.000e-07
Number of eigenvalues below threshold      ... 0
Time for construction of square roots      ...    0.000 sec
Total time needed                          ...    0.001 sec

-------------------
DFT GRID GENERATION
-------------------

General Integration Accuracy     IntAcc      ... 4.388
Radial Grid Type                 RadialGrid  ... OptM3 with GC (2021)
Angular Grid (max. ang.)         AngularGrid ... 4 (Lebedev-302)
Angular grid pruning method      GridPruning ... 4 (adaptive)
Weight generation scheme         WeightScheme... mBecke (2022)
Basis function cutoff            BFCut       ... 1.0000e-10
Integration weight cutoff        WCut        ... 1.0000e-14
Partially contracted basis set               ... off
Rotationally invariant grid construction     ... off
Angular grids for H and He will be reduced by one unit
Diffuse basis detected: some atoms will have their outermost
                        angular grid increased by 1.

Total number of grid points                  ...    25621
Total number of batches                      ...      403
Average number of points per batch           ...       63
Average number of grid points per atom       ...     4270
Initializing property integral containers    ... done (  0.0 sec)

SHARK setup successfully completed in   0.1 seconds

Maximum memory used throughout the entire STARTUP-calculation: 12.0 MB
-------------------------------------------------------------------------------
                                 ORCA GUESS
                   Start orbitals & Density for SCF / CASSCF
-------------------------------------------------------------------------------

------------
SCF SETTINGS
------------
Hamiltonian:
 Density Functional     Method          .... DFT(GTOs)
  Functional kind                       .... Exchange
  Functional name                       .... Re-regularized SCAN exchange by Furness et al
  Functional family                     .... MGGA
  Functional refs                              
    [ 0] J. W. Furness, A. D. Kaplan, J. Ning, J. P. Perdew, and J. Sun.,  J. Phys. Chem. Lett. 11, 8208-8215 (2020), doi: 10.1021/acs.jpclett.0c02405
    [ 1] J. W. Furness, A. D. Kaplan, J. Ning, J. P. Perdew, and J. Sun.,  J. Phys. Chem. Lett. 11, 9248-9248 (2020), doi: 10.1021/acs.jpclett.0c03077
  Functional external parameters        .... 6
    Parameter  0 _c1        =  6.670000e-01 : c1 parameter        
    Parameter  1 _c2        =  8.000000e-01 : c2 parameter        
    Parameter  2 _d         =  1.240000e+00 : d parameter         
    Parameter  3 _k1        =  6.500000e-02 : k1 parameter        
    Parameter  4 _eta       =  1.000000e-03 : eta parameter       
    Parameter  5 _dp2       =  3.610000e-01 : dp2 parameter       
  Functional kind                       .... Correlation
  Functional name                       .... Re-regularized SCAN correlation by Furness et al
  Functional family                     .... MGGA
  Functional refs                              
    [ 0] J. W. Furness, A. D. Kaplan, J. Ning, J. P. Perdew, and J. Sun.,  J. Phys. Chem. Lett. 11, 8208-8215 (2020), doi: 10.1021/acs.jpclett.0c02405
    [ 1] J. W. Furness, A. D. Kaplan, J. Ning, J. P. Perdew, and J. Sun.,  J. Phys. Chem. Lett. 11, 9248-9248 (2020), doi: 10.1021/acs.jpclett.0c03077
  Functional external parameters        .... 1
    Parameter  0 _eta       =  1.000000e-03 : Regularization parameter
 Gradients option       PostSCFGGA      .... off
 RI-approximation to the Coulomb term is turned on
   Number of AuxJ basis functions       .... 142


General Settings:
 Integral files         IntName         .... sp
 Hartree-Fock type      HFTyp           .... RHF
 Total Charge           Charge          ....    0
 Multiplicity           Mult            ....    1
 Number of Electrons    NEL             ....   18
 Basis Dimension        Dim             ....   63
 Nuclear Repulsion      ENuc            ....     40.5183524480 Eh

Convergence Acceleration:
 AO-DIIS                CNVDIIS         .... on
   Start iteration      DIISMaxIt       ....    12
   Startup error        DIISStart       ....  0.200000
   # of expansion vecs  DIISMaxEq       ....     5
   Bias factor          DIISBfac        ....   1.050
   Max. coefficient     DIISMaxC        ....  10.000
 MO-DIIS                CNVKDIIS        .... off
 Trust-Rad. Augm. Hess. CNVTRAH         .... auto
   Auto Start mean grad. ratio tolernc. ....  1.125000
   Auto Start start iteration           ....     1
   Auto Start num. interpolation iter.  ....    10
   Max. Number of Micro iterations      ....    24
   Max. Number of Macro iterations      .... Maxiter - #DIIS iter
   Number of Davidson start vectors     ....     2
   Converg. threshold    (grad. norm)   ....   3.330e-04
   Grad. Scal. Fac. for Micro threshold ....   0.100
   Minimum threshold for Micro iter.    ....   1.000e-02
   NR start threshold (gradient norm)   ....   1.000e-04
   Initial trust radius                 ....   0.400
   Minimum AH scaling param. (alpha)    ....   1.000
   Maximum AH scaling param. (alpha)    .... 1000.000
   Quad. conv. algorithm                .... NR
   White noise on init. David. guess    .... on
   Maximum white noise                  ....   0.010
   Pseudo random numbers                .... off
   Inactive MOs                         .... canonical
   Orbital update algorithm             .... Taylor
   Preconditioner                       .... Diag
   Full preconditioner red. dimension   ....   250
   COSX micro iterations for RIJONX calc.... off
 SOSCF                  CNVSOSCF        .... on
   Start iteration      SOSCFMaxIt      ....   150
   Startup grad/error   SOSCFStart      ....  0.003300
   Hessian update       SOSCFHessUp     .... L-BFGS
 Level Shifting         CNVShift        .... on
   Level shift para.    LevelShift      ....    0.2500
   Turn off err/grad.   ShiftErr        ....    0.0010
 Zerner damping         CNVZerner       .... off
 Static damping         CNVDamp         .... on
   Fraction old density DampFac         ....    0.7000
   Max. Damping (<1)    DampMax         ....    0.9800
   Min. Damping (>=0)   DampMin         ....    0.0000
   Turn off err/grad.   DampErr         ....    0.1000

SCF Procedure:
 Maximum # iterations   MaxIter         ....   125
 SCF integral mode      SCFMode         .... Direct
   Integral package                     .... SHARK and LIBINT hybrid scheme
 Reset frequency        DirectResetFreq ....    20
 Integral Threshold     Thresh          ....  1.000e-10 Eh
 Primitive CutOff       TCut            ....  1.000e-11 Eh

Convergence Tolerance:
 Convergence Check Mode ConvCheckMode   .... Total+1el-Energy
 Convergence forced     ConvForced      .... 0
 Energy Change          TolE            ....  1.000e-06 Eh
 1-El. energy change                    ....  1.000e-03 Eh
 Orbital Gradient       TolG            ....  3.330e-04
 Orbital Rotation angle TolX            ....  3.330e-04
 DIIS Error             TolErr          ....  1.000e-06

---------------------
INITIAL GUESS: MOREAD
---------------------
Guess MOs are being read from file: sp.ges
Input Geometry matches current geometry (good)
Atom 0: N(Shells)= 9 and 6 - projection required
Input basis set needs projection
NBasis(read)= 36
NBasis(calc)= 63
Basis set overlap was calculated
Using GuessMode=FMatrix for the initial guess
C*T matrix was formed
Effective Fockian was calculated
Effective Fockian was diagonalized
Initial density was built
                      ------------------
                      INITIAL GUESS DONE (   0.0 sec)
                      ------------------
             **** ENERGY FILE WAS UPDATED (sp.en.tmp) ****
Finished Guess after   0.0 sec
Maximum memory used throughout the entire GUESS-calculation: 6.3 MB

-------------------------------------------------------------------------------------------
                                      ORCA LEAN-SCF
                              memory conserving SCF solver
-------------------------------------------------------------------------------------------

----------------------------------------D-I-I-S--------------------------------------------
Iteration    Energy (Eh)           Delta-E    RMSDP     MaxDP     DIISErr   Damp  Time(sec)
-------------------------------------------------------------------------------------------
               ***  Starting incremental Fock matrix formation  ***
    1    -115.6233523740212092     0.00e+00  3.18e-03  5.71e-02  6.26e-01  0.700   0.1
    2    -115.6456941766754483    -2.23e-02  2.65e-03  4.31e-02  4.40e-01  0.700   0.1
    3    -115.6615894830464129    -1.59e-02  1.97e-03  3.05e-02  3.09e-01  0.700   0.1
    4    -115.6727698042605823    -1.12e-02  1.42e-03  2.15e-02  2.16e-01  0.700   0.1
                               ***Turning on AO-DIIS***
    5    -115.6806245474802779    -7.85e-03  1.05e-03  1.56e-02  1.51e-01  0.700   0.1
    6    -115.6861384541789448    -5.51e-03  7.46e-04  1.10e-02  1.06e-01  0.700   0.1
    7    -115.6900084713401498    -3.87e-03  5.29e-04  7.73e-03  7.42e-02  0.700   0.1
    8    -115.6927228910188035    -2.71e-03  1.24e-03  1.81e-02  5.19e-02  0.000   0.1
                              *** Initializing SOSCF ***
---------------------------------------S-O-S-C-F--------------------------------------
Iteration    Energy (Eh)           Delta-E    RMSDP     MaxDP     MaxGrad    Time(sec)
--------------------------------------------------------------------------------------
    9    -115.6990732525338785    -6.35e-03  1.02e-05  1.02e-04  1.86e-04     0.1
               *** Restarting incremental Fock matrix formation ***
   10    -115.6990732927726810    -4.02e-08  9.56e-06  1.23e-04  6.25e-05     0.1
                  *** Gradient check signals convergence ***

               *****************************************************
               *                     SUCCESS                       *
               *           SCF CONVERGED AFTER  10 CYCLES          *
               *****************************************************

             **** ENERGY FILE WAS UPDATED (sp.en.tmp) ****

----------------
TOTAL SCF ENERGY
----------------

Total Energy       :       -115.69907329277268 Eh           -3148.33184 eV

Components:
Nuclear Repulsion  :         40.51835244798966 Eh            1102.56042 eV
Electronic Energy  :       -156.21742574076234 Eh           -4250.89227 eV
One Electron Energy:       -237.43699830311598 Eh           -6460.98919 eV
Two Electron Energy:         81.21957256235366 Eh            2210.09693 eV

Virial components:
Potential Energy   :       -230.95144102422586 Eh           -6284.50821 eV
Kinetic Energy     :        115.25236773145316 Eh            3136.17637 eV
Virial Ratio       :          2.00387589053581

DFT components:
N(Alpha)           :        9.000003314514 electrons
N(Beta)            :        9.000003314514 electrons
N(Total)           :       18.000006629027 electrons
E(X)               :      -14.898166373288 Eh       
E(C)               :       -0.562972693895 Eh       
E(XC)              :      -15.461139067182 Eh       

---------------
SCF CONVERGENCE
---------------

  Last Energy change         ...    4.0239e-08  Tolerance :   1.0000e-06
  Last MAX-Density change    ...    1.2345e-04  Tolerance :   1.0000e-05
  Last RMS-Density change    ...    9.5567e-06  Tolerance :   1.0000e-06
  Last DIIS Error            ...    1.8610e-04  Tolerance :   1.0000e-06
  Last Orbital Gradient      ...    6.2548e-05  Tolerance :   3.3300e-04
  Last Orbital Rotation      ...    9.1405e-05  Tolerance :   3.3300e-04


----------------
ORBITAL ENERGIES
----------------

  NO   OCC          E(Eh)            E(eV) 
   0   2.0000     -18.947585      -515.5900 
   1   2.0000     -10.070110      -274.0216 
   2   2.0000      -0.984971       -26.8024 
   3   2.0000      -0.648072       -17.6349 
   4   2.0000      -0.476459       -12.9651 
   5   2.0000      -0.405946       -11.0464 
   6   2.0000      -0.394473       -10.7341 
   7   2.0000      -0.301442        -8.2026 
   8   2.0000      -0.237534        -6.4636 
   9   0.0000       0.058126         1.5817 
  10   0.0000       0.118128         3.2144 
  11   0.0000       0.154628         4.2076 
  12   0.0000       0.191343         5.2067 
  13   0.0000       0.193525         5.2661 
  14   0.0000       0.209060         5.6888 
  15   0.0000       0.224931         6.1207 
  16   0.0000       0.317489         8.6393 
  17   0.0000       0.354593         9.6490 
  18   0.0000       0.446661        12.1543 
  19   0.0000       0.466008        12.6807 
*Only the first 10 virtual orbitals were printed.

                    ********************************
                    * MULLIKEN POPULATION ANALYSIS *
                    ********************************

-----------------------
MULLIKEN ATOMIC CHARGES
-----------------------
   0 C :   -0.247406
   1 O :   -0.435787
   2 H :    0.123925
   3 H :    0.140838
   4 H :    0.123922
   5 H :    0.294508
Sum of atomic charges:   -0.0000000

--------------------------------
MULLIKEN REDUCED ORBITAL CHARGES
--------------------------------
  0 C s       :     3.288491  s :     3.288491
      pz      :     1.080994  p :     2.909275
      px      :     0.715107
      py      :     1.113174
      dz2     :     0.006818  d :     0.049640
      dxz     :     0.015443
      dyz     :     0.004572
      dx2y2   :     0.012134
      dxy     :     0.010674

  1 O s       :     3.769054  s :     3.769054
      pz      :     1.928206  p :     4.659281
      px      :     1.260650
      py      :     1.470425
      dz2     :     0.004020  d :     0.007451
      dxz     :    -0.002009
      dyz     :     0.002468
      dx2y2   :     0.005462
      dxy     :    -0.002490

  2 H s       :     0.858744  s :     0.858744
      pz      :     0.008668  p :     0.017331
      px      :     0.003461
      py      :     0.005202

  3 H s       :     0.841607  s :     0.841607
      pz      :     0.003735  p :     0.017554
      px      :     0.003264
      py      :     0.010555

  4 H s       :     0.858747  s :     0.858747
      pz      :     0.008665  p :     0.017331
      px      :     0.003461
      py      :     0.005205

  5 H s       :     0.661824  s :     0.661824
      pz      :     0.013185  p :     0.043669
      px      :     0.009928
      py      :     0.020556


------------------------
MULLIKEN OVERLAP CHARGES
------------------------
B(  0-C ,  1-O ) :   0.3838 B(  0-C ,  2-H ) :   0.8303 B(  0-C ,  3-H ) :   0.8244 
B(  0-C ,  4-H ) :   0.8303 B(  0-C ,  5-H ) :  -0.0852 B(  1-O ,  2-H ) :  -0.1030 
B(  1-O ,  3-H ) :  -0.0981 B(  1-O ,  4-H ) :  -0.1030 B(  1-O ,  5-H ) :   0.5933 
B(  2-H ,  4-H ) :  -0.0816 


                     *******************************
                     * LOEWDIN POPULATION ANALYSIS *
                     *******************************

----------------------
LOEWDIN ATOMIC CHARGES
----------------------
   0 C :   -0.083695
   1 O :   -0.636382
   2 H :    0.145813
   3 H :    0.169062
   4 H :    0.145816
   5 H :    0.259387

-------------------------------
LOEWDIN REDUCED ORBITAL CHARGES
-------------------------------
  0 C s       :     2.919430  s :     2.919430
      pz      :     1.100539  p :     3.047072
      px      :     0.835144
      py      :     1.111389
      dz2     :     0.016381  d :     0.117194
      dxz     :     0.034595
      dyz     :     0.012125
      dx2y2   :     0.029277
      dxy     :     0.024815

  1 O s       :     3.529749  s :     3.529749
      pz      :     1.899128  p :     4.841269
      px      :     1.401765
      py      :     1.540376
      dz2     :     0.027533  d :     0.265364
      dxz     :     0.070396
      dyz     :     0.003565
      dx2y2   :     0.068672
      dxy     :     0.095198

  2 H s       :     0.814117  s :     0.814117
      pz      :     0.020712  p :     0.040070
      px      :     0.007692
      py      :     0.011666

  3 H s       :     0.791683  s :     0.791683
      pz      :     0.007608  p :     0.039255
      px      :     0.006256
      py      :     0.025390

  4 H s       :     0.814113  s :     0.814113
      pz      :     0.020704  p :     0.040070
      px      :     0.007692
      py      :     0.011674

  5 H s       :     0.616719  s :     0.616719
      pz      :     0.034230  p :     0.123895
      px      :     0.026446
      py      :     0.063218


---------------------------------
LOEWDIN BOND ORDERS (THRESH 0.050000)
---------------------------------
B(  0-C ,  1-O ) :   1.4857 B(  0-C ,  2-H ) :   0.8781 B(  0-C ,  3-H ) :   0.8688 
B(  0-C ,  4-H ) :   0.8781 B(  1-O ,  2-H ) :   0.1124 B(  1-O ,  3-H ) :   0.1041 
B(  1-O ,  4-H ) :   0.1124 B(  1-O ,  5-H ) :   0.9872 

------------------------------------------
LOEWDIN REDUCED ORBITAL POPULATIONS PER MO
-------------------------------------------
THRESHOLD FOR PRINTING IS 0.1%%
                      0         1         2         3         4         5   
                 -18.94758 -10.07011  -0.98497  -0.64807  -0.47646  -0.40595
                   2.00000   2.00000   2.00000   2.00000   2.00000   2.00000
                  --------  --------  --------  --------  --------  --------
 0 C  s               0.0      99.4       9.8      33.8       1.9       0.0
 0 C  pz              0.0       0.0       0.0       0.0       0.0      49.1
 0 C  px              0.0       0.0       8.8       3.3      14.7       0.0
 0 C  py              0.0       0.0       0.0       0.1      12.8       0.0
 0 C  dz2             0.0       0.0       0.2       0.0       0.3       0.0
 0 C  dyz             0.0       0.0       0.0       0.0       0.0       0.3
 0 C  dx2y2           0.0       0.0       0.7       0.1       0.3       0.0
 1 O  s              99.9       0.0      61.7       4.3       2.1       0.0
 1 O  pz              0.0       0.0       0.0       0.0       0.0      19.4
 1 O  px              0.0       0.1       1.3      17.1      15.2       0.0
 1 O  py              0.0       0.0       1.5       2.6      28.5       0.0
 1 O  dz2             0.0       0.1       0.2       0.5       0.3       0.0
 1 O  dxz             0.0       0.0       0.0       0.0       0.0       2.5
 1 O  dyz             0.0       0.0       0.0       0.0       0.0       0.2
 1 O  dx2y2           0.0       0.2       0.1       2.7       0.2       0.0
 1 O  dxy             0.0       0.0       0.0       0.1       0.1       0.0
 2 H  s               0.0       0.0       0.7       8.9       5.9      13.6
 2 H  pz              0.0       0.0       0.0       0.5       0.3       0.1
 2 H  px              0.0       0.0       0.0       0.0       0.0       0.1
 2 H  py              0.0       0.0       0.0       0.2       0.0       0.2
 3 H  s               0.0       0.0       0.7      10.2       0.1       0.0
 3 H  pz              0.0       0.0       0.0       0.0       0.0       0.3
 3 H  px              0.0       0.0       0.0       0.1       0.2       0.0
 3 H  py              0.0       0.0       0.1       0.7       0.0       0.0
 4 H  s               0.0       0.0       0.7       8.9       5.9      13.6
 4 H  pz              0.0       0.0       0.0       0.5       0.3       0.1
 4 H  px              0.0       0.0       0.0       0.0       0.0       0.1
 4 H  py              0.0       0.0       0.0       0.2       0.0       0.2
 5 H  s               0.0       0.0      11.0       4.5      10.7       0.0
 5 H  pz              0.0       0.0       0.0       0.0       0.0       0.3
 5 H  px              0.0       0.0       0.5       0.0       0.0       0.0
 5 H  py              0.0       0.0       1.9       0.7       0.3       0.0

                      6         7         8         9        10        11   
                  -0.39447  -0.30144  -0.23753   0.05813   0.11813   0.15463
                   2.00000   2.00000   2.00000   0.00000   0.00000   0.00000
                  --------  --------  --------  --------  --------  --------
 0 C  s               0.6       0.3       0.0       8.7      37.6       5.4
 0 C  pz              0.0       0.0       5.9       0.0       0.0       0.0
 0 C  px             12.7       2.2       0.0      29.9      25.4      14.3
 0 C  py             28.0      14.7       0.0       3.1       0.8      28.9
 0 C  dz2             0.0       0.3       0.0       0.4       0.1       0.8
 0 C  dxz             0.0       0.0       1.7       0.0       0.0       0.0
 0 C  dyz             0.0       0.0       0.3       0.0       0.0       0.0
 0 C  dx2y2           0.5       0.0       0.0       2.1       0.5       1.3
 0 C  dxy             0.1       1.1       0.0       0.1       0.0       0.4
 1 O  s               2.0       6.4       0.0      10.9       1.0       0.4
 1 O  pz              0.0       0.0      75.6       0.0       0.0       0.0
 1 O  px             26.0      10.5       0.0       1.5       4.8       5.4
 1 O  py              5.7      38.7       0.0       5.8       0.0       6.3
 1 O  dz2             0.1       0.4       0.0       0.5       1.7       3.3
 1 O  dxz             0.0       0.0       1.1       0.0       0.0       0.0
 1 O  dx2y2           0.1       0.1       0.0       2.7       5.9       0.8
 1 O  dxy             2.3       2.2       0.0       1.0       0.1       3.1
 2 H  s               0.4       4.3       6.9       1.0       5.2       1.7
 2 H  pz              0.0       0.1       0.0       0.4       1.4       0.7
 2 H  px              0.2       0.0       0.0       0.5       0.8       0.6
 2 H  py              0.1       0.0       0.0       0.3       0.5       0.0
 3 H  s              19.0       9.5       0.0       1.2       3.9       4.7
 3 H  px              0.0       0.0       0.0       0.6       0.6       0.0
 3 H  py              0.4       0.0       0.0       0.4       1.3       2.8
 4 H  s               0.4       4.3       6.9       1.0       5.2       1.7
 4 H  pz              0.0       0.1       0.0       0.4       1.4       0.7
 4 H  px              0.2       0.0       0.0       0.5       0.8       0.6
 4 H  py              0.1       0.0       0.0       0.3       0.5       0.0
 5 H  s               0.7       3.9       0.0      21.3       0.1      13.2
 5 H  pz              0.0       0.0       1.5       0.0       0.0       0.0
 5 H  px              0.3       0.5       0.0       1.2       0.3       0.3
 5 H  py              0.2       0.0       0.0       4.5       0.0       2.7

                     12        13        14        15        16        17   
                   0.19134   0.19352   0.20906   0.22493   0.31749   0.35459
                   0.00000   0.00000   0.00000   0.00000   0.00000   0.00000
                  --------  --------  --------  --------  --------  --------
 0 C  s               0.0       0.0       0.0       0.9       2.0      34.8
 0 C  pz             60.0       0.0      50.5       0.0       0.0       0.0
 0 C  px              0.0       0.6       0.0       3.6      57.5       0.3
 0 C  py              0.0      20.7       0.0      55.1       0.0       2.6
 0 C  dz2             0.0       4.1       0.0       0.1       0.3       0.2
 0 C  dxz             0.7       0.0       0.1       0.0       0.0       0.0
 0 C  dyz             1.0       0.0       4.4       0.0       0.0       0.0
 0 C  dx2y2           0.0       0.9       0.0       1.5       0.8       0.2
 0 C  dxy             0.0       1.0       0.0       0.0       0.0       0.3
 1 O  s               0.0       0.2       0.0       0.9       2.3       3.0
 1 O  pz              0.4       0.0       4.4       0.0       0.0       0.0
 1 O  px              0.0       0.1       0.0       6.2       9.9       3.1
 1 O  py              0.0       1.4       0.0       1.1       0.1       5.1
 1 O  dz2             0.0       4.7       0.0       0.0       5.8       8.7
 1 O  dxz             3.7       0.0       0.8       0.0       0.0       0.0
 1 O  dyz             1.4       0.0       7.1       0.0       0.0       0.0
 1 O  dx2y2           0.0       2.3       0.0       0.6      17.3       0.6
 1 O  dxy             0.0       3.2       0.0       1.0       0.2       6.3
 2 H  s              11.0       8.9      12.7       0.9       0.2       9.3
 2 H  pz              2.4       3.4       0.1       0.4       0.1       1.9
 2 H  px              1.0       0.2       0.2       0.0       0.0       0.1
 2 H  py              1.6       0.5       1.6       1.3       0.0       0.4
 3 H  s               0.0      28.0       0.0       5.2       0.2       5.0
 3 H  pz              0.5       0.0       3.6       0.0       0.0       0.0
 3 H  px              0.0       1.6       0.0       0.5       0.1       0.0
 3 H  py              0.0       4.7       0.0       0.0       0.1       3.7
 4 H  s              11.1       8.8      12.7       0.9       0.2       9.3
 4 H  pz              2.4       3.4       0.1       0.4       0.1       1.9
 4 H  px              1.0       0.2       0.2       0.0       0.0       0.1
 4 H  py              1.6       0.5       1.6       1.3       0.0       0.4
 5 H  s               0.0       0.5       0.0      14.8       1.1       1.9
 5 H  pz              0.2       0.0       0.1       0.0       0.0       0.0
 5 H  px              0.0       0.2       0.0       0.6       1.7       0.2
 5 H  py              0.0       0.0       0.0       2.7       0.1       0.5

                     18        19        20        21        22        23   
                   0.44666   0.46601   0.49119   0.54070   0.57919   0.62803
                   0.00000   0.00000   0.00000   0.00000   0.00000   0.00000
                  --------  --------  --------  --------  --------  --------
 0 C  s               0.0       4.7       0.0       0.0       2.1       0.0
 0 C  pz              0.8       0.0       0.0       2.4       0.0       5.1
 0 C  px              0.0       3.0       1.1       0.0       0.2       0.0
 0 C  py              0.0       1.1       0.3       0.0       4.8       0.0
 0 C  dz2             0.0       0.1       0.9       0.0       0.2       0.0
 0 C  dxz             0.2       0.0       0.0       2.0       0.0       4.0
 0 C  dyz             0.3       0.0       0.0       0.0       0.0       0.4
 0 C  dx2y2           0.0       0.5       0.0       0.0       0.2       0.0
 0 C  dxy             0.0       0.2       1.3       0.0       3.7       0.0
 1 O  s               0.0       0.2       1.7       0.0       0.3       0.0
 1 O  pz             42.4       0.0       0.0      16.2       0.0      34.7
 1 O  px              0.0      31.4      20.4       0.0       1.3       0.0
 1 O  py              0.0       1.0      42.7       0.0       0.2       0.0
 1 O  dz2             0.0       9.7      21.4       0.0       8.5       0.0
 1 O  dxz             4.0       0.0       0.0      45.1       0.0      32.5
 1 O  dyz            44.3       0.0       0.0      29.7       0.0      11.6
 1 O  dx2y2           0.0      26.3       0.8       0.0       2.1       0.0
 1 O  dxy             0.0       0.7       0.9       0.0      60.8       0.0
 2 H  s               1.2       0.5       0.4       1.7       0.9       1.9
 2 H  pz              0.2       0.1       0.1       0.1       1.6       0.3
 2 H  px              0.9       0.0       0.6       0.4       0.0       0.5
 2 H  py              0.0       0.1       0.5       0.0       0.2       1.4
 3 H  s               0.0       6.0       0.0       0.0       1.8       0.0
 3 H  pz              0.1       0.0       0.0       0.0       0.0       2.0
 3 H  px              0.0       1.7       1.1       0.0       0.9       0.0
 3 H  py              0.0       0.9       0.1       0.0       0.9       0.0
 4 H  s               1.2       0.5       0.4       1.7       0.9       1.9
 4 H  pz              0.2       0.1       0.1       0.1       1.6       0.3
 4 H  px              0.9       0.0       0.6       0.4       0.0       0.5
 4 H  py              0.0       0.1       0.5       0.0       0.2       1.4
 5 H  s               0.0      10.2       3.4       0.0       2.0       0.0
 5 H  pz              3.3       0.0       0.0       0.1       0.0       1.5
 5 H  px              0.0       0.6       0.3       0.0       3.0       0.0
 5 H  py              0.0       0.1       0.5       0.0       1.4       0.0

                     24        25        26        27        28        29   
                   0.66304   0.71722   0.95218   1.02244   1.02283   1.11896
                   0.00000   0.00000   0.00000   0.00000   0.00000   0.00000
                  --------  --------  --------  --------  --------  --------
 0 C  s              15.4       4.5      11.8       0.0       0.2      33.2
 0 C  pz              0.0       0.0       0.0      15.2       0.0       0.0
 0 C  px              3.9       2.0       7.0       0.0       0.3       2.9
 0 C  py              0.3       0.5       0.1       0.0      15.4       0.2
 0 C  dz2             0.0       0.9       0.2       0.0       7.6       0.5
 0 C  dxz             0.0       0.0       0.0       3.2       0.0       0.0
 0 C  dyz             0.0       0.0       0.0      10.8       0.0       0.0
 0 C  dx2y2           0.8       0.0       0.5       0.0       2.1       4.3
 0 C  dxy             0.0       0.1       0.1       0.0       3.8       0.0
 1 O  s              34.0       4.8      39.3       0.0       0.1       0.6
 1 O  pz              0.0       0.0       0.0       0.6       0.0       0.0
 1 O  px              1.9      11.5      16.4       0.0       0.8       0.8
 1 O  py              0.9      33.7       1.4       0.0       0.6       0.2
 1 O  dz2            22.5       4.8       3.8       0.0       0.0       0.2
 1 O  dxz             0.0       0.0       0.0       3.2       0.0       0.0
 1 O  dx2y2          10.3       3.5      12.0       0.0       0.3       0.8
 1 O  dxy             0.2       0.7       0.0       0.0       1.5       0.0
 2 H  s               0.3       0.8       0.3      33.2      12.4      17.7
 2 H  py              0.2       0.0       0.0       0.0       0.1       0.1
 3 H  s               2.1       0.2       2.6       0.0      41.5      20.3
 3 H  pz              0.0       0.0       0.0       0.3       0.0       0.0
 3 H  px              0.1       0.0       0.4       0.0       0.1       0.2
 3 H  py              0.2       0.3       0.2       0.0       0.0       0.0
 4 H  s               0.3       0.8       0.3      33.2      12.3      17.7
 4 H  py              0.2       0.0       0.0       0.0       0.1       0.1
 5 H  s               5.7      30.4       2.7       0.0       0.7       0.0
 5 H  px              0.0       0.2       0.9       0.0       0.2       0.1
 5 H  py              0.6       0.2       0.0       0.0       0.0       0.0

                     30        31        32        33        34        35   
                   1.24436   1.30821   1.32329   1.43607   1.63050   1.65302
                   0.00000   0.00000   0.00000   0.00000   0.00000   0.00000
                  --------  --------  --------  --------  --------  --------
 0 C  s               1.8       0.0      11.6       1.1      12.4       0.0
 0 C  pz              0.0      49.4       0.0       0.0       0.0      14.1
 0 C  px              0.4       0.0      51.1       0.6       1.2       0.0
 0 C  py             33.3       0.0       1.8      15.1       8.4       0.0
 0 C  dz2             9.7       0.0       1.4       6.7       3.3       0.0
 0 C  dxz             0.0       1.5       0.0       0.0       0.0      34.8
 0 C  dyz             0.0      19.9       0.0       0.0       0.0       2.2
 0 C  dx2y2           1.1       0.0      12.0       1.1       0.1       0.0
 0 C  dxy             0.0       0.0       0.0       3.6      25.0       0.0
 1 O  s               2.3       0.0       0.5       4.3       0.9       0.0
 1 O  pz              0.0       1.2       0.0       0.0       0.0       3.2
 1 O  px              1.4       0.0       3.0       4.6       0.3       0.0
 1 O  py              7.1       0.0       0.0       6.0       3.2       0.0
 1 O  dz2             1.1       0.0       0.4       4.0       0.2       0.0
 1 O  dxz             0.0       0.7       0.0       0.0       0.0       7.6
 1 O  dyz             0.0       0.8       0.0       0.0       0.0       0.1
 1 O  dx2y2           3.7       0.0       0.6       8.7       0.2       0.0
 1 O  dxy             2.9       0.0       0.1       7.9       1.7       0.0
 2 H  s               0.5       0.3       1.4       0.4       1.7       0.0
 2 H  pz              0.2       3.5       0.0       1.0       0.9       3.6
 2 H  px              1.3       1.7       3.7       0.1       6.3      13.4
 2 H  py              3.5       1.0       0.3       5.8       0.2       1.1
 3 H  s               0.6       0.0       1.6       0.0       2.3       0.0
 3 H  pz              0.0      12.9       0.0       0.0       0.0       0.0
 3 H  px              1.4       0.0       4.6       0.0       9.9       0.0
 3 H  py              1.6       0.0       0.0       0.2       4.8       0.0
 4 H  s               0.5       0.3       1.4       0.4       1.7       0.0
 4 H  pz              0.2       3.5       0.0       1.0       0.9       3.6
 4 H  px              1.3       1.8       3.7       0.1       6.3      13.4
 4 H  py              3.5       1.0       0.3       5.8       0.2       1.1
 5 H  s              19.6       0.0       0.3      19.6       0.5       0.0
 5 H  pz              0.0       0.6       0.0       0.0       0.0       1.8
 5 H  px              0.2       0.0       0.1       0.0       6.9       0.0
 5 H  py              0.9       0.0       0.0       2.0       0.5       0.0

                     36        37        38        39        40        41   
                   1.71257   1.86613   2.07014   2.08545   2.11734   2.17351
                   0.00000   0.00000   0.00000   0.00000   0.00000   0.00000
                  --------  --------  --------  --------  --------  --------
 0 C  s              36.9       0.0       0.0       0.0       0.0       1.0
 0 C  pz              0.0       0.0       0.0       1.0       8.6       0.0
 0 C  px              2.2       0.0       0.0       0.0       0.0       2.1
 0 C  py              3.0       0.0       6.8       0.0       0.0       4.1
 0 C  dz2             0.9       0.0       1.7       0.0       0.0       0.0
 0 C  dxz             0.0       0.0       0.0      12.1       5.5       0.0
 0 C  dyz             0.0       0.0       0.0       0.2       1.1       0.0
 0 C  dx2y2           8.1       0.0       0.2       0.0       0.0       6.4
 0 C  dxy             8.8       0.0      13.7       0.0       0.0       0.4
 1 O  s               4.6       0.0       0.8       0.0       0.0       0.1
 1 O  pz              0.0       0.0       0.0      11.5       0.6       0.0
 1 O  px              2.0       0.0       0.6       0.0       0.0       5.2
 1 O  py              0.8       0.0      12.0       0.0       0.0       1.5
 1 O  dz2             0.0       0.0       0.5       0.0       0.0       0.1
 1 O  dxz             0.0       0.0       0.0       0.7      12.4       0.0
 1 O  dyz             0.0       0.0       0.0      12.6       4.0       0.0
 1 O  dx2y2           0.7       0.0       2.7       0.0       0.0      15.9
 1 O  dxy             1.6       0.0      16.2       0.0       0.0       3.8
 2 H  s               6.3       0.0       0.1       0.1       0.3       0.1
 2 H  pz              0.4       8.2       0.0       0.2       6.9       0.0
 2 H  px              0.0       0.0       4.8       5.7      13.2       0.1
 2 H  py              0.3      25.1       3.2       0.3       0.0       2.1
 3 H  s               5.9       0.0       0.2       0.0       0.0       2.4
 3 H  pz              0.0      33.2       0.0       3.5       4.2       0.0
 3 H  px              8.2       0.0      13.4       0.0       0.0       6.2
 3 H  py              1.1       0.0       2.4       0.0       0.0      10.6
 4 H  s               6.3       0.0       0.1       0.1       0.3       0.1
 4 H  pz              0.4       8.3       0.0       0.2       6.9       0.0
 4 H  px              0.0       0.0       4.8       5.6      13.2       0.1
 4 H  py              0.3      25.1       3.2       0.3       0.0       2.1
 5 H  s               0.0       0.0       0.7       0.0       0.0       0.0
 5 H  pz              0.0       0.1       0.0      45.8      22.8       0.0
 5 H  px              1.0       0.0       6.2       0.0       0.0      35.0
 5 H  py              0.0       0.0       5.8       0.0       0.0       0.6

                     42        43        44        45        46        47   
                   2.26226   2.30064   2.38767   2.48959   2.56028   2.66555
                   0.00000   0.00000   0.00000   0.00000   0.00000   0.00000
                  --------  --------  --------  --------  --------  --------
 0 C  s               0.0       0.8       5.7       0.2       0.4       0.0
 0 C  pz             17.5       0.0       0.0       0.0       0.0       4.9
 0 C  px              0.0       1.2      23.9       1.6       6.4       0.0
 0 C  py              0.0      15.7       0.0       1.8       1.3       0.0
 0 C  dz2             0.0      13.7       2.5       2.3       8.3       0.0
 0 C  dxz             7.1       0.0       0.0       0.0       0.0       0.6
 0 C  dyz            14.5       0.0       0.0       0.0       0.0      14.6
 0 C  dx2y2           0.0       0.2      16.1       6.1       4.2       0.0
 0 C  dxy             0.0       5.9       0.6       1.4       0.1       0.0
 1 O  s               0.0       0.3       2.3       1.3       1.3       0.0
 1 O  pz              0.6       0.0       0.0       0.0       0.0      40.4
 1 O  px              0.0       1.1      17.6       3.0       0.3       0.0
 1 O  py              0.0       1.0       1.5       1.7       3.0       0.0
 1 O  dz2             0.0       0.3       8.6       2.9      14.4       0.0
 1 O  dxz             3.5       0.0       0.0       0.0       0.0       0.0
 1 O  dyz             1.2       0.0       0.0       0.0       0.0       0.9
 1 O  dx2y2           0.0       3.9       2.2       7.4       2.5       0.0
 1 O  dxy             0.0       0.9       0.3       9.4       0.1       0.0
 2 H  s               8.5       2.9       0.3       0.1       0.0       0.0
 2 H  pz             11.1       3.4       0.7       1.1       4.0       1.3
 2 H  px              4.4       1.0       0.6       8.9      13.2       0.3
 2 H  py              2.6       2.6       1.0       7.8       0.7       4.7
 3 H  s               0.0       9.1       1.0       0.3       0.0       0.0
 3 H  pz              0.5       0.0       0.0       0.0       0.0      24.4
 3 H  px              0.0      10.1       6.2       0.4      13.6       0.0
 3 H  py              0.0      11.9       2.3       0.2       2.8       0.0
 4 H  s               8.5       2.9       0.3       0.1       0.0       0.0
 4 H  pz             11.1       3.4       0.7       1.1       4.0       1.3
 4 H  px              4.4       1.0       0.6       8.9      13.2       0.3
 4 H  py              2.6       2.7       1.0       7.8       0.7       4.7
 5 H  s               0.0       0.2       0.0       1.2       0.4       0.0
 5 H  pz              1.9       0.0       0.0       0.0       0.0       1.5
 5 H  px              0.0       3.5       3.7       1.2       2.8       0.0
 5 H  py              0.0       0.4       0.2      21.8       2.4       0.0

                     48        49        50        51        52        53   
                   2.73181   2.73559   2.78253   2.96209   3.07493   3.07757
                   0.00000   0.00000   0.00000   0.00000   0.00000   0.00000
                  --------  --------  --------  --------  --------  --------
 0 C  s               0.0       1.0       0.2       0.6       7.3       0.0
 0 C  pz              1.4       0.0       0.0       0.0       0.0       0.9
 0 C  px              0.0       2.4       0.2       0.1       0.4       0.0
 0 C  py              0.0       1.4       2.4       0.3       0.0       0.0
 0 C  dz2             0.0       2.5       9.5       0.1       0.0       0.0
 0 C  dxz             1.2       0.0       0.0       0.0       0.0       0.2
 0 C  dyz            10.3       0.0       0.0       0.0       0.0       0.0
 0 C  dx2y2           0.0       2.7       1.4       1.4       0.3       0.0
 0 C  dxy             0.0       1.0       3.6       2.3       0.1       0.0
 1 O  s               0.0       4.1       1.1       0.5      43.0       0.0
 1 O  pz             35.2       0.0       0.0       0.0       0.0       2.4
 1 O  px              0.0      12.7       8.7      18.5       3.6       0.0
 1 O  py              0.0      24.8       2.7      32.3       0.8       0.0
 1 O  dz2             0.0       8.4      23.7       1.6      12.2       0.0
 1 O  dxz            14.8       0.0       0.0       0.0       0.0      12.4
 1 O  dyz            15.9       0.0       0.0       0.0       0.0      61.2
 1 O  dx2y2           0.0       2.3       1.2      13.0       1.5       0.0
 1 O  dxy             0.0       9.6       3.5       1.0       0.1       0.0
 2 H  s               0.5       0.0       0.1       0.1       0.8       0.3
 2 H  pz              0.2       0.2       6.7       0.0       5.5       0.6
 2 H  px              0.6       0.5       1.7       0.3       0.0       0.3
 2 H  py              3.2       4.7       6.7       1.1       2.0       0.9
 3 H  s               0.0       0.0       0.1       0.1       0.9       0.0
 3 H  pz             12.1       0.0       0.0       0.0       0.0       0.8
 3 H  px              0.0       5.1       1.1       2.5       0.1       0.0
 3 H  py              0.0       0.3       0.2       2.3       6.4       0.0
 4 H  s               0.5       0.0       0.1       0.1       0.8       0.3
 4 H  pz              0.2       0.2       6.8       0.0       5.5       0.6
 4 H  px              0.6       0.5       1.7       0.3       0.0       0.3
 4 H  py              3.2       4.7       6.7       1.1       2.0       0.9
 5 H  s               0.0       0.7       0.6       1.7       0.2       0.0
 5 H  pz              0.3       0.0       0.0       0.0       0.0      17.9
 5 H  px              0.0       0.1       0.0      13.2       1.7       0.0
 5 H  py              0.0      10.3       9.5       5.7       4.4       0.0

                     54        55        56        57        58        59   
                   3.16758   3.20316   3.33507   3.52008   3.52644   4.05457
                   0.00000   0.00000   0.00000   0.00000   0.00000   0.00000
                  --------  --------  --------  --------  --------  --------
 0 C  s               0.0       9.2       0.4       0.0       0.0       2.1
 0 C  pz              0.8       0.0       0.0       0.0      12.5       0.0
 0 C  px              0.0       2.6       0.3       0.0       0.0       8.8
 0 C  py              0.0       0.1       1.9      12.9       0.0       0.1
 0 C  dz2             0.0       2.2       1.1      12.4       0.0       4.4
 0 C  dxz            12.8       0.0       0.0       0.0      12.0       0.0
 0 C  dyz             3.1       0.0       0.0       0.0      16.6       0.0
 0 C  dx2y2           0.0       4.0       1.9       4.8       0.0       9.5
 0 C  dxy             0.0       0.3       9.8      11.0       0.0       0.0
 1 O  s               0.0      26.2       0.6       0.3       0.0      23.2
 1 O  pz             11.2       0.0       0.0       0.0       0.1       0.0
 1 O  px              0.0       5.7       1.3       0.0       0.0      18.1
 1 O  py              0.0       0.2      10.3       0.5       0.0       1.3
 1 O  dz2             0.0       0.9       0.8       0.1       0.0      17.0
 1 O  dxz            53.7       0.0       0.0       0.0       1.3       0.0
 1 O  dyz             6.3       0.0       0.0       0.0       2.7       0.0
 1 O  dx2y2           0.0       0.4      10.1       0.2       0.0       9.8
 1 O  dxy             0.0       1.7      41.4       0.8       0.0       0.4
 2 H  s               0.1       1.7       0.1       2.5       7.7       0.4
 2 H  pz              0.0       7.9       0.7       5.7      11.3       0.6
 2 H  px              5.1       2.8       0.3       0.8       2.0       0.1
 2 H  py              0.3       2.9       0.0       0.3       5.9       0.2
 3 H  s               0.0       1.4       0.5      11.1       0.0       0.1
 3 H  pz              1.0       0.0       0.0       0.0       0.7       0.0
 3 H  px              0.0       1.5       4.3       3.0       0.0       0.3
 3 H  py              0.0      10.6       0.5      24.1       0.0       0.4
 4 H  s               0.1       1.7       0.1       2.5       7.7       0.4
 4 H  pz              0.0       7.8       0.7       5.6      11.3       0.6
 4 H  px              5.1       2.8       0.3       0.8       2.0       0.1
 4 H  py              0.3       2.9       0.0       0.3       5.9       0.2
 5 H  s               0.0       0.1       0.1       0.1       0.0       0.7
 5 H  pz              0.1       0.0       0.0       0.0       0.4       0.0
 5 H  px              0.0       0.0      10.5       0.1       0.0       0.3
 5 H  py              0.0       2.2       2.3       0.1       0.0       0.9

                     60        61        62   
                   4.57013  21.93117  43.47969
                   0.00000   0.00000   0.00000
                  --------  --------  --------
 0 C  s               0.2      99.6       0.0
 0 C  px              0.9       0.0       0.0
 0 C  dz2             0.2       0.0       0.0
 0 C  dx2y2           1.5       0.0       0.0
 0 C  dxy             0.1       0.0       0.0
 1 O  s               6.1       0.1      99.9
 1 O  px              6.8       0.1       0.0
 1 O  py             12.0       0.0       0.0
 1 O  dz2             5.7       0.0       0.0
 1 O  dx2y2          23.4       0.0       0.0
 1 O  dxy            12.6       0.0       0.0
 3 H  s               0.1       0.0       0.0
 3 H  py              0.2       0.0       0.0
 5 H  s              14.4       0.0       0.0
 5 H  px              2.4       0.0       0.0
 5 H  py             13.5       0.0       0.0


                      *****************************
                      * MAYER POPULATION ANALYSIS *
                      *****************************

  NA   - Mulliken gross atomic population
  ZA   - Total nuclear charge
  QA   - Mulliken gross atomic charge
  VA   - Mayer's total valence
  BVA  - Mayer's bonded valence
  FA   - Mayer's free valence

  ATOM       NA         ZA         QA         VA         BVA        FA
  0 C      6.2474     6.0000    -0.2474     3.8217     3.8217     0.0000
  1 O      8.4358     8.0000    -0.4358     1.7757     1.7757    -0.0000
  2 H      0.8761     1.0000     0.1239     0.9571     0.9571     0.0000
  3 H      0.8592     1.0000     0.1408     0.9606     0.9606     0.0000
  4 H      0.8761     1.0000     0.1239     0.9571     0.9571     0.0000
  5 H      0.7055     1.0000     0.2945     0.9098     0.9098     0.0000

  Mayer bond orders larger than 0.100000
B(  0-C ,  1-O ) :   0.9028 B(  0-C ,  2-H ) :   0.9700 B(  0-C ,  3-H ) :   0.9791 
B(  0-C ,  4-H ) :   0.9700 B(  1-O ,  5-H ) :   0.9024 

-------
TIMINGS
-------

Total SCF time: 0 days 0 hours 0 min 1 sec 

Total time                  ....       1.362 sec
Sum of individual times     ....       1.353 sec  ( 99.3%)

SCF preparation             ....       0.021 sec  (  1.6%)
Fock matrix formation       ....       1.272 sec  ( 93.4%)
  Startup                   ....       0.001 sec  (  0.0% of F)
  Split-RI-J                ....       0.092 sec  (  7.3% of F)
  XC integration            ....       1.174 sec  ( 92.3% of F)
    XC Preparation          ....       0.000 sec  (  0.0% of XC)
    Basis function eval.    ....       0.216 sec  ( 18.4% of XC)
    Density eval.           ....       0.328 sec  ( 27.9% of XC)
    XC-Functional eval.     ....       0.292 sec  ( 24.9% of XC)
    XC-Potential eval.      ....       0.301 sec  ( 25.6% of XC)
Diagonalization             ....       0.000 sec  (  0.0%)
Density matrix formation    ....       0.017 sec  (  1.3%)
Total Energy calculation    ....       0.000 sec  (  0.0%)
Population analysis         ....       0.011 sec  (  0.8%)
Orbital Transformation      ....       0.015 sec  (  1.1%)
Orbital Orthonormalization  ....       0.000 sec  (  0.0%)
DIIS solution               ....       0.016 sec  (  1.1%)
  MO trafo                  ....       0.000 sec  (  0.0 % of DIIS)
  Orb grad                  ....       0.000 sec  (  0.0 % of DIIS)
  Energy W gradient         ....       0.000 sec  (  0.0 % of DIIS)
  DIIS error                ....       0.000 sec  (  2.5 % of DIIS)
  DIIS work                 ....       0.006 sec  ( 40.2 % of DIIS)
  Form Q                    ....       0.000 sec  (  0.0 % of DIIS)
  Form QpQm                 ....       0.000 sec  (  0.0 % of DIIS)
  Exp/Cayley                ....       0.000 sec  (  0.0 % of DIIS)
  Orb update                ....       0.000 sec  (  0.0 % of DIIS)
  Wake-sleep                ....       0.000 sec  (  1.4 % of DIIS)
SOSCF solution              ....       0.001 sec  (  0.1%)
  MO trafo                  ....       0.001 sec  ( 71.1 % of SOSCF)
  Orb grad                  ....       0.000 sec  (  3.1 % of SOSCF)
  Rot update                ....       0.000 sec  (  0.9 % of SOSCF)
  Step                      ....       0.000 sec  ( 22.9 % of SOSCF)
Finished LeanSCF after   1.4 sec

Maximum memory used throughout the entire LEANSCF-calculation: 7.2 MB


-------------------------------------------------------------------------------
                          DFT DISPERSION CORRECTION                            
                                                                               
                                DFTD4 V3.4.0                                   
-------------------------------------------------------------------------------
The R2SCAN3C composite method is recognized
Using three-body term ABC
Active option DFTDOPT                   ...         5   

-------------------------   ----------------
Dispersion correction           -0.000505424
-------------------------   ----------------

------------------   -----------------
gCP correction             0.004702451
------------------   -----------------

-------------------------   --------------------
FINAL SINGLE POINT ENERGY      -115.694876265457
-------------------------   --------------------


------------------------------------------------------------------------------
                              ORCA PROPERTY CALCULATIONS
------------------------------------------------------------------------------

GBWName                                 ... sp.gbw
Number of atoms                         ...      6
Number of basis functions               ...     63
Max core memory                         ...   1024 MB

Electric properties:
Dipole moment                           ... YES
Quadrupole moment                       ...  NO
Static polarizability (Dipole/Dipole)   ...  NO
Static polarizability (Dipole/Quad.)    ...  NO
Static polarizability (Quad./Quad.)     ...  NO
Static polarizability (Velocity)        ...  NO

Atomic electric properties:
Dipole moment                           ...  NO
Quadrupole moment                       ...  NO
Static polarizability                   ...  NO

Choice of electric origin               ... Center of mass
Position of electric origin             ...     0.000029     0.000007     0.000000

General magnetic properties:
Magnetizability                         ...  NO

EPR properties:
g-Tensor (aka g-matrix)                 ...  NO
Zero-Field splitting spin-orbit         ...  NO
Zero-field splitting spin-spin          ...  NO
Hyperfine couplings                     ...  NO (   0 nuclei)
Quadrupole couplings                    ...  NO (   0 nuclei)
Contact density                         ...  NO (   0 nuclei)

NMR properties:
Chemical shifts                         ...  NO (   0 nuclei)
Spin-rotation constants                 ...  NO (   0 nuclei)
Spin-spin couplings                     ...  NO (   0 nuclei,    0 pairs)

Choice of magnetic origin               ... GIAO
Position of magnetic origin             ...     0.000000     0.000000     0.000000

Properties with geometric perturbations:
SCF Hessian                             ...  NO
IR spectrum                             ...  NO
VCD spectrum                            ...  NO
X-ray spectroscopy properties:
SCF XES/XAS/RIXS spectra                ...  NO


-------------
DIPOLE MOMENT
-------------

Method             : SCF
Type of density    : Electron Density
Multiplicity       :   1
Irrep              :   0
Energy             :  -115.6990732927726810 Eh
Relativity type    : 
Basis              : AO
                                X                 Y                 Z
Electronic contribution:     -1.777584325      -0.267121533       0.000006446
Nuclear contribution   :      2.090999950       0.811376068      -0.000003780
                        -----------------------------------------
Total Dipole Moment    :      0.313415625       0.544254535       0.000002666
                        -----------------------------------------
Magnitude (a.u.)       :      0.628046458
Magnitude (Debye)      :      1.596367230



--------------------
Rotational spectrum 
--------------------
 
Rotational constants in cm-1:             4.268954             0.841016             0.810967 
Rotational constants in MHz :        127980.014202         25213.029829         24312.178899 

Dipole components along the rotational axes: 
x,y,z [a.u.] :    -0.313412     0.544256     0.000003 
x,y,z [Debye]:    -0.796631     1.383390     0.000007 

 

Dipole moment calculation done in   0.0 sec 

Maximum memory used throughout the entire PROP-calculation: 4.4 MB

--------------------------------
SUGGESTED CITATIONS FOR THIS RUN
--------------------------------

Below you find a list of papers that are relevant to this ORCA run
We neither can nor want to force you to cite these papers, but we appreciate if you do
You receive ORCA, which is the product of decades of hard work by many enthusiastic individuals, for free
The only thing we kindly ask in return is that you cite our papers,
We deeply appreciate it, if you show your appreciation for ORCA by not just citing the generic ORCA reference.

Please note that relegating all ORCA citations to the supporting information does *not* help us.
SI sections are not indexed - citations you put there will not count into any citation statistics
But we need these citations in order to attract the funding resources that allow us to do what we are doing

Therefore, if you are a happy ORCA user, please consider citing a few of the papers listed below in the main body of your paper

In addition to the list printed below, the program has created the file sp.bibtex that contains the list in bibtex format
You can import this file easily into all common literature databanks and citation aid programs


List of essential papers. We consider these as the minimum necessary citations

  1. Neese,F.
     Software update: the ORCA program system, version 5.0
     WIRES Comput. Molec. Sci., 2022 12(1)e1606
     doi.org/10.1002/wcms.1606
  2. Grimme,S.; Hansen,A.; Ehlert,S.; Mewes,J.
     r2SCAN-3c: A 'Swiss army knife' composite electronic-structure method
     J. Chem. Phys., 2021 154 064103
     doi.org/10.1063/5.0040021

List of papers to cite with high priority. The work reported in these papers was absolutely
necessary for this run to complete.
Our perspective: the developers of density functionals and basis sets usually get cited in chemistry papers
Good! But without the algorithms to do something with them, the functionals or basis sets would not do anything.
Hence, in our opinion, the algorithm design and method developments papers are equally worthy of getting cited

  1. Neese,F.
     An improvement of the resolution of the identity approximation for the formation of the Coulomb matrix
     J. Comp. Chem., 2003 24(14)1740-1747
     doi.org/10.1002/jcc.10318
  2. Neese,F.
     The SHARK Integral Generation and Digestion System
     J. Comp. Chem., 2022  1-16
     doi.org/10.1002/jcc.26942
  3. Lehtola,S.; Steigemann,C.; Oliveira,M.; Marques,M.
     Recent developments in Libxc - A comprehensive library of functionals for density functional theory
     Software X, 2018 7 
     doi.org/10.1016/j.softx.2017.11.002
  4. Caldeweyher,E.; Bannwarth,C.; Grimme,S.
     Extension of the D3 dispersion coefficient model
     J. Chem. Phys., 2017 147 034112
     doi.org/10.1063/1.4993215
  5. Caldeweyher,E.; Ehlert,S.; Hansen,A.; Neugebauer,H.; Spicher,S.; Bannwarth,C.; Grimme,S.
     A generally applicable atomic-charge dependent London dispersion correction
     J. Chem. Phys., 2019 150 154122
     doi.org/10.1063/1.5090222
  6. Caldeweyher,E.; Mewes,J.; Ehlert,S.; Grimme,S.
     Extension and evaluation of the D4 London-dispersion model for periodic systems
     Phys. Chem. Chem. Phys., 2020 22(16)8499-8512
     doi.org/10.1039/D0CP00502A
  7. Wittmann,L.; Gordiy,I.; Friede,M.; Helmich-Paris,B.; Grimme,S.; Hansen,A.; Bursch,M.
     Extension of the D3 and D4 London Dispersion Corrections to the full Actinides Series
     Phys. Chem. Chem. Phys., 2024 26(32)21379-21394
     doi.org/https://doi.org/10.1039/D4CP01514B 

List of suggested additional citations. These are papers that are important in the 'surrounding' of 
of this run, or papers that preceded the highly important papers. If you like your results we are grateful for a citation.

  1. Neese,F.
     The ORCA program system
     WIRES Comput. Molec. Sci., 2012 2(1)73-78
     doi.org/10.1002/wcms.81
  2. Neese,F.
     Software update: the ORCA program system, version 4.0
     WIRES Comput. Molec. Sci., 2018 8(1)1-6
     doi.org/10.1002/wcms.1327
  3. Neese,F.; Wennmohs,F.; Becker,U.; Riplinger,C.
     The ORCA quantum chemistry program package
     J. Chem. Phys., 2020 152 Art. No. L224108
     doi.org/10.1063/5.0004608

List of optional additional citations

  1. Neese,F.
     Approximate second-order SCF convergence for spin unrestricted wavefunctions
     Chem. Phys. Lett., 2000 325(1-3)93-98
     doi.org/10.1016/s0009-2614(00)00662-x

Timings for individual modules:

Sum of individual times          ...        1.553 sec (=   0.026 min)
Startup calculation              ...        0.114 sec (=   0.002 min)   7.4 %
SCF iterations                   ...        1.408 sec (=   0.023 min)  90.6 %
Property calculations            ...        0.031 sec (=   0.001 min)   2.0 %
                             ****ORCA TERMINATED NORMALLY****
TOTAL RUN TIME: 0 days 0 hours 0 minutes 1 seconds 615 msec
