      -----------------------------------------------------------      
     |                   =====================                   |     
     |                           x T B                           |     
     |                   =====================                   |     
     |                         S. Grimme                         |     
     |          Mulliken Center for Theoretical Chemistry        |     
     |                    University of Bonn                     |     
      -----------------------------------------------------------      

   * xtb version 6.7.1 (41059b4) compiled by 'michael@archlinux' on 2025-03-24

   xtb is free software: you can redistribute it and/or modify it under
   the terms of the GNU Lesser General Public License as published by
   the Free Software Foundation, either version 3 of the License, or
   (at your option) any later version.
   
   xtb is distributed in the hope that it will be useful,
   but WITHOUT ANY WARRANTY; without even the implied warranty of
   MERCHANTABILITY or FITNESS FOR A PARTICULAR PURPOSE.  See the
   GNU Lesser General Public License for more details.
   
   Cite this work as:
   * C. Bannwarth, E. Caldeweyher, S. Ehlert, A. Hansen, P. Pracht,
     J. Seibert, S. Spicher, S. Grimme, WIREs Comput. Mol. Sci., 2020, 11,
     e01493. DOI: 10.1002/wcms.1493
   
   for GFN2-xTB:
   * C. Bannwarth, S. Ehlert and S. Grimme., J. Chem. Theory Comput., 2019,
     15, 1652-1671. DOI: 10.1021/acs.jctc.8b01176
   for GFN1-xTB:
   * S. Grimme, C. Bannwarth, P. Shushkov, J. Chem. Theory Comput., 2017,
     13, 1989-2009. DOI: 10.1021/acs.jctc.7b00118
   for GFN0-xTB:
   * P. Pracht, E. Caldeweyher, S. Ehlert, S. Grimme, ChemRxiv, 2019, preprint.
     DOI: 10.26434/chemrxiv.8326202.v1
   for GFN-FF:
   * S. Spicher and S. Grimme, Angew. Chem. Int. Ed., 2020, 59, 15665-15673.
     DOI: 10.1002/anie.202004239
   
   for ALPB and GBSA implicit solvation:
   * S. Ehlert, M. Stahn, S. Spicher, S. Grimme, J. Chem. Theory Comput.,
     2021, 17, 4250-4261. DOI: 10.1021/acs.jctc.1c00471
   
   for ddCOSMO and CPCM-X implicit solvation:
   * M. Stahn, S. Ehlert, S. Grimme, J. Phys. Chem. A,
     2023, XX, XXXX-XXXX. DOI: 10.1021/acs.jpca.3c04382
   
   for DFT-D4:
   * E. Caldeweyher, C. Bannwarth and S. Grimme, J. Chem. Phys., 2017,
     147, 034112. DOI: 10.1063/1.4993215
   * E. Caldeweyher, S. Ehlert, A. Hansen, H. Neugebauer, S. Spicher,
     C. Bannwarth and S. Grimme, J. Chem. Phys., 2019, 150, 154122.
     DOI: 10.1063/1.5090222
   * E. Caldeweyher, J.-M. Mewes, S. Ehlert and S. Grimme, Phys. Chem. Chem. Phys.
     2020, 22, 8499-8512. DOI: 10.1039/D0CP00502A
   
   for sTDA-xTB:
   * S. Grimme and C. Bannwarth, J. Chem. Phys., 2016, 145, 054103.
     DOI: 10.1063/1.4959605
   
   in the mass-spec context:
   * V. Asgeirsson, C. Bauer and S. Grimme, Chem. Sci., 2017, 8, 4879.
     DOI: 10.1039/c7sc00601b
   * J. Koopman and S. Grimme, ACS Omega 2019, 4, 12, 15120-15133.
     DOI: 10.1021/acsomega.9b02011
   
   for metadynamics refer to:
   * S. Grimme, J. Chem. Theory Comput., 2019, 155, 2847-2862
     DOI: 10.1021/acs.jctc.9b00143
   
   for SPH calculations refer to:
   * S. Spicher and S. Grimme, J. Chem. Theory Comput., 2021, 17, 1701-1714
     DOI: 10.1021/acs.jctc.0c01306
   
   for ONIOM refer to:
   * C. Plett, A. Katbashev, S. Ehlert, S. Grimme, M. Bursch,
     Phys. Chem. Chem. Phys., 2023, 25, 17860-17868. DOI: 10.1039/D3CP02178E
   
   for DIPRO refer to:
   * J. Kohn, N. Gildemeister, S. Grimme, D. Fazzi, A. Hansen,
     J. Chem. Phys., 2023, just accepted.
   
   for PTB refer to:
   * S. Grimme, M. Mueller, A. Hansen, J. Chem. Phys., 2023, 158, 124111.
     DOI: 10.1063/5.0137838
   
   with help from (in alphabetical order)
   P. Atkinson, C. Bannwarth, F. Bohle, G. Brandenburg, E. Caldeweyher
   M. Checinski, S. Dohm, S. Ehlert, S. Ehrlich, I. Gerasimov, C. Hölzer
   A. Katbashev, J. Kohn, J. Koopman, C. Lavigne, S. Lehtola, F. März, M. Müller,
   F. Musil, H. Neugebauer, J. Pisarek, C. Plett, P. Pracht, F. Pultar,
   J. Seibert, P. Shushkov, S. Spicher, M. Stahn, M. Steiner, T. Strunk,
   J. Stückrath, T. Rose, and J. Unsleber
   
 * started run on 2025/04/09 at 02:25:18.968     
   ID    Z sym.   atoms
    1    6 C      1, 2, 4, 6, 8
    2    1 H      3, 5, 7, 9, 15-20
    3    8 O      10-14

           -------------------------------------------------
          |                Calculation Setup                |
           -------------------------------------------------

          program call               : /usr/bin/xtb xtb_opt.coord --opt normal --orca -I xtb_opt-xcontrol-inp
          coordinate file            : xtb_opt.coord
          omp threads                :                    16

           -------------------------------------------------
          |                   Orca driver                   |
           -------------------------------------------------
orca executable           : /home/michael/Documents/CHEM4561/orca_avx2/orca
orca input file           : xtb_opt.inp
orca input line           : 
orca parallel             : true
orca number of threads    : 16
                         * ORCA takes the control...
  ------------------------------------------------------------------------

                                 *****************
                                 * O   R   C   A *
                                 *****************

                                            #,                                       
                                            ###                                      
                                            ####                                     
                                            #####                                    
                                            ######                                   
                                           ########,                                 
                                     ,,################,,,,,                         
                               ,,#################################,,                 
                          ,,##########################################,,             
                       ,#########################################, ''#####,          
                    ,#############################################,,   '####,        
                  ,##################################################,,,,####,       
                ,###########''''           ''''###############################       
              ,#####''   ,,,,##########,,,,          '''####'''          '####       
            ,##' ,,,,###########################,,,                        '##       
           ' ,,###''''                  '''############,,,                           
         ,,##''                                '''############,,,,        ,,,,,,###''
      ,#''                                            '''#######################'''  
     '                                                          ''''####''''         
             ,#######,   #######,   ,#######,      ##                                
            ,#'     '#,  ##    ##  ,#'     '#,    #''#        ,####,   ,####,        
            ##       ##  ##   ,#'  ##            #'  '#       #'       #'  '#        
            ##       ##  #######   ##           ,######,      #####,   #    #        
            '#,     ,#'  ##    ##  '#,     ,#' ,#      #,     #,   #   #,  ,#        
             '#######'   ##     ##  '#######'  #'      '#     '####' # '####'        



                #########################################################
                #                        -***-                          #
                #          Department of theory and spectroscopy        #
                #                                                       #
                #                      Frank Neese                      #
                #                                                       #
                #     Directorship, Architecture, Infrastructure        #
                #                    SHARK, DRIVERS                     #
                #        Core code/Algorithms in most modules           #
                #                                                       #
                #        Max Planck Institute fuer Kohlenforschung      #
                #                Kaiser Wilhelm Platz 1                 #
                #                 D-45470 Muelheim/Ruhr                 #
                #                      Germany                          #
                #                                                       #
                #                  All rights reserved                  #
                #                        -***-                          #
                #########################################################


                         Program Version 6.0.1  -  RELEASE   -


 With contributions from (in alphabetic order):
[Max-Planck-Institut fuer Kohlenforschung]                               
  Daniel Aravena         : Magnetic Suceptibility                        
  Michael Atanasov       : Ab Initio Ligand Field Theory (pilot matlab implementation)
  Alexander A. Auer      : GIAO ZORA, VPT2 properties, NMR spectrum      
  Ute Becker             : All parallelization in ORCA, NUMFREQ, NUMCALC 
  Giovanni Bistoni       : ED, misc. LED, open-shell LED, HFLD           
  Martin Brehm           : Molecular dynamics                            
  Dmytro Bykov           : pre 5.0 version of the SCF Hessian            
  Marcos Casanova-Páez   : Triplet and SCS-CIS(D). UHF-(DLPNO)-IP/EA/STEOM-CCSD. UHF-CVS-IP/STEOM-CCSD   
  Vijay G. Chilkuri      : MRCI spin determinant printing, contributions to CSF-ICE 
  Pauline Colinet        : FMM embedding                                 
  Dipayan Datta          : RHF DLPNO-CCSD density                        
  Achintya Kumar Dutta   : EOM-CC, STEOM-CC                              
  Nicolas Foglia         : Exact transition moments, OPA infrastructure, MCD improvements    
  Dmitry Ganyushin       : Spin-Orbit,Spin-Spin,Magnetic field MRCI      
  Miquel Garcia-Rates    : C-PCM and meta-GGA Hessian, CCSD/C-PCM, Gaussian charge scheme 
  Tiago L. C. Gouveia    : GS-ROHF, GS-ROCIS                             
  Yang Guo               : DLPNO-NEVPT2, F12-NEVPT2, CIM, IAO-localization        
  Andreas Hansen         : Spin unrestricted coupled pair/coupled cluster methods 
  Ingolf Harden          : AUTO-CI MPn and infrastructure                
  Benjamin Helmich-Paris : MC-RPA, TRAH-(SCF,CASSCF), AVAS, COSX integrals, SCF dyn. polar. 
  Lee Huntington         : MR-EOM, pCC                                   
  Robert Izsak           : Overlap fitted RIJCOSX, COSX-SCS-MP3, EOM     
  Riya Kayal             : Wick's Theorem for AUTO-CI, AUTO-CI UHF-CCSDT 
  Emily Kempfer          : AUTO-CI, RHF CISDT and CCSDT                  
  Christian Kollmar      : KDIIS, OOCD, Brueckner-CCSD(T), CCSD density, CASPT2, CASPT2-K, improved NEVPT2 
  Axel Koslowski         : Symmetry handling                             
  Simone Kossmann        : meta-GGA functionals, TD-DFT gradient, OOMP2, (MP2 Hessian; deprecated post 5.0) 
  Lucas Lang             : DCDCAS                                        
  Marvin Lechner         : AUTO-CI (C++ implementation), FIC-MRCC        
  Spencer Leger          : CASSCF response                               
  Dagmar Lenk            : GEPOL surface, SMD, ORCA-2-JSON               
  Dimitrios Liakos       : Extrapolation schemes; Compound Job, initial MDCI parallelization 
  Dimitrios Manganas     : Further ROCIS development; embedding schemes. LFT, Crystal Embedding 
  Dimitrios Pantazis     : SARC Basis sets                               
  Anastasios Papadopoulos: AUTO-CI, single reference methods and gradients 
  Taras Petrenko         : pre 6.0 DFT Hessian and TD-DFT gradient, (ASA, deprecated), ECA, 1-Electron XAS/XES, NRVS 
  Peter Pinski           : DLPNO-MP2, DLPNO-MP2 Gradient                 
  Christoph Reimann      : Effective Core Potentials                     
  Marius Retegan         : Local ZFS, SOC                                
  Christoph Riplinger    : Optimizer, TS searches, QM/MM, DLPNO-CCSD(T), (RO)-DLPNO pert. Triples 
  Michael Roemelt        : Original ROCIS implementation                 
  Masaaki Saitow         : Open-shell DLPNO-CCSD energy and density      
  Barbara Sandhoefer     : DKH picture change effects                    
  Kantharuban Sivalingam : CASSCF convergence/infrastructure, NEVPT2 and variants, FIC-MRCI 
  Bernardo de Souza      : ESD, SOC TD-DFT                               
  Georgi L. Stoychev     : AutoAux, RI-MP2 NMR, DLPNO-MP2 response, X2C  
  Van Anh Tran           : RI-MP2 g-tensors                              
  Willem Van den Heuvel  : Paramagnetic NMR                              
  Zikuan Wang            : NOTCH, Electric field optimization            
  Frank Wennmohs         : Technical directorship and infrastructure     
  Hang Xu                : AUTO-CI-Response properties                   
                                                                         
[FACCTs GmbH]                                                            
  Markus Bursch, Miquel Garcia-Rates, Christoph Riplinger, Bernardo de Souza, Georgi L. Stoychev 
                                                                 
  APM, Basis sets (HGBS, AHGBS, def-TZVP (Ac-Lr), def2-XVPD (La-Lu)), CI-OPT, improved COSX, DLPNO-Multilevel,           
  DOCKER, DRACO, updates on ESD, GOAT, IRC, LR-CPCM, MBIS, meta-GGA TD-DFT gradient, ML-optimized integration grids, 
  MM, NACMEs, nearIR, NEB, NEB-TS, NL-DFT gradient (VV10), 2- and 3-layer-ONIOM, interface openCOSMO-RS, QMMM,   
  Crystal-QMMM, SF, symmetry and pop. for TD-DFT, r2SCAN hybrids, SOLVATOR                                   
                                                                         
[Other institutions]                                                     
  V. Asgeirsson          : NEB                                           
  Christoph Bannwarth    : sTDA-DFT, sTD-DFT, PBEh-3c, B97-3c, D3        
  Sebastian Ehlert       : rSCAN, r2SCAN, r2SCAN-3c, D4, dhf basis sets  
  Marvin Friede          : D4 for Fr, Ra, Ac-Lr                          
  Lars Goerigk           : TD-DFT with DH, B97 family of functionals     
  Stefan Grimme          : VdW corrections, initial TS optimization, DFT functionals, gCP, sTDA/sTD-DF 
  Waldemar Hujo          : DFT-NL                                        
  H. Jonsson             : NEB                                           
  Holger Kruse           : gCP                                           
  Marcel Mueller         : wB97X-3c, vDZP basis set                      
  Hagen Neugebauer       : wr2SCAN                                       
  Tobias Risthaus        : range-separated hybrid DFT                    
  Lukas Wittmann         : regularized MP2, r2SCAN double-hybrids, wr2SCAN        
                                                                         
We gratefully acknowledge several colleagues who have allowed us to      
interface, adapt or use parts of their codes:                            
  Ed Valeev, F. Pavosevic, A. Kumar             : LibInt (2-el integral package), F12 methods 
  Garnet Chan, S. Sharma, J. Yang, R. Olivares  : DMRG                   
  Ulf Ekstrom                                   : XCFun DFT Library      
  Mihaly Kallay                                 : mrcc  (arbitrary order and MRCC methods)
  Frank Weinhold                                : gennbo (NPA and NBO analysis)           
  Simon Mueller                                 : openCOSMO-RS                            
  Christopher J. Cramer and Donald G. Truhlar   : smd solvation model                     
  S Lehtola, MJT Oliveira, MAL Marques          : LibXC Library                           
  Liviu Ungur et al                             : ANISO software                          


 Your calculation uses the libint2 library for the computation of 2-el integrals
 For citations please refer to: http://libint.valeyev.net

 Your ORCA version has been built with support for libXC version: 6.2.2
 For citations please refer to: https://libxc.gitlab.io

 This ORCA versions uses:
   CBLAS   interface :  Fast vector & matrix operations
   LAPACKE interface :  Fast linear algebra routines
   SCALAPACK package :  Parallel linear algebra routines
   Shared memory     :  Shared parallel matrices
   BLAS/LAPACK       :  OpenBLAS 0.3.27  USE64BITINT DYNAMIC_ARCH NO_AFFINITY Zen SINGLE_THREADED
        Core in use  :  Zen
   Copyright (c) 2011-2014, The OpenBLAS Project




***************************************
The coordinates will be read from file: xtb_opt.xyz
***************************************


Your calculation utilizes the geometrical counterpoise correction gCP
Please cite in your paper:
H.Kruse, S. Grimme J.Chem.Phys., 136, (2012), 154101 
   

Your calculation utilizes the atom-pairwise dispersion correction
based on EEQ partial charges (D4)


================================================================================

----- Orbital basis set information -----
Your calculation utilizes the basis: def2-mTZVPP
   Stefan Grimme, Andreas Hansen, Sebastian Ehlert, and Jan-Michael Mewes 
   J. Chem. Phys. 154, 064103 (2021). DOI: 10.1063/5.0040021

----- AuxJ basis set information -----
Your calculation utilizes the auxiliary basis: def2/J
   F. Weigend, Phys. Chem. Chem. Phys. 8, 1057 (2006).

================================================================================
                                        WARNINGS
                       Please study these warnings very carefully!
================================================================================

WARNING: Old DensityContainer found on disk!
         Will remove this file - 
         If you want to keep old densities, please start your calculation with a different basename. 



WARNING: SCAN, rSCAN, or r2SCAN functional requested.
  ===> : libXC variant has now been activated.



================================================================================
                                       INPUT FILE
================================================================================
NAME = xtb_opt.inp
|  1> ! r2scan-3c def2/J RI DEFGRID2 scfconv7 ENGRAD tightSCF miniprint
|  2> * xyzfile 0 1 xtb_opt.xyz
|  3> 
|  4>                          ****END OF INPUT****
================================================================================

                     *******************************
                     * Energy+Gradient Calculation *
                     *******************************

---------------------------------
CARTESIAN COORDINATES (ANGSTROEM)
---------------------------------
  C      0.604335    1.703319   -0.037051
  C      1.388144    0.405827   -0.253473
  H      1.617380    0.284683   -1.317690
  C      0.544541   -0.794145    0.210405
  H      0.352467   -0.700533    1.296543
  C     -0.807391   -0.774573   -0.521260
  H     -0.635055   -0.930402   -1.589843
  C     -1.463067    0.607655   -0.303050
  H     -2.357480    0.688628   -0.937567
  O     -0.643011    1.671231   -0.701952
  O     -1.804771    0.689877    1.054660
  O     -1.673394   -1.788204   -0.115945
  O      1.216687   -1.997366   -0.049622
  O      2.635702    0.414859    0.399214
  H      1.141067    2.556900   -0.453231
  H      0.455458    1.859923    1.042641
  H     -2.287735    1.510281    1.206952
  H     -1.856973   -1.667937    0.824837
  H      2.163665   -1.832411    0.056314
  H      2.497338    0.575783    1.341189

----------------------------
CARTESIAN COORDINATES (A.U.)
----------------------------
  NO LB      ZA    FRAG     MASS         X           Y           Z
   0 C     6.0000    0    12.011    1.142028    3.218807   -0.070016
   1 C     6.0000    0    12.011    2.623213    0.766901   -0.478994
   2 H     1.0000    0     1.008    3.056406    0.537973   -2.490073
   3 C     6.0000    0    12.011    1.029034   -1.500717    0.397607
   4 H     1.0000    0     1.008    0.666066   -1.323815    2.450111
   5 C     6.0000    0    12.011   -1.525748   -1.463731   -0.985040
   6 H     1.0000    0     1.008   -1.200081   -1.758204   -3.004369
   7 C     6.0000    0    12.011   -2.764796    1.148301   -0.572681
   8 H     1.0000    0     1.008   -4.454992    1.301319   -1.771744
   9 O     8.0000    0    15.999   -1.215114    3.158169   -1.326497
  10 O     8.0000    0    15.999   -3.410523    1.303678    1.993018
  11 O     8.0000    0    15.999   -3.162257   -3.379216   -0.219104
  12 O     8.0000    0    15.999    2.299205   -3.774476   -0.093771
  13 O     8.0000    0    15.999    4.980756    0.783969    0.754406
  14 H     1.0000    0     1.008    2.156304    4.831841   -0.856483
  15 H     1.0000    0     1.008    0.860691    3.514746    1.970306
  16 H     1.0000    0     1.008   -4.323192    2.854017    2.280809
  17 H     1.0000    0     1.008   -3.509171   -3.151945    1.558717
  18 H     1.0000    0     1.008    4.088734   -3.462756    0.106418
  19 H     1.0000    0     1.008    4.719285    1.088073    2.534480

------------------------------------------------------------------------------
                   ___                                                        
                  /   \      - P O W E R E D   B Y -                         
                 /     \                                                     
                 |  |  |   _    _      __       _____    __    __             
                 |  |  |  | |  | |    /  \     |  _  \  |  |  /  |          
                  \  \/   | |  | |   /    \    | | | |  |  | /  /          
                 / \  \   | |__| |  /  /\  \   | |_| |  |  |/  /          
                |  |  |   |  __  | /  /__\  \  |    /   |      \           
                |  |  |   | |  | | |   __   |  |    \   |  |\   \          
                \     /   | |  | | |  |  |  |  | |\  \  |  | \   \       
                 \___/    |_|  |_| |__|  |__|  |_| \__\ |__|  \__/        
                                                                              
                      - O R C A' S   B I G   F R I E N D -                    
                                      &                                       
                       - I N T E G R A L  F E E D E R -                       
                                                                              
 v1 FN, 2020, v2 2021, v3 2022-2024                                           
------------------------------------------------------------------------------


----------------------
SHARK INTEGRAL PACKAGE
----------------------

Number of atoms                             ...     20
Number of basis functions                   ...    265
Number of shells                            ...    125
Maximum angular momentum                    ...      2
Integral batch strategy                     ... SHARK/LIBINT Hybrid
RI-J (if used) integral strategy            ... SPLIT-RIJ (Revised 2003 algorithm where possible)
Printlevel                                  ...      1
Contraction scheme used                     ... SEGMENTED contraction
Prescreening option                         ... SCHWARTZ
   Thresh                                   ... 3.000e-11
   Tcut                                     ... 1.000e-12
   Tpresel                                  ... 1.000e-12 
Coulomb Range Separation                    ... NOT USED
Exchange Range Separation                   ... NOT USED
Multipole approximations                    ... NOT USED
Finite Nucleus Model                        ... NOT USED
CABS basis                                  ... NOT available
Auxiliary Coulomb fitting basis             ... AVAILABLE
   # of basis functions in Aux-J            ...    600
   # of shells in Aux-J                     ...    200
   Maximum angular momentum in Aux-J        ...      4
Auxiliary J/K fitting basis                 ... NOT available
Auxiliary Correlation fitting basis         ... NOT available
Auxiliary 'external' fitting basis          ... NOT available

Checking pre-screening integrals            ... done (  0.0 sec) Dimension = 125
Check shell pair data                       ... done (  0.0 sec)
Shell pair information
Shell pair cut-off parameter TPreSel        ...   1.0e-12
Total number of shell pairs                 ...      7875
Shell pairs after pre-screening             ...      7171
Total number of primitive shell pairs       ...     27980
Primitive shell pairs kept                  ...     17987
          la=0 lb=0:   2171 shell pairs
          la=1 lb=0:   2560 shell pairs
          la=1 lb=1:    775 shell pairs
          la=2 lb=0:    972 shell pairs
          la=2 lb=1:    577 shell pairs
          la=2 lb=2:    116 shell pairs

Calculating one electron integrals          ... done (  0.1 sec)
Calculating RI/J V-Matrix + Cholesky decomp.... done (  0.0 sec)
Calculating Nuclear repulsion               ... done (  0.0 sec) ENN=    624.754749966804 Eh

Diagonalization of the overlap matrix:
Smallest eigenvalue                        ... 4.691e-05
Time for diagonalization                   ...    0.009 sec
Threshold for overlap eigenvalues          ... 1.000e-07
Number of eigenvalues below threshold      ... 0
Time for construction of square roots      ...    0.003 sec
Total time needed                          ...    0.015 sec

-------------------
DFT GRID GENERATION
-------------------

General Integration Accuracy     IntAcc      ... 4.388
Radial Grid Type                 RadialGrid  ... OptM3 with GC (2021)
Angular Grid (max. ang.)         AngularGrid ... 4 (Lebedev-302)
Angular grid pruning method      GridPruning ... 4 (adaptive)
Weight generation scheme         WeightScheme... mBecke (2022)
Basis function cutoff            BFCut       ... 1.0000e-11
Integration weight cutoff        WCut        ... 1.0000e-14
Partially contracted basis set               ... off
Rotationally invariant grid construction     ... off
Angular grids for H and He will be reduced by one unit
Diffuse basis detected: some atoms will have their outermost
                        angular grid increased by 1.

Total number of grid points                  ...    93491
Total number of batches                      ...     1469
Average number of points per batch           ...       63
Average number of grid points per atom       ...     4675
Initializing property integral containers    ... done (  0.0 sec)

SHARK setup successfully completed in   1.4 seconds

Maximum memory used throughout the entire STARTUP-calculation: 46.1 MB
Occupation numbers will be reassigned to an Aufbau configuration
             **** ENERGY FILE WAS UPDATED (xtb_opt.en.tmp) ****
Finished Guess after   0.1 sec
Maximum memory used throughout the entire GUESS-calculation: 20.9 MB
----------------------------------------D-I-I-S--------------------------------------------
Iteration    Energy (Eh)           Delta-E    RMSDP     MaxDP     DIISErr   Damp  Time(sec)
-------------------------------------------------------------------------------------------
               ***  Starting incremental Fock matrix formation  ***
                              *** Initializing SOSCF ***
---------------------------------------S-O-S-C-F--------------------------------------
Iteration    Energy (Eh)           Delta-E    RMSDP     MaxDP     MaxGrad    Time(sec)
--------------------------------------------------------------------------------------
    1    -572.5711976104250880     0.00e+00  1.11e-05  5.58e-04  1.44e-05     4.5
               *** Restarting incremental Fock matrix formation ***
    2    -572.5711975795450144     3.09e-08  1.54e-05  6.77e-04  5.46e-05     4.8
    3    -572.5711970078791637     5.72e-07  1.13e-05  4.79e-04  9.73e-05     3.3
    4    -572.5711978195045049    -8.12e-07  3.52e-06  2.14e-04  5.05e-06     2.4
                  *** Gradient check signals convergence ***

               *****************************************************
               *                     SUCCESS                       *
               *           SCF CONVERGED AFTER   4 CYCLES          *
               *****************************************************

             **** ENERGY FILE WAS UPDATED (xtb_opt.en.tmp) ****

----------------
TOTAL SCF ENERGY
----------------

Total Energy       :       -572.57119781950450 Eh          -15580.45439 eV

Components:
Nuclear Repulsion  :        624.75474996680418 Eh           17000.44103 eV
Electronic Energy  :      -1197.32594778630846 Eh          -32580.89542 eV
One Electron Energy:      -2024.49513289927199 Eh          -55089.31325 eV
Two Electron Energy:        827.16918511296342 Eh           22508.41783 eV

Virial components:
Potential Energy   :      -1142.96541911065015 Eh          -31101.67023 eV
Kinetic Energy     :        570.39422129114553 Eh           15521.21584 eV
Virial Ratio       :          2.00381661743247

DFT components:
N(Alpha)           :       39.999986467405 electrons
N(Beta)            :       39.999986467405 electrons
N(Total)           :       79.999972934810 electrons
E(X)               :      -71.071082179489 Eh       
E(C)               :       -2.660975520233 Eh       
E(XC)              :      -73.732057699722 Eh       

---------------
SCF CONVERGENCE
---------------

  Last Energy change         ...    8.1163e-07  Tolerance :   1.0000e-07
  Last MAX-Density change    ...    2.1379e-04  Tolerance :   1.0000e-07
  Last RMS-Density change    ...    3.5193e-06  Tolerance :   5.0000e-09
  Last DIIS Error            ...    2.7454e-04  Tolerance :   1.0000e-07
  Last Orbital Gradient      ...    5.0525e-06  Tolerance :   1.0000e-04
  Last Orbital Rotation      ...    8.3095e-06  Tolerance :   1.0000e-04


----------------
ORBITAL ENERGIES
----------------

  NO   OCC          E(Eh)            E(eV) 
   0   2.0000     -18.978113      -516.4207 
   1   2.0000     -18.976861      -516.3866 
   2   2.0000     -18.975845      -516.3590 
   3   2.0000     -18.952482      -515.7233 
   4   2.0000     -18.949524      -515.6428 
   5   2.0000     -10.141168      -275.9552 
   6   2.0000     -10.096774      -274.7472 
   7   2.0000     -10.091602      -274.6064 
   8   2.0000     -10.090722      -274.5825 
   9   2.0000     -10.088584      -274.5243 
  10   2.0000      -1.058155       -28.7939 
  11   2.0000      -1.020233       -27.7620 
  12   2.0000      -1.002382       -27.2762 
  13   2.0000      -0.988188       -26.8900 
  14   2.0000      -0.981520       -26.7085 
  15   2.0000      -0.749304       -20.3896 
  16   2.0000      -0.728190       -19.8151 
  17   2.0000      -0.622166       -16.9300 
  18   2.0000      -0.620019       -16.8716 
  19   2.0000      -0.577223       -15.7070 
  20   2.0000      -0.524744       -14.2790 
  21   2.0000      -0.511319       -13.9137 
  22   2.0000      -0.485636       -13.2148 
  23   2.0000      -0.474451       -12.9105 
  24   2.0000      -0.463232       -12.6052 
  25   2.0000      -0.441863       -12.0237 
  26   2.0000      -0.420709       -11.4481 
  27   2.0000      -0.401711       -10.9311 
  28   2.0000      -0.392304       -10.6751 
  29   2.0000      -0.380613       -10.3570 
  30   2.0000      -0.361428        -9.8349 
  31   2.0000      -0.339790        -9.2462 
  32   2.0000      -0.326605        -8.8874 
  33   2.0000      -0.313092        -8.5197 
  34   2.0000      -0.300561        -8.1787 
  35   2.0000      -0.284733        -7.7480 
  36   2.0000      -0.278687        -7.5835 
  37   2.0000      -0.252958        -6.8833 
  38   2.0000      -0.242509        -6.5990 
  39   2.0000      -0.223390        -6.0787 
  40   0.0000       0.029681         0.8077 
  41   0.0000       0.042621         1.1598 
  42   0.0000       0.064538         1.7562 
  43   0.0000       0.085036         2.3139 
  44   0.0000       0.098493         2.6801 
  45   0.0000       0.104267         2.8373 
  46   0.0000       0.117041         3.1848 
  47   0.0000       0.125184         3.4064 
  48   0.0000       0.129576         3.5259 
  49   0.0000       0.142468         3.8768 
  50   0.0000       0.158942         4.3250 
*Only the first 10 virtual orbitals were printed.
Total SCF time: 0 days 0 hours 0 min 15 sec 
Finished LeanSCF after  15.2 sec

Maximum memory used throughout the entire LEANSCF-calculation: 31.8 MB


-------------------------------------------------------------------------------
                          DFT DISPERSION CORRECTION                            
                                                                               
                                DFTD4 V3.4.0                                   
-------------------------------------------------------------------------------
-------------------------   ----------------
Dispersion correction           -0.006315406
-------------------------   ----------------

------------------   -----------------
gCP correction             0.016489745
------------------   -----------------

-------------------------   --------------------
FINAL SINGLE POINT ENERGY      -572.561023480068
-------------------------   --------------------

------------------------------------------------------------------------------
                         ORCA SCF GRADIENT CALCULATION
------------------------------------------------------------------------------

Nuc. rep. gradient        (SHARK) ... done (  0.0 sec)
HCore & Overlap gradient  (SHARK) ... done (  0.4 sec)
Split-RIJ-J gradient      (SHARK) ... done (  3.1 sec)
XC gradient                       ... done ( 10.6 sec)
Dispersion correction             ... done (  0.0 sec)

-------------------
DISPERSION GRADIENT
-------------------

   1   C   :    0.000009103    0.000061607   -0.000001171
   2   C   :    0.000060622    0.000014195   -0.000011518
   3   H   :    0.000038908    0.000005678   -0.000015505
   4   C   :    0.000020493   -0.000030393    0.000003323
   5   H   :    0.000010555   -0.000026923    0.000016172
   6   C   :   -0.000041403   -0.000029987   -0.000020767
   7   H   :   -0.000020588   -0.000030458   -0.000026942
   8   C   :   -0.000040071    0.000027536   -0.000010406
   9   H   :   -0.000036681    0.000011472   -0.000009307
  10   O   :   -0.000034207    0.000074002   -0.000029844
  11   O   :   -0.000094436    0.000041451    0.000043679
  12   O   :   -0.000074840   -0.000076092    0.000012945
  13   O   :    0.000073703   -0.000088376    0.000001594
  14   O   :    0.000097337    0.000015224    0.000038093
  15   H   :    0.000019269    0.000045067   -0.000010604
  16   H   :    0.000007719    0.000039639    0.000010501
  17   H   :   -0.000032181    0.000012046    0.000019573
  18   H   :   -0.000029548   -0.000034708   -0.000009540
  19   H   :    0.000017310   -0.000035170   -0.000000404
  20   H   :    0.000048939    0.000004190    0.000000126

Difference to translation invariance:
           :    0.0000000000    0.0000000000    0.0000000000

Difference to rotation invariance:
           :   -0.0000000000    0.0000000000   -0.0000000000

Norm of the Dispersion gradient    ...    0.0002987737
RMS gradient                       ...    0.0000385715
MAX gradient                       ...    0.0000973372
gCP correction                   ... done

------------------
CARTESIAN GRADIENT
------------------

   1   C   :   -0.009461613    0.000600407   -0.003282093
   2   C   :    0.016503715    0.000454701    0.000277904
   3   H   :    0.000775328    0.000351758    0.001533778
   4   C   :    0.000782454   -0.008763693    0.004023220
   5   H   :    0.000171615   -0.002554003   -0.000495688
   6   C   :   -0.008373648   -0.011409722   -0.006727449
   7   H   :   -0.000632898   -0.002083042    0.001594262
   8   C   :    0.005940730    0.005943472    0.012050692
   9   H   :   -0.000257353    0.000161184   -0.000000055
  10   O   :    0.002075797   -0.004244391    0.008700902
  11   O   :    0.000976739    0.002024793   -0.012328493
  12   O   :    0.008382398    0.012696905   -0.003784036
  13   O   :   -0.003377349    0.011148590    0.005095405
  14   O   :   -0.013543394   -0.001793449   -0.004761736
  15   H   :   -0.002187095   -0.000833475   -0.000811859
  16   H   :   -0.001399871   -0.001017694   -0.001319704
  17   H   :    0.001072408    0.000330883    0.001471638
  18   H   :    0.000183478   -0.000656478    0.000774600
  19   H   :    0.001316384   -0.000616559   -0.001686494
  20   H   :    0.001052175    0.000259813   -0.000324796

Difference to translation invariance:
           :   -0.0000000000   -0.0000000000   -0.0000000000

Difference to rotation invariance:
           :   -0.0005622015   -0.0006836648    0.0004103643

Norm of the Cartesian gradient     ...    0.0428835851
RMS gradient                       ...    0.0055362470
MAX gradient                       ...    0.0165037154

-------
TIMINGS
-------

Total SCF gradient time     ....       14.183 sec

Densities                   ....       0.001 sec  (  0.0%)
One electron gradient       ....       0.430 sec  (  3.0%)
RI-J Coulomb gradient       ....       3.062 sec  ( 21.6%)
XC gradient                 ....      10.648 sec  ( 75.1%)

Maximum memory used throughout the entire SCFGRAD-calculation: 41.2 MB

------------------------------------------------------------------------------
                              ORCA PROPERTY CALCULATIONS
------------------------------------------------------------------------------

GBWName                                 ... xtb_opt.gbw
Number of atoms                         ...     20
Number of basis functions               ...    265
Max core memory                         ...   1024 MB

Electric properties:
Dipole moment                           ... YES
Quadrupole moment                       ...  NO
Static polarizability (Dipole/Dipole)   ...  NO
Static polarizability (Dipole/Quad.)    ...  NO
Static polarizability (Quad./Quad.)     ...  NO
Static polarizability (Velocity)        ...  NO

Atomic electric properties:
Dipole moment                           ...  NO
Quadrupole moment                       ...  NO
Static polarizability                   ...  NO

Choice of electric origin               ... Center of mass
Position of electric origin             ...     0.000003     0.000008    -0.000001

General magnetic properties:
Magnetizability                         ...  NO

EPR properties:
g-Tensor (aka g-matrix)                 ...  NO
Zero-Field splitting spin-orbit         ...  NO
Zero-field splitting spin-spin          ...  NO
Hyperfine couplings                     ...  NO (   0 nuclei)
Quadrupole couplings                    ...  NO (   0 nuclei)
Contact density                         ...  NO (   0 nuclei)

NMR properties:
Chemical shifts                         ...  NO (   0 nuclei)
Spin-rotation constants                 ...  NO (   0 nuclei)
Spin-spin couplings                     ...  NO (   0 nuclei,    0 pairs)

Choice of magnetic origin               ... GIAO
Position of magnetic origin             ...     0.000000     0.000000     0.000000

Properties with geometric perturbations:
SCF Hessian                             ...  NO
IR spectrum                             ...  NO
VCD spectrum                            ...  NO
X-ray spectroscopy properties:
SCF XES/XAS/RIXS spectra                ...  NO


-------------
DIPOLE MOMENT
-------------

Method             : SCF
Type of density    : Electron Density
Multiplicity       :   1
Irrep              :   0
Energy             :  -572.5711978195045049 Eh
Relativity type    : 
Basis              : AO
                                X                 Y                 Z
Electronic contribution:     -1.050304239      -1.034718458      -0.589941354
Nuclear contribution   :      1.018746902       2.184973530       1.387932820
                        -----------------------------------------
Total Dipole Moment    :     -0.031557337       1.150255072       0.797991466
                        -----------------------------------------
Magnitude (a.u.)       :      1.400311743
Magnitude (Debye)      :      3.559309587



--------------------
Rotational spectrum 
--------------------
 
Rotational constants in cm-1:             0.057499             0.044437             0.029065 
Rotational constants in MHz :          1723.772041          1332.193323           871.351176 

Dipole components along the rotational axes: 
x,y,z [a.u.] :    -0.018434    -1.152358     0.795364 
x,y,z [Debye]:    -0.046857    -2.929061     2.021656 

 

Dipole moment calculation done in   0.0 sec 

Maximum memory used throughout the entire PROP-calculation: 20.0 MB

--------------------------------
SUGGESTED CITATIONS FOR THIS RUN
--------------------------------

Below you find a list of papers that are relevant to this ORCA run
We neither can nor want to force you to cite these papers, but we appreciate if you do
You receive ORCA, which is the product of decades of hard work by many enthusiastic individuals, for free
The only thing we kindly ask in return is that you cite our papers,
We deeply appreciate it, if you show your appreciation for ORCA by not just citing the generic ORCA reference.

Please note that relegating all ORCA citations to the supporting information does *not* help us.
SI sections are not indexed - citations you put there will not count into any citation statistics
But we need these citations in order to attract the funding resources that allow us to do what we are doing

Therefore, if you are a happy ORCA user, please consider citing a few of the papers listed below in the main body of your paper

In addition to the list printed below, the program has created the file xtb_opt.bibtex that contains the list in bibtex format
You can import this file easily into all common literature databanks and citation aid programs


List of essential papers. We consider these as the minimum necessary citations

  1. Neese,F.
     Software update: the ORCA program system, version 5.0
     WIRES Comput. Molec. Sci., 2022 12(1)e1606
     doi.org/10.1002/wcms.1606
  2. Grimme,S.; Hansen,A.; Ehlert,S.; Mewes,J.
     r2SCAN-3c: A 'Swiss army knife' composite electronic-structure method
     J. Chem. Phys., 2021 154 064103
     doi.org/10.1063/5.0040021

List of papers to cite with high priority. The work reported in these papers was absolutely
necessary for this run to complete.
Our perspective: the developers of density functionals and basis sets usually get cited in chemistry papers
Good! But without the algorithms to do something with them, the functionals or basis sets would not do anything.
Hence, in our opinion, the algorithm design and method developments papers are equally worthy of getting cited

  1. Neese,F.
     An improvement of the resolution of the identity approximation for the formation of the Coulomb matrix
     J. Comp. Chem., 2003 24(14)1740-1747
     doi.org/10.1002/jcc.10318
  2. Neese,F.
     The SHARK Integral Generation and Digestion System
     J. Comp. Chem., 2022  1-16
     doi.org/10.1002/jcc.26942
  3. Lehtola,S.; Steigemann,C.; Oliveira,M.; Marques,M.
     Recent developments in Libxc - A comprehensive library of functionals for density functional theory
     Software X, 2018 7 
     doi.org/10.1016/j.softx.2017.11.002
  4. Caldeweyher,E.; Bannwarth,C.; Grimme,S.
     Extension of the D3 dispersion coefficient model
     J. Chem. Phys., 2017 147 034112
     doi.org/10.1063/1.4993215
  5. Caldeweyher,E.; Ehlert,S.; Hansen,A.; Neugebauer,H.; Spicher,S.; Bannwarth,C.; Grimme,S.
     A generally applicable atomic-charge dependent London dispersion correction
     J. Chem. Phys., 2019 150 154122
     doi.org/10.1063/1.5090222
  6. Caldeweyher,E.; Mewes,J.; Ehlert,S.; Grimme,S.
     Extension and evaluation of the D4 London-dispersion model for periodic systems
     Phys. Chem. Chem. Phys., 2020 22(16)8499-8512
     doi.org/10.1039/D0CP00502A
  7. Wittmann,L.; Gordiy,I.; Friede,M.; Helmich-Paris,B.; Grimme,S.; Hansen,A.; Bursch,M.
     Extension of the D3 and D4 London Dispersion Corrections to the full Actinides Series
     Phys. Chem. Chem. Phys., 2024 26(32)21379-21394
     doi.org/https://doi.org/10.1039/D4CP01514B 

List of suggested additional citations. These are papers that are important in the 'surrounding' of 
of this run, or papers that preceded the highly important papers. If you like your results we are grateful for a citation.

  1. Neese,F.
     The ORCA program system
     WIRES Comput. Molec. Sci., 2012 2(1)73-78
     doi.org/10.1002/wcms.81
  2. Neese,F.
     Software update: the ORCA program system, version 4.0
     WIRES Comput. Molec. Sci., 2018 8(1)1-6
     doi.org/10.1002/wcms.1327
  3. Neese,F.; Wennmohs,F.; Becker,U.; Riplinger,C.
     The ORCA quantum chemistry program package
     J. Chem. Phys., 2020 152 Art. No. L224108
     doi.org/10.1063/5.0004608

List of optional additional citations

  1. Neese,F.
     Approximate second-order SCF convergence for spin unrestricted wavefunctions
     Chem. Phys. Lett., 2000 325(1-3)93-98
     doi.org/10.1016/s0009-2614(00)00662-x

Timings for individual modules:

Sum of individual times          ...       31.109 sec (=   0.518 min)
Startup calculation              ...        1.391 sec (=   0.023 min)   4.5 %
SCF iterations                   ...       15.362 sec (=   0.256 min)  49.4 %
Property calculations            ...        0.095 sec (=   0.002 min)   0.3 %
SCF Gradient evaluation          ...       14.261 sec (=   0.238 min)  45.8 %
                             ****ORCA TERMINATED NORMALLY****
TOTAL RUN TIME: 0 days 0 hours 0 minutes 31 seconds 264 msec
  ------------------------------------------------------------------------
          * successful ORCA run, taking over control again...

         :::::::::::::::::::::::::::::::::::::::::::::::::::::
         ::                  ORCA SUMMARY                   ::
         :::::::::::::::::::::::::::::::::::::::::::::::::::::
         :: total energy            -572.561023480068 Eh    ::
         :: gradient norm              0.042883585050 Eh/a0 ::
         :: HOMO-LUMO gap              0.000000000000 eV    ::
         :::::::::::::::::::::::::::::::::::::::::::::::::::::

      ----------------------------------------------------------- 
     |                       L-ANC optimizer                     |
      ----------------------------------------------------------- 
          low memory version by Sebastian Ehlert

          ...................................................
          :                      SETUP                      :
          :.................................................:
          :   energy convergence        0.5000000E-05 Eh    :
          :   grad. convergence         0.1000000E-02 Eh/a0 :
          :   optimization log               true           :
          :   writing optlog all                1     steps :
          :   Hessian reset                     8     steps :
          :   maximium step len.        1.0000000     a0    :
          :   LBFGS images                      8           :
          ...................................................
 * calculating model hessian...
Using Lindh-Hessian (1995)
 Shifting diagonal of input Hessian by    1.0000000000000000E-002
 Lowest  eigenvalues of input Hessian
    0.000000    0.000000    0.000000    0.000000    0.000000    0.000000
    0.015485    0.016047    0.022760    0.023101    0.023811    0.025358
    0.031988    0.035761    0.038222    0.044015    0.044962    0.058482
 Highest eigenvalues
    1.351435    1.461912    1.515829    1.528621    1.547314    1.661480


........................................................................
.............................. CYCLE    1 ..............................
........................................................................
                         * ORCA takes the control...
  ------------------------------------------------------------------------

                                 *****************
                                 * O   R   C   A *
                                 *****************

                                            #,                                       
                                            ###                                      
                                            ####                                     
                                            #####                                    
                                            ######                                   
                                           ########,                                 
                                     ,,################,,,,,                         
                               ,,#################################,,                 
                          ,,##########################################,,             
                       ,#########################################, ''#####,          
                    ,#############################################,,   '####,        
                  ,##################################################,,,,####,       
                ,###########''''           ''''###############################       
              ,#####''   ,,,,##########,,,,          '''####'''          '####       
            ,##' ,,,,###########################,,,                        '##       
           ' ,,###''''                  '''############,,,                           
         ,,##''                                '''############,,,,        ,,,,,,###''
      ,#''                                            '''#######################'''  
     '                                                          ''''####''''         
             ,#######,   #######,   ,#######,      ##                                
            ,#'     '#,  ##    ##  ,#'     '#,    #''#        ,####,   ,####,        
            ##       ##  ##   ,#'  ##            #'  '#       #'       #'  '#        
            ##       ##  #######   ##           ,######,      #####,   #    #        
            '#,     ,#'  ##    ##  '#,     ,#' ,#      #,     #,   #   #,  ,#        
             '#######'   ##     ##  '#######'  #'      '#     '####' # '####'        



                #########################################################
                #                        -***-                          #
                #          Department of theory and spectroscopy        #
                #                                                       #
                #                      Frank Neese                      #
                #                                                       #
                #     Directorship, Architecture, Infrastructure        #
                #                    SHARK, DRIVERS                     #
                #        Core code/Algorithms in most modules           #
                #                                                       #
                #        Max Planck Institute fuer Kohlenforschung      #
                #                Kaiser Wilhelm Platz 1                 #
                #                 D-45470 Muelheim/Ruhr                 #
                #                      Germany                          #
                #                                                       #
                #                  All rights reserved                  #
                #                        -***-                          #
                #########################################################


                         Program Version 6.0.1  -  RELEASE   -


 With contributions from (in alphabetic order):
[Max-Planck-Institut fuer Kohlenforschung]                               
  Daniel Aravena         : Magnetic Suceptibility                        
  Michael Atanasov       : Ab Initio Ligand Field Theory (pilot matlab implementation)
  Alexander A. Auer      : GIAO ZORA, VPT2 properties, NMR spectrum      
  Ute Becker             : All parallelization in ORCA, NUMFREQ, NUMCALC 
  Giovanni Bistoni       : ED, misc. LED, open-shell LED, HFLD           
  Martin Brehm           : Molecular dynamics                            
  Dmytro Bykov           : pre 5.0 version of the SCF Hessian            
  Marcos Casanova-Páez   : Triplet and SCS-CIS(D). UHF-(DLPNO)-IP/EA/STEOM-CCSD. UHF-CVS-IP/STEOM-CCSD   
  Vijay G. Chilkuri      : MRCI spin determinant printing, contributions to CSF-ICE 
  Pauline Colinet        : FMM embedding                                 
  Dipayan Datta          : RHF DLPNO-CCSD density                        
  Achintya Kumar Dutta   : EOM-CC, STEOM-CC                              
  Nicolas Foglia         : Exact transition moments, OPA infrastructure, MCD improvements    
  Dmitry Ganyushin       : Spin-Orbit,Spin-Spin,Magnetic field MRCI      
  Miquel Garcia-Rates    : C-PCM and meta-GGA Hessian, CCSD/C-PCM, Gaussian charge scheme 
  Tiago L. C. Gouveia    : GS-ROHF, GS-ROCIS                             
  Yang Guo               : DLPNO-NEVPT2, F12-NEVPT2, CIM, IAO-localization        
  Andreas Hansen         : Spin unrestricted coupled pair/coupled cluster methods 
  Ingolf Harden          : AUTO-CI MPn and infrastructure                
  Benjamin Helmich-Paris : MC-RPA, TRAH-(SCF,CASSCF), AVAS, COSX integrals, SCF dyn. polar. 
  Lee Huntington         : MR-EOM, pCC                                   
  Robert Izsak           : Overlap fitted RIJCOSX, COSX-SCS-MP3, EOM     
  Riya Kayal             : Wick's Theorem for AUTO-CI, AUTO-CI UHF-CCSDT 
  Emily Kempfer          : AUTO-CI, RHF CISDT and CCSDT                  
  Christian Kollmar      : KDIIS, OOCD, Brueckner-CCSD(T), CCSD density, CASPT2, CASPT2-K, improved NEVPT2 
  Axel Koslowski         : Symmetry handling                             
  Simone Kossmann        : meta-GGA functionals, TD-DFT gradient, OOMP2, (MP2 Hessian; deprecated post 5.0) 
  Lucas Lang             : DCDCAS                                        
  Marvin Lechner         : AUTO-CI (C++ implementation), FIC-MRCC        
  Spencer Leger          : CASSCF response                               
  Dagmar Lenk            : GEPOL surface, SMD, ORCA-2-JSON               
  Dimitrios Liakos       : Extrapolation schemes; Compound Job, initial MDCI parallelization 
  Dimitrios Manganas     : Further ROCIS development; embedding schemes. LFT, Crystal Embedding 
  Dimitrios Pantazis     : SARC Basis sets                               
  Anastasios Papadopoulos: AUTO-CI, single reference methods and gradients 
  Taras Petrenko         : pre 6.0 DFT Hessian and TD-DFT gradient, (ASA, deprecated), ECA, 1-Electron XAS/XES, NRVS 
  Peter Pinski           : DLPNO-MP2, DLPNO-MP2 Gradient                 
  Christoph Reimann      : Effective Core Potentials                     
  Marius Retegan         : Local ZFS, SOC                                
  Christoph Riplinger    : Optimizer, TS searches, QM/MM, DLPNO-CCSD(T), (RO)-DLPNO pert. Triples 
  Michael Roemelt        : Original ROCIS implementation                 
  Masaaki Saitow         : Open-shell DLPNO-CCSD energy and density      
  Barbara Sandhoefer     : DKH picture change effects                    
  Kantharuban Sivalingam : CASSCF convergence/infrastructure, NEVPT2 and variants, FIC-MRCI 
  Bernardo de Souza      : ESD, SOC TD-DFT                               
  Georgi L. Stoychev     : AutoAux, RI-MP2 NMR, DLPNO-MP2 response, X2C  
  Van Anh Tran           : RI-MP2 g-tensors                              
  Willem Van den Heuvel  : Paramagnetic NMR                              
  Zikuan Wang            : NOTCH, Electric field optimization            
  Frank Wennmohs         : Technical directorship and infrastructure     
  Hang Xu                : AUTO-CI-Response properties                   
                                                                         
[FACCTs GmbH]                                                            
  Markus Bursch, Miquel Garcia-Rates, Christoph Riplinger, Bernardo de Souza, Georgi L. Stoychev 
                                                                 
  APM, Basis sets (HGBS, AHGBS, def-TZVP (Ac-Lr), def2-XVPD (La-Lu)), CI-OPT, improved COSX, DLPNO-Multilevel,           
  DOCKER, DRACO, updates on ESD, GOAT, IRC, LR-CPCM, MBIS, meta-GGA TD-DFT gradient, ML-optimized integration grids, 
  MM, NACMEs, nearIR, NEB, NEB-TS, NL-DFT gradient (VV10), 2- and 3-layer-ONIOM, interface openCOSMO-RS, QMMM,   
  Crystal-QMMM, SF, symmetry and pop. for TD-DFT, r2SCAN hybrids, SOLVATOR                                   
                                                                         
[Other institutions]                                                     
  V. Asgeirsson          : NEB                                           
  Christoph Bannwarth    : sTDA-DFT, sTD-DFT, PBEh-3c, B97-3c, D3        
  Sebastian Ehlert       : rSCAN, r2SCAN, r2SCAN-3c, D4, dhf basis sets  
  Marvin Friede          : D4 for Fr, Ra, Ac-Lr                          
  Lars Goerigk           : TD-DFT with DH, B97 family of functionals     
  Stefan Grimme          : VdW corrections, initial TS optimization, DFT functionals, gCP, sTDA/sTD-DF 
  Waldemar Hujo          : DFT-NL                                        
  H. Jonsson             : NEB                                           
  Holger Kruse           : gCP                                           
  Marcel Mueller         : wB97X-3c, vDZP basis set                      
  Hagen Neugebauer       : wr2SCAN                                       
  Tobias Risthaus        : range-separated hybrid DFT                    
  Lukas Wittmann         : regularized MP2, r2SCAN double-hybrids, wr2SCAN        
                                                                         
We gratefully acknowledge several colleagues who have allowed us to      
interface, adapt or use parts of their codes:                            
  Ed Valeev, F. Pavosevic, A. Kumar             : LibInt (2-el integral package), F12 methods 
  Garnet Chan, S. Sharma, J. Yang, R. Olivares  : DMRG                   
  Ulf Ekstrom                                   : XCFun DFT Library      
  Mihaly Kallay                                 : mrcc  (arbitrary order and MRCC methods)
  Frank Weinhold                                : gennbo (NPA and NBO analysis)           
  Simon Mueller                                 : openCOSMO-RS                            
  Christopher J. Cramer and Donald G. Truhlar   : smd solvation model                     
  S Lehtola, MJT Oliveira, MAL Marques          : LibXC Library                           
  Liviu Ungur et al                             : ANISO software                          


 Your calculation uses the libint2 library for the computation of 2-el integrals
 For citations please refer to: http://libint.valeyev.net

 Your ORCA version has been built with support for libXC version: 6.2.2
 For citations please refer to: https://libxc.gitlab.io

 This ORCA versions uses:
   CBLAS   interface :  Fast vector & matrix operations
   LAPACKE interface :  Fast linear algebra routines
   SCALAPACK package :  Parallel linear algebra routines
   Shared memory     :  Shared parallel matrices
   BLAS/LAPACK       :  OpenBLAS 0.3.27  USE64BITINT DYNAMIC_ARCH NO_AFFINITY Zen SINGLE_THREADED
        Core in use  :  Zen
   Copyright (c) 2011-2014, The OpenBLAS Project




***************************************
The coordinates will be read from file: xtb_opt.xyz
***************************************


Your calculation utilizes the geometrical counterpoise correction gCP
Please cite in your paper:
H.Kruse, S. Grimme J.Chem.Phys., 136, (2012), 154101 
   

Your calculation utilizes the atom-pairwise dispersion correction
based on EEQ partial charges (D4)


================================================================================

----- Orbital basis set information -----
Your calculation utilizes the basis: def2-mTZVPP
   Stefan Grimme, Andreas Hansen, Sebastian Ehlert, and Jan-Michael Mewes 
   J. Chem. Phys. 154, 064103 (2021). DOI: 10.1063/5.0040021

----- AuxJ basis set information -----
Your calculation utilizes the auxiliary basis: def2/J
   F. Weigend, Phys. Chem. Chem. Phys. 8, 1057 (2006).

================================================================================
                                        WARNINGS
                       Please study these warnings very carefully!
================================================================================

WARNING: Old DensityContainer found on disk!
         Will remove this file - 
         If you want to keep old densities, please start your calculation with a different basename. 



WARNING: SCAN, rSCAN, or r2SCAN functional requested.
  ===> : libXC variant has now been activated.



================================================================================
                                       INPUT FILE
================================================================================
NAME = xtb_opt.inp
|  1> ! r2scan-3c def2/J RI DEFGRID2 scfconv7 ENGRAD tightSCF miniprint
|  2> * xyzfile 0 1 xtb_opt.xyz
|  3> 
|  4>                          ****END OF INPUT****
================================================================================

                     *******************************
                     * Energy+Gradient Calculation *
                     *******************************

---------------------------------
CARTESIAN COORDINATES (ANGSTROEM)
---------------------------------
  C      0.611893    1.710091   -0.035942
  C      1.385641    0.410418   -0.250129
  H      1.607769    0.289725   -1.317639
  C      0.550097   -0.792246    0.204572
  H      0.362402   -0.690154    1.291806
  C     -0.807762   -0.770297   -0.506994
  H     -0.634062   -0.913390   -1.579248
  C     -1.470884    0.607938   -0.310039
  H     -2.363164    0.683520   -0.946781
  O     -0.640160    1.672650   -0.712884
  O     -1.811139    0.686142    1.058211
  O     -1.673233   -1.803697   -0.107958
  O      1.211210   -2.009380   -0.069264
  O      2.648136    0.427508    0.399441
  H      1.159852    2.559378   -0.449620
  H      0.467324    1.872720    1.044866
  H     -2.309850    1.498706    1.202547
  H     -1.868743   -1.678291    0.829071
  H      2.156204   -1.855039    0.064927
  H      2.506375    0.577094    1.343130

----------------------------
CARTESIAN COORDINATES (A.U.)
----------------------------
  NO LB      ZA    FRAG     MASS         X           Y           Z
   0 C     6.0000    0    12.011    1.156311    3.231604   -0.067920
   1 C     6.0000    0    12.011    2.618482    0.775577   -0.472676
   2 H     1.0000    0     1.008    3.038243    0.547500   -2.489978
   3 C     6.0000    0    12.011    1.039534   -1.497128    0.386584
   4 H     1.0000    0     1.008    0.684841   -1.304202    2.441159
   5 C     6.0000    0    12.011   -1.526448   -1.455651   -0.958079
   6 H     1.0000    0     1.008   -1.198204   -1.726056   -2.984346
   7 C     6.0000    0    12.011   -2.779568    1.148835   -0.585889
   8 H     1.0000    0     1.008   -4.465732    1.291665   -1.789156
   9 O     8.0000    0    15.999   -1.209726    3.160850   -1.347156
  10 O     8.0000    0    15.999   -3.422556    1.296621    1.999729
  11 O     8.0000    0    15.999   -3.161952   -3.408493   -0.204012
  12 O     8.0000    0    15.999    2.288855   -3.797178   -0.130889
  13 O     8.0000    0    15.999    5.004252    0.807873    0.754834
  14 H     1.0000    0     1.008    2.191802    4.836524   -0.849659
  15 H     1.0000    0     1.008    0.883115    3.538928    1.974510
  16 H     1.0000    0     1.008   -4.364984    2.832144    2.272485
  17 H     1.0000    0     1.008   -3.531413   -3.171510    1.566716
  18 H     1.0000    0     1.008    4.074635   -3.505517    0.122695
  19 H     1.0000    0     1.008    4.736362    1.090549    2.538148

------------------------------------------------------------------------------
                   ___                                                        
                  /   \      - P O W E R E D   B Y -                         
                 /     \                                                     
                 |  |  |   _    _      __       _____    __    __             
                 |  |  |  | |  | |    /  \     |  _  \  |  |  /  |          
                  \  \/   | |  | |   /    \    | | | |  |  | /  /          
                 / \  \   | |__| |  /  /\  \   | |_| |  |  |/  /          
                |  |  |   |  __  | /  /__\  \  |    /   |      \           
                |  |  |   | |  | | |   __   |  |    \   |  |\   \          
                \     /   | |  | | |  |  |  |  | |\  \  |  | \   \       
                 \___/    |_|  |_| |__|  |__|  |_| \__\ |__|  \__/        
                                                                              
                      - O R C A' S   B I G   F R I E N D -                    
                                      &                                       
                       - I N T E G R A L  F E E D E R -                       
                                                                              
 v1 FN, 2020, v2 2021, v3 2022-2024                                           
------------------------------------------------------------------------------


----------------------
SHARK INTEGRAL PACKAGE
----------------------

Number of atoms                             ...     20
Number of basis functions                   ...    265
Number of shells                            ...    125
Maximum angular momentum                    ...      2
Integral batch strategy                     ... SHARK/LIBINT Hybrid
RI-J (if used) integral strategy            ... SPLIT-RIJ (Revised 2003 algorithm where possible)
Printlevel                                  ...      1
Contraction scheme used                     ... SEGMENTED contraction
Prescreening option                         ... SCHWARTZ
   Thresh                                   ... 3.000e-11
   Tcut                                     ... 1.000e-12
   Tpresel                                  ... 1.000e-12 
Coulomb Range Separation                    ... NOT USED
Exchange Range Separation                   ... NOT USED
Multipole approximations                    ... NOT USED
Finite Nucleus Model                        ... NOT USED
CABS basis                                  ... NOT available
Auxiliary Coulomb fitting basis             ... AVAILABLE
   # of basis functions in Aux-J            ...    600
   # of shells in Aux-J                     ...    200
   Maximum angular momentum in Aux-J        ...      4
Auxiliary J/K fitting basis                 ... NOT available
Auxiliary Correlation fitting basis         ... NOT available
Auxiliary 'external' fitting basis          ... NOT available

Checking pre-screening integrals            ... done (  0.0 sec) Dimension = 125
Check shell pair data                       ... done (  0.0 sec)
Shell pair information
Shell pair cut-off parameter TPreSel        ...   1.0e-12
Total number of shell pairs                 ...      7875
Shell pairs after pre-screening             ...      7160
Total number of primitive shell pairs       ...     27980
Primitive shell pairs kept                  ...     17950
          la=0 lb=0:   2163 shell pairs
          la=1 lb=0:   2559 shell pairs
          la=1 lb=1:    774 shell pairs
          la=2 lb=0:    972 shell pairs
          la=2 lb=1:    576 shell pairs
          la=2 lb=2:    116 shell pairs

Calculating one electron integrals          ... done (  0.1 sec)
Calculating RI/J V-Matrix + Cholesky decomp.... done (  0.0 sec)
Calculating Nuclear repulsion               ... done (  0.0 sec) ENN=    622.846593895105 Eh

Diagonalization of the overlap matrix:
Smallest eigenvalue                        ... 4.693e-05
Time for diagonalization                   ...    0.009 sec
Threshold for overlap eigenvalues          ... 1.000e-07
Number of eigenvalues below threshold      ... 0
Time for construction of square roots      ...    0.006 sec
Total time needed                          ...    0.017 sec

-------------------
DFT GRID GENERATION
-------------------

General Integration Accuracy     IntAcc      ... 4.388
Radial Grid Type                 RadialGrid  ... OptM3 with GC (2021)
Angular Grid (max. ang.)         AngularGrid ... 4 (Lebedev-302)
Angular grid pruning method      GridPruning ... 4 (adaptive)
Weight generation scheme         WeightScheme... mBecke (2022)
Basis function cutoff            BFCut       ... 1.0000e-11
Integration weight cutoff        WCut        ... 1.0000e-14
Partially contracted basis set               ... off
Rotationally invariant grid construction     ... off
Angular grids for H and He will be reduced by one unit
Diffuse basis detected: some atoms will have their outermost
                        angular grid increased by 1.

Total number of grid points                  ...    93501
Total number of batches                      ...     1469
Average number of points per batch           ...       63
Average number of grid points per atom       ...     4675
Initializing property integral containers    ... done (  0.0 sec)

SHARK setup successfully completed in   1.2 seconds

Maximum memory used throughout the entire STARTUP-calculation: 46.1 MB
Occupation numbers will be reassigned to an Aufbau configuration
             **** ENERGY FILE WAS UPDATED (xtb_opt.en.tmp) ****
Finished Guess after   0.1 sec
Maximum memory used throughout the entire GUESS-calculation: 20.9 MB
----------------------------------------D-I-I-S--------------------------------------------
Iteration    Energy (Eh)           Delta-E    RMSDP     MaxDP     DIISErr   Damp  Time(sec)
-------------------------------------------------------------------------------------------
               ***  Starting incremental Fock matrix formation  ***
    1    -572.5717771938033138     0.00e+00  1.44e-04  4.93e-03  7.98e-03  0.700   3.9
    2    -572.5720174846475174    -2.40e-04  1.32e-04  5.01e-03  5.97e-03  0.700   2.7
                               ***Turning on AO-DIIS***
    3    -572.5721951015162858    -1.78e-04  1.03e-04  4.03e-03  4.23e-03  0.700   2.8
                              *** Initializing SOSCF ***
---------------------------------------S-O-S-C-F--------------------------------------
Iteration    Energy (Eh)           Delta-E    RMSDP     MaxDP     MaxGrad    Time(sec)
--------------------------------------------------------------------------------------
    4    -572.5723189896622216    -1.24e-04  2.54e-04  1.00e-02  2.99e-03     2.4
               *** Restarting incremental Fock matrix formation ***
    5    -572.5726103701427974    -2.91e-04  1.48e-05  6.11e-04  3.10e-05     3.5
    6    -572.5726104122080642    -4.21e-08  7.49e-06  4.38e-04  2.96e-05     2.1
                 **** Energy Check signals convergence ****

               *****************************************************
               *                     SUCCESS                       *
               *           SCF CONVERGED AFTER   6 CYCLES          *
               *****************************************************

             **** ENERGY FILE WAS UPDATED (xtb_opt.en.tmp) ****

----------------
TOTAL SCF ENERGY
----------------

Total Energy       :       -572.57261041220806 Eh          -15580.49283 eV

Components:
Nuclear Repulsion  :        622.84659389510523 Eh           16948.51747 eV
Electronic Energy  :      -1195.41920430731352 Eh          -32529.01029 eV
One Electron Energy:      -2020.70443537368510 Eh          -54986.16313 eV
Two Electron Energy:        825.28523106637169 Eh           22457.15284 eV

Virial components:
Potential Energy   :      -1142.85712838064046 Eh          -31098.72349 eV
Kinetic Energy     :        570.28451796843251 Eh           15518.23067 eV
Virial Ratio       :          2.00401219456549

DFT components:
N(Alpha)           :       39.999988213072 electrons
N(Beta)            :       39.999988213072 electrons
N(Total)           :       79.999976426145 electrons
E(X)               :      -71.042752806046 Eh       
E(C)               :       -2.658864018574 Eh       
E(XC)              :      -73.701616824621 Eh       

---------------
SCF CONVERGENCE
---------------

  Last Energy change         ...    4.2065e-08  Tolerance :   1.0000e-07
  Last MAX-Density change    ...    4.3808e-04  Tolerance :   1.0000e-07
  Last RMS-Density change    ...    7.4860e-06  Tolerance :   5.0000e-09
  Last DIIS Error            ...    2.9911e-03  Tolerance :   1.0000e-07
  Last Orbital Gradient      ...    2.9590e-05  Tolerance :   1.0000e-04
  Last Orbital Rotation      ...    2.5031e-05  Tolerance :   1.0000e-04


----------------
ORBITAL ENERGIES
----------------

  NO   OCC          E(Eh)            E(eV) 
   0   2.0000     -18.978873      -516.4414 
   1   2.0000     -18.978465      -516.4303 
   2   2.0000     -18.975678      -516.3545 
   3   2.0000     -18.953244      -515.7440 
   4   2.0000     -18.951259      -515.6900 
   5   2.0000     -10.143704      -276.0242 
   6   2.0000     -10.097759      -274.7740 
   7   2.0000     -10.093606      -274.6610 
   8   2.0000     -10.091999      -274.6172 
   9   2.0000     -10.090464      -274.5755 
  10   2.0000      -1.054195       -28.6861 
  11   2.0000      -1.016545       -27.6616 
  12   2.0000      -0.999327       -27.1931 
  13   2.0000      -0.986256       -26.8374 
  14   2.0000      -0.979445       -26.6520 
  15   2.0000      -0.751974       -20.4622 
  16   2.0000      -0.729253       -19.8440 
  17   2.0000      -0.622204       -16.9310 
  18   2.0000      -0.620240       -16.8776 
  19   2.0000      -0.574570       -15.6348 
  20   2.0000      -0.523825       -14.2540 
  21   2.0000      -0.509907       -13.8753 
  22   2.0000      -0.484066       -13.1721 
  23   2.0000      -0.474070       -12.9001 
  24   2.0000      -0.461900       -12.5689 
  25   2.0000      -0.441040       -12.0013 
  26   2.0000      -0.419548       -11.4165 
  27   2.0000      -0.401675       -10.9301 
  28   2.0000      -0.391249       -10.6464 
  29   2.0000      -0.379152       -10.3172 
  30   2.0000      -0.361406        -9.8344 
  31   2.0000      -0.338258        -9.2045 
  32   2.0000      -0.327881        -8.9221 
  33   2.0000      -0.312767        -8.5108 
  34   2.0000      -0.300700        -8.1825 
  35   2.0000      -0.286613        -7.7991 
  36   2.0000      -0.279553        -7.6070 
  37   2.0000      -0.254194        -6.9170 
  38   2.0000      -0.244178        -6.6444 
  39   2.0000      -0.226017        -6.1502 
  40   0.0000       0.027151         0.7388 
  41   0.0000       0.041899         1.1401 
  42   0.0000       0.063227         1.7205 
  43   0.0000       0.084940         2.3113 
  44   0.0000       0.096999         2.6395 
  45   0.0000       0.103080         2.8050 
  46   0.0000       0.115930         3.1546 
  47   0.0000       0.122863         3.3433 
  48   0.0000       0.127574         3.4715 
  49   0.0000       0.141938         3.8623 
  50   0.0000       0.157626         4.2892 
*Only the first 10 virtual orbitals were printed.
Total SCF time: 0 days 0 hours 0 min 17 sec 
Finished LeanSCF after  17.6 sec

Maximum memory used throughout the entire LEANSCF-calculation: 31.9 MB


-------------------------------------------------------------------------------
                          DFT DISPERSION CORRECTION                            
                                                                               
                                DFTD4 V3.4.0                                   
-------------------------------------------------------------------------------
-------------------------   ----------------
Dispersion correction           -0.006302535
-------------------------   ----------------

------------------   -----------------
gCP correction             0.016220814
------------------   -----------------

-------------------------   --------------------
FINAL SINGLE POINT ENERGY      -572.562692133149
-------------------------   --------------------

------------------------------------------------------------------------------
                         ORCA SCF GRADIENT CALCULATION
------------------------------------------------------------------------------

Nuc. rep. gradient        (SHARK) ... done (  0.0 sec)
HCore & Overlap gradient  (SHARK) ... done (  0.7 sec)
Split-RIJ-J gradient      (SHARK) ... done (  3.5 sec)
XC gradient                       ... done ( 12.0 sec)
Dispersion correction             ... done (  0.0 sec)

-------------------
DISPERSION GRADIENT
-------------------

   1   C   :    0.000011814    0.000063629   -0.000000981
   2   C   :    0.000061156    0.000014752   -0.000011446
   3   H   :    0.000038537    0.000005855   -0.000015408
   4   C   :    0.000021383   -0.000031387    0.000003633
   5   H   :    0.000010659   -0.000026644    0.000016016
   6   C   :   -0.000041968   -0.000030044   -0.000020523
   7   H   :   -0.000020381   -0.000030045   -0.000026509
   8   C   :   -0.000043561    0.000027284   -0.000010301
   9   H   :   -0.000036425    0.000011472   -0.000009296
  10   O   :   -0.000033814    0.000072714   -0.000029708
  11   O   :   -0.000094477    0.000040760    0.000042321
  12   O   :   -0.000074336   -0.000075910    0.000013132
  13   O   :    0.000072777   -0.000088653    0.000001300
  14   O   :    0.000096323    0.000015737    0.000038029
  15   H   :    0.000019359    0.000044543   -0.000010287
  16   H   :    0.000008265    0.000039650    0.000010230
  17   H   :   -0.000032195    0.000011943    0.000019694
  18   H   :   -0.000029186   -0.000034783   -0.000009111
  19   H   :    0.000017152   -0.000035474   -0.000000998
  20   H   :    0.000048917    0.000004603    0.000000216

Difference to translation invariance:
           :    0.0000000000   -0.0000000000    0.0000000000

Difference to rotation invariance:
           :    0.0000000000   -0.0000000000   -0.0000000000

Norm of the Dispersion gradient    ...    0.0002985633
RMS gradient                       ...    0.0000385444
MAX gradient                       ...    0.0000963235
gCP correction                   ... done

------------------
CARTESIAN GRADIENT
------------------

   1   C   :   -0.004780414    0.002179312   -0.002829385
   2   C   :    0.007899017    0.001152918    0.003047457
   3   H   :   -0.000383234   -0.000227392    0.000399794
   4   C   :    0.002055667   -0.005711320   -0.001704623
   5   H   :   -0.000943852    0.000018677   -0.000564093
   6   C   :   -0.004541344   -0.005929634    0.001041736
   7   H   :    0.000200729    0.000034596    0.000604419
   8   C   :    0.000331841    0.005552046    0.003220361
   9   H   :   -0.000410125   -0.000453475   -0.000406201
  10   O   :    0.001728477   -0.002549648    0.003866400
  11   O   :    0.001123208   -0.000856259   -0.005665656
  12   O   :    0.002706235    0.005158564   -0.001132456
  13   O   :   -0.001158864    0.003448048    0.003130250
  14   O   :   -0.006489591   -0.000487981   -0.002082810
  15   H   :   -0.000455068   -0.000060978    0.000021158
  16   H   :    0.000262219   -0.000685114    0.000016480
  17   H   :    0.001023094    0.000255040    0.000533690
  18   H   :    0.000221664   -0.000829706   -0.000066438
  19   H   :    0.000831393   -0.000291223   -0.001285541
  20   H   :    0.000778949    0.000283529   -0.000144540

[...]
ORBITAL ENERGIES
----------------

  NO   OCC          E(Eh)            E(eV) 
   0   2.0000     -18.980689      -516.4908 
   1   2.0000     -18.978144      -516.4216 
   2   2.0000     -18.974055      -516.3103 
   3   2.0000     -18.952659      -515.7281 
   4   2.0000     -18.951484      -515.6961 
   5   2.0000     -10.145710      -276.0788 
   6   2.0000     -10.096805      -274.7480 
   7   2.0000     -10.093213      -274.6503 
   8   2.0000     -10.092813      -274.6394 
   9   2.0000     -10.091258      -274.5971 
  10   2.0000      -1.050787       -28.5934 
  11   2.0000      -1.012185       -27.5430 
  12   2.0000      -0.996536       -27.1171 
  13   2.0000      -0.984533       -26.7905 
  14   2.0000      -0.977183       -26.5905 
  15   2.0000      -0.753788       -20.5116 
  16   2.0000      -0.729845       -19.8601 
  17   2.0000      -0.622762       -16.9462 
  18   2.0000      -0.618316       -16.8252 
  19   2.0000      -0.572880       -15.5889 
  20   2.0000      -0.522552       -14.2194 
  21   2.0000      -0.507576       -13.8118 
  22   2.0000      -0.483243       -13.1497 
  23   2.0000      -0.474795       -12.9198 
  24   2.0000      -0.460719       -12.5368 
  25   2.0000      -0.440124       -11.9764 
  26   2.0000      -0.416402       -11.3309 
  27   2.0000      -0.402130       -10.9425 
  28   2.0000      -0.389182       -10.5902 
  29   2.0000      -0.378999       -10.3131 
  30   2.0000      -0.359977        -9.7955 
  31   2.0000      -0.338234        -9.2038 
  32   2.0000      -0.327800        -8.9199 
  33   2.0000      -0.311626        -8.4798 
  34   2.0000      -0.300097        -8.1660 
  35   2.0000      -0.290359        -7.9011 
  36   2.0000      -0.279778        -7.6131 
  37   2.0000      -0.255892        -6.9632 
  38   2.0000      -0.242020        -6.5857 
  39   2.0000      -0.228947        -6.2300 
  40   0.0000       0.025571         0.6958 
  41   0.0000       0.038424         1.0456 
  42   0.0000       0.062904         1.7117 
  43   0.0000       0.083540         2.2732 
  44   0.0000       0.095917         2.6100 
  45   0.0000       0.102769         2.7965 
  46   0.0000       0.115569         3.1448 
  47   0.0000       0.120274         3.2728 
  48   0.0000       0.128565         3.4984 
  49   0.0000       0.141097         3.8394 
  50   0.0000       0.156946         4.2707 
*Only the first 10 virtual orbitals were printed.
Total SCF time: 0 days 0 hours 0 min 5 sec 
Finished LeanSCF after   5.5 sec

Maximum memory used throughout the entire LEANSCF-calculation: 32.0 MB


-------------------------------------------------------------------------------
                          DFT DISPERSION CORRECTION                            
                                                                               
                                DFTD4 V3.4.0                                   
-------------------------------------------------------------------------------
-------------------------   ----------------
Dispersion correction           -0.006291777
-------------------------   ----------------

------------------   -----------------
gCP correction             0.016134212
------------------   -----------------

-------------------------   --------------------
FINAL SINGLE POINT ENERGY      -572.563485976994
-------------------------   --------------------

------------------------------------------------------------------------------
                         ORCA SCF GRADIENT CALCULATION
------------------------------------------------------------------------------

Nuc. rep. gradient        (SHARK) ... done (  0.0 sec)
HCore & Overlap gradient  (SHARK) ... done (  0.6 sec)
Split-RIJ-J gradient      (SHARK) ... done (  2.7 sec)
XC gradient                       ... done (  9.4 sec)
Dispersion correction             ... done (  0.0 sec)

-------------------
DISPERSION GRADIENT
-------------------

   1   C   :    0.000013136    0.000064339   -0.000001302
   2   C   :    0.000061962    0.000015169   -0.000011499
   3   H   :    0.000038219    0.000005863   -0.000015647
   4   C   :    0.000022401   -0.000031445    0.000003423
   5   H   :    0.000011521   -0.000026867    0.000015979
   6   C   :   -0.000041694   -0.000030809   -0.000020463
   7   H   :   -0.000019871   -0.000030081   -0.000026149
   8   C   :   -0.000045294    0.000027469   -0.000008829
   9   H   :   -0.000036403    0.000011488   -0.000009205
  10   O   :   -0.000033160    0.000072142   -0.000029385
  11   O   :   -0.000096239    0.000038886    0.000040846
  12   O   :   -0.000075164   -0.000073801    0.000013840
  13   O   :    0.000071527   -0.000089134    0.000001279
  14   O   :    0.000094706    0.000015876    0.000037916
  15   H   :    0.000019254    0.000044359   -0.000009991
  16   H   :    0.000008451    0.000039729    0.000010306
  17   H   :   -0.000031509    0.000011947    0.000020131
  18   H   :   -0.000028439   -0.000034852   -0.000008336
  19   H   :    0.000017365   -0.000035325   -0.000002997
  20   H   :    0.000049233    0.000005047    0.000000083

Difference to translation invariance:
           :    0.0000000000    0.0000000000    0.0000000000

Difference to rotation invariance:
           :    0.0000000000   -0.0000000000    0.0000000000

Norm of the Dispersion gradient    ...    0.0002980573
RMS gradient                       ...    0.0000384790
MAX gradient                       ...    0.0000962393
gCP correction                   ... done

------------------
CARTESIAN GRADIENT
------------------

   1   C   :    0.000032576   -0.000009355   -0.000003336
   2   C   :    0.000009056    0.000026486    0.000022052
   3   H   :   -0.000005262   -0.000016788   -0.000009514
   4   C   :    0.000023353   -0.000026107   -0.000047249
   5   H   :   -0.000032385    0.000049676    0.000041936
   6   C   :   -0.000027198   -0.000105404    0.000021353
   7   H   :    0.000027625    0.000000932   -0.000008940
   8   C   :    0.000024342    0.000060567   -0.000032081
   9   H   :   -0.000004043   -0.000027847   -0.000028268
  10   O   :   -0.000059225   -0.000019781   -0.000038099
  11   O   :    0.000059120   -0.000073183   -0.000010087
  12   O   :    0.000012883   -0.000011370   -0.000069838
  13   O   :   -0.000145295   -0.000018143   -0.000042172
  14   O   :    0.000022840    0.000064569    0.000034392
  15   H   :    0.000009925    0.000007495   -0.000009246
  16   H   :    0.000005272    0.000022097    0.000010839
  17   H   :   -0.000078549    0.000089978   -0.000001232
  18   H   :    0.000004133   -0.000005615    0.000079555
  19   H   :    0.000136977    0.000027215    0.000093174
  20   H   :   -0.000016145   -0.000035422   -0.000003239

Difference to translation invariance:
           :   -0.0000000000    0.0000000000    0.0000000000

Difference to rotation invariance:
           :   -0.0007008994   -0.0006966729    0.0004357539

Norm of the Cartesian gradient     ...    0.0003624801
RMS gradient                       ...    0.0000467960
MAX gradient                       ...    0.0001452949

-------
TIMINGS
-------

Total SCF gradient time     ....       12.694 sec

Densities                   ....       0.001 sec  (  0.0%)
One electron gradient       ....       0.577 sec  (  4.5%)
RI-J Coulomb gradient       ....       2.721 sec  ( 21.4%)
XC gradient                 ....       9.354 sec  ( 73.7%)

Maximum memory used throughout the entire SCFGRAD-calculation: 41.2 MB

------------------------------------------------------------------------------
                              ORCA PROPERTY CALCULATIONS
------------------------------------------------------------------------------

GBWName                                 ... xtb_opt.gbw
Number of atoms                         ...     20
Number of basis functions               ...    265
Max core memory                         ...   1024 MB

Electric properties:
Dipole moment                           ... YES
Quadrupole moment                       ...  NO
Static polarizability (Dipole/Dipole)   ...  NO
Static polarizability (Dipole/Quad.)    ...  NO
Static polarizability (Quad./Quad.)     ...  NO
Static polarizability (Velocity)        ...  NO

Atomic electric properties:
Dipole moment                           ...  NO
Quadrupole moment                       ...  NO
Static polarizability                   ...  NO

Choice of electric origin               ... Center of mass
Position of electric origin             ...     0.014963     0.005616    -0.009469

General magnetic properties:
Magnetizability                         ...  NO

EPR properties:
g-Tensor (aka g-matrix)                 ...  NO
Zero-Field splitting spin-orbit         ...  NO
Zero-field splitting spin-spin          ...  NO
Hyperfine couplings                     ...  NO (   0 nuclei)
Quadrupole couplings                    ...  NO (   0 nuclei)
Contact density                         ...  NO (   0 nuclei)

NMR properties:
Chemical shifts                         ...  NO (   0 nuclei)
Spin-rotation constants                 ...  NO (   0 nuclei)
Spin-spin couplings                     ...  NO (   0 nuclei,    0 pairs)

Choice of magnetic origin               ... GIAO
Position of magnetic origin             ...     0.000000     0.000000     0.000000

Properties with geometric perturbations:
SCF Hessian                             ...  NO
IR spectrum                             ...  NO
VCD spectrum                            ...  NO
X-ray spectroscopy properties:
SCF XES/XAS/RIXS spectra                ...  NO


-------------
DIPOLE MOMENT
-------------

Method             : SCF
Type of density    : Electron Density
Multiplicity       :   1
Irrep              :   0
Energy             :  -572.5733284115926836 Eh
Relativity type    : 
Basis              : AO
                                X                 Y                 Z
Electronic contribution:     -1.026693394      -0.991940018      -0.645063138
Nuclear contribution   :      0.857410118       2.119612511       1.482283865
                        -----------------------------------------
Total Dipole Moment    :     -0.169283276       1.127672493       0.837220727
                        -----------------------------------------
Magnitude (a.u.)       :      1.414652121
Magnitude (Debye)      :      3.595759933



--------------------
Rotational spectrum 
--------------------
 
Rotational constants in cm-1:             0.057031             0.043940             0.028789 
Rotational constants in MHz :          1709.760734          1317.301032           863.083158 

Dipole components along the rotational axes: 
x,y,z [a.u.] :    -0.150633     1.137161     0.827899 
x,y,z [Debye]:    -0.382878     2.890432     2.104351 

 

Dipole moment calculation done in   0.0 sec 

Maximum memory used throughout the entire PROP-calculation: 19.9 MB

--------------------------------
SUGGESTED CITATIONS FOR THIS RUN
--------------------------------

Below you find a list of papers that are relevant to this ORCA run
We neither can nor want to force you to cite these papers, but we appreciate if you do
You receive ORCA, which is the product of decades of hard work by many enthusiastic individuals, for free
The only thing we kindly ask in return is that you cite our papers,
We deeply appreciate it, if you show your appreciation for ORCA by not just citing the generic ORCA reference.

Please note that relegating all ORCA citations to the supporting information does *not* help us.
SI sections are not indexed - citations you put there will not count into any citation statistics
But we need these citations in order to attract the funding resources that allow us to do what we are doing

Therefore, if you are a happy ORCA user, please consider citing a few of the papers listed below in the main body of your paper

In addition to the list printed below, the program has created the file xtb_opt.bibtex that contains the list in bibtex format
You can import this file easily into all common literature databanks and citation aid programs


List of essential papers. We consider these as the minimum necessary citations

  1. Neese,F.
     Software update: the ORCA program system, version 5.0
     WIRES Comput. Molec. Sci., 2022 12(1)e1606
     doi.org/10.1002/wcms.1606
  2. Grimme,S.; Hansen,A.; Ehlert,S.; Mewes,J.
     r2SCAN-3c: A 'Swiss army knife' composite electronic-structure method
     J. Chem. Phys., 2021 154 064103
     doi.org/10.1063/5.0040021

List of papers to cite with high priority. The work reported in these papers was absolutely
necessary for this run to complete.
Our perspective: the developers of density functionals and basis sets usually get cited in chemistry papers
Good! But without the algorithms to do something with them, the functionals or basis sets would not do anything.
Hence, in our opinion, the algorithm design and method developments papers are equally worthy of getting cited

  1. Neese,F.
     An improvement of the resolution of the identity approximation for the formation of the Coulomb matrix
     J. Comp. Chem., 2003 24(14)1740-1747
     doi.org/10.1002/jcc.10318
  2. Neese,F.
     The SHARK Integral Generation and Digestion System
     J. Comp. Chem., 2022  1-16
     doi.org/10.1002/jcc.26942
  3. Lehtola,S.; Steigemann,C.; Oliveira,M.; Marques,M.
     Recent developments in Libxc - A comprehensive library of functionals for density functional theory
     Software X, 2018 7 
     doi.org/10.1016/j.softx.2017.11.002
  4. Caldeweyher,E.; Bannwarth,C.; Grimme,S.
     Extension of the D3 dispersion coefficient model
     J. Chem. Phys., 2017 147 034112
     doi.org/10.1063/1.4993215
  5. Caldeweyher,E.; Ehlert,S.; Hansen,A.; Neugebauer,H.; Spicher,S.; Bannwarth,C.; Grimme,S.
     A generally applicable atomic-charge dependent London dispersion correction
     J. Chem. Phys., 2019 150 154122
     doi.org/10.1063/1.5090222
  6. Caldeweyher,E.; Mewes,J.; Ehlert,S.; Grimme,S.
     Extension and evaluation of the D4 London-dispersion model for periodic systems
     Phys. Chem. Chem. Phys., 2020 22(16)8499-8512
     doi.org/10.1039/D0CP00502A
  7. Wittmann,L.; Gordiy,I.; Friede,M.; Helmich-Paris,B.; Grimme,S.; Hansen,A.; Bursch,M.
     Extension of the D3 and D4 London Dispersion Corrections to the full Actinides Series
     Phys. Chem. Chem. Phys., 2024 26(32)21379-21394
     doi.org/https://doi.org/10.1039/D4CP01514B 

List of suggested additional citations. These are papers that are important in the 'surrounding' of 
of this run, or papers that preceded the highly important papers. If you like your results we are grateful for a citation.

  1. Neese,F.
     The ORCA program system
     WIRES Comput. Molec. Sci., 2012 2(1)73-78
     doi.org/10.1002/wcms.81
  2. Neese,F.
     Software update: the ORCA program system, version 4.0
     WIRES Comput. Molec. Sci., 2018 8(1)1-6
     doi.org/10.1002/wcms.1327
  3. Neese,F.; Wennmohs,F.; Becker,U.; Riplinger,C.
     The ORCA quantum chemistry program package
     J. Chem. Phys., 2020 152 Art. No. L224108
     doi.org/10.1063/5.0004608

List of optional additional citations

  1. Neese,F.
     Approximate second-order SCF convergence for spin unrestricted wavefunctions
     Chem. Phys. Lett., 2000 325(1-3)93-98
     doi.org/10.1016/s0009-2614(00)00662-x

Timings for individual modules:

Sum of individual times          ...       19.671 sec (=   0.328 min)
Startup calculation              ...        1.168 sec (=   0.019 min)   5.9 %
SCF iterations                   ...        5.642 sec (=   0.094 min)  28.7 %
Property calculations            ...        0.078 sec (=   0.001 min)   0.4 %
SCF Gradient evaluation          ...       12.783 sec (=   0.213 min)  65.0 %
                             ****ORCA TERMINATED NORMALLY****
TOTAL RUN TIME: 0 days 0 hours 0 minutes 19 seconds 789 msec
  ------------------------------------------------------------------------
          * successful ORCA run, taking over control again...

         :::::::::::::::::::::::::::::::::::::::::::::::::::::
         ::                  ORCA SUMMARY                   ::
         :::::::::::::::::::::::::::::::::::::::::::::::::::::
         :: total energy            -572.563485976994 Eh    ::
         :: gradient norm              0.000362480125 Eh/a0 ::
         :: HOMO-LUMO gap              0.000000000000 eV    ::
         :::::::::::::::::::::::::::::::::::::::::::::::::::::

           -------------------------------------------------
          |                Property Printout                |
           -------------------------------------------------
           -------------------------------------------------
          |                Geometry Summary                 |
           -------------------------------------------------

      molecular mass/u    :      150.1301116
   center of mass at/Å    :        0.0079167       0.0029662      -0.0050083
  moments of inertia/u·Å² :        0.2955868E+03   0.3836505E+03   0.5855562E+03
rotational constants/cm⁻¹ :        0.5703107E-01   0.4394008E-01   0.2878910E-01

 * 20 selected distances

     #   Z          #   Z                                           value/Å
     1   6          2   6                                         1.5227877
     2   6          3   1                                         1.0967457
     2   6          4   6                                         1.5272069
     4   6          5   1                                         1.1079904
     4   6          6   6                                         1.5286695
     6   6          7   1                                         1.0962384
     6   6          8   6                                         1.5344856 (max)
     8   6          9   1                                         1.0971787
     1   6         10   8                                         1.4340004
     8   6         10   8                                         1.4140200
     8   6         11   8                                         1.4229247
     6   6         12   8                                         1.4162585
     4   6         13   8                                         1.4189139
     2   6         14   8                                         1.4332809
     1   6         15   1                                         1.0923713
     1   6         16   1                                         1.1018288
    11   8         17   1                                         0.9641276 (min)
    12   8         18   1                                         0.9661516
    13   8         19   1                                         0.9664483
    14   8         20   1                                         0.9663002

 * 4 distinct bonds (by element types)

   Z      Z             #   av. dist./Å        max./Å        min./Å
   1 H    6 C           6     1.0987255     1.1079904     1.0923713
   6 C    6 C           4     1.5282875     1.5344856     1.5227877
   1 H    8 O           4     0.9657569     0.9664483     0.9641276
   6 C    8 O           6     1.4232331     1.4340004     1.4140200


optimized geometry written to: xtbopt.coord


           -------------------------------------------------
          | TOTAL ENERGY             -572.563485976994 Eh   |
          | GRADIENT NORM               0.000362480125 Eh/α |
           -------------------------------------------------

------------------------------------------------------------------------
 * finished run on 2025/04/09 at 02:29:47.700     
------------------------------------------------------------------------
 total:
 * wall-time:     0 d,  0 h,  4 min, 28.731 sec
 *  cpu-time:     0 d,  0 h,  0 min,  0.445 sec
 * ratio c/w:     0.002 speedup
 SCF:
 * wall-time:     0 d,  0 h,  0 min, 31.298 sec
 *  cpu-time:     0 d,  0 h,  0 min,  0.054 sec
 * ratio c/w:     0.002 speedup
 ANC optimizer:
 * wall-time:     0 d,  0 h,  3 min, 57.362 sec
 *  cpu-time:     0 d,  0 h,  0 min,  0.018 sec
 * ratio c/w:     0.000 speedup

