 Entering Gaussian System
 *********************************************
 Gaussian 98:
 frequency output generated by the xtb code
 *********************************************
                         Standard orientation:
 --------------------------------------------------------------------
  Center     Atomic     Atomic              Coordinates (Angstroms)
  Number     Number      Type              X           Y           Z
 --------------------------------------------------------------------
    1          6             0       -2.220175    0.000054   -0.000144
    2          6             0       -1.529666   -1.202128   -0.000076
    3          6             0       -0.147931   -1.209827    0.000060
    4          6             0        0.546958   -0.000048    0.000124
    5          6             0       -0.147843    1.209782    0.000068
    6          6             0       -1.529577    1.202185   -0.000067
    7          6             0        1.961428   -0.000044    0.000244
    8          7             0        3.107801    0.000001    0.000108
    9          1             0       -3.300008    0.000095   -0.000256
   10          1             0       -2.070898   -2.136487   -0.000127
   11          1             0        0.400415   -2.140409    0.000118
   12          1             0        0.400576    2.140321    0.000132
   13          1             0       -2.070738    2.136585   -0.000113
 --------------------------------------------------------------------
     1 basis functions        1 primitive gaussians
     1 alpha electrons        1 beta electrons

 Harmonic frequencies (cm**-1), IR intensities (km*mol⁻¹),
 Raman scattering activities (A**4/amu), Raman depolarization ratios,
 reduced masses (AMU), force constants (mDyne/A) and normal coordinates:
                      1                      2                      3
                        a                      a                      a 
 Frequencies --   130.2433               146.9151               349.5719
 Red. masses --     5.6816                 6.5414                 4.6366
 Frc consts  --     0.0000                 0.0000                 0.0000
 IR Inten    --     4.1138                 6.1622                 3.5308
 Raman Activ --     0.0000                 0.0000                 0.0000
 Depolar     --     0.0000                 0.0000                 0.0000
 Atom AN      X      Y      Z        X      Y      Z        X      Y      Z
   1   6     0.00   0.00  -0.39     0.00   0.16   0.00    -0.00   0.00  -0.39
   2   6     0.00   0.00  -0.09    -0.21   0.04   0.00    -0.00   0.00   0.20
   3   6    -0.00  -0.00   0.33    -0.20  -0.23   0.00    -0.00   0.00   0.25
   4   6    -0.00  -0.00   0.42    -0.00  -0.36  -0.00     0.00   0.00  -0.34
   5   6    -0.00   0.00   0.33     0.20  -0.23  -0.00    -0.00  -0.00   0.25
   6   6     0.00   0.00  -0.09     0.21   0.04  -0.00    -0.00  -0.00   0.20
   7   6     0.00  -0.00   0.12    -0.00  -0.14  -0.00     0.00   0.00  -0.55
   8   7    -0.00   0.00  -0.56    -0.00   0.68   0.00     0.00  -0.00   0.28
   9   1     0.00   0.00  -0.24     0.00   0.10   0.00     0.00   0.00  -0.26
  10   1     0.00   0.00  -0.07    -0.11   0.04   0.00    -0.00   0.00   0.13
  11   1    -0.00  -0.00   0.14    -0.11  -0.10   0.00    -0.00   0.00   0.15
  12   1    -0.00  -0.00   0.14     0.11  -0.10  -0.00    -0.00  -0.00   0.15
  13   1     0.00   0.00  -0.07     0.11   0.04  -0.00    -0.00  -0.00   0.13
                      4                      5                      6
                        a                      a                      a 
 Frequencies --   361.6909               441.9307               534.9443
 Red. masses --     2.8854                 8.3477                 8.1952
 Frc consts  --     0.0000                 0.0000                 0.0000
 IR Inten    --     0.0000                 0.0914                 3.6617
 Raman Activ --     0.0000                 0.0000                 0.0000
 Depolar     --     0.0000                 0.0000                 0.0000
 Atom AN      X      Y      Z        X      Y      Z        X      Y      Z
   1   6    -0.00   0.00   0.00     0.45  -0.00  -0.00    -0.00  -0.14  -0.00
   2   6    -0.00  -0.00   0.42     0.20  -0.16   0.00    -0.03  -0.12   0.00
   3   6     0.00  -0.00  -0.42     0.14  -0.19   0.00    -0.06   0.31   0.00
   4   6    -0.00   0.00   0.00    -0.26   0.00  -0.00     0.00   0.24   0.00
   5   6    -0.00  -0.00   0.42     0.14   0.19   0.00     0.06   0.31  -0.00
   6   6     0.00   0.00  -0.42     0.20   0.16   0.00     0.03  -0.12  -0.00
   7   6     0.00   0.00   0.00    -0.43  -0.00  -0.00     0.00  -0.77  -0.00
   8   7     0.00   0.00  -0.00    -0.50  -0.00   0.00    -0.00   0.24   0.00
   9   1    -0.00   0.00   0.00     0.13  -0.00  -0.00    -0.00  -0.01  -0.00
  10   1    -0.00   0.00   0.27    -0.00  -0.01   0.00     0.05  -0.06   0.00
  11   1     0.00  -0.00  -0.27     0.12  -0.01   0.00     0.04   0.12  -0.00
  12   1    -0.00  -0.00   0.27     0.12   0.01   0.00    -0.04   0.12   0.00
  13   1     0.00   0.00  -0.27    -0.00   0.01   0.00    -0.05  -0.06  -0.00
                      7                      8                      9
                        a                      a                      a 
 Frequencies --   541.2687               596.3146               657.8978
 Red. masses --     4.6291                 7.1188                 3.3759
 Frc consts  --     0.0000                 0.0000                 0.0000
 IR Inten    --    12.5732                 1.0860                 5.5731
 Raman Activ --     0.0000                 0.0000                 0.0000
 Depolar     --     0.0000                 0.0000                 0.0000
 Atom AN      X      Y      Z        X      Y      Z        X      Y      Z
   1   6    -0.00   0.00  -0.29     0.00  -0.16  -0.00    -0.00  -0.00   0.29
   2   6    -0.00   0.00   0.23    -0.36  -0.32  -0.00     0.00   0.00  -0.37
   3   6     0.00   0.00  -0.14    -0.32   0.20  -0.00    -0.00   0.00   0.30
   4   6     0.00   0.00  -0.45    -0.00   0.10   0.00     0.00   0.00  -0.47
   5   6     0.00  -0.00  -0.14     0.32   0.20   0.00    -0.00  -0.00   0.30
   6   6    -0.00  -0.00   0.23     0.36  -0.32   0.00     0.00  -0.00  -0.37
   7   6     0.00  -0.00   0.62    -0.00   0.39   0.00    -0.00  -0.00   0.10
   8   7    -0.00   0.00  -0.22     0.00  -0.10  -0.00    -0.00   0.00  -0.04
   9   1    -0.00   0.00  -0.06     0.00   0.12   0.00    -0.00  -0.00   0.27
  10   1    -0.00   0.00   0.25    -0.06  -0.11  -0.00     0.00   0.00   0.01
  11   1    -0.00   0.00   0.10    -0.05   0.08  -0.00    -0.00   0.00   0.28
  12   1    -0.00  -0.00   0.10     0.05   0.08   0.00    -0.00  -0.00   0.28
  13   1    -0.00  -0.00   0.25     0.06  -0.11   0.00     0.00  -0.00   0.01
                     10                     11                     12
                        a                      a                      a 
 Frequencies --   755.6738               770.1505               873.2823
 Red. masses --     1.4131                 6.4096                 1.2492
 Frc consts  --     0.0000                 0.0000                 0.0000
 IR Inten    --    21.2407                 0.0212                 0.0000
 Raman Activ --     0.0000                 0.0000                 0.0000
 Depolar     --     0.0000                 0.0000                 0.0000
 Atom AN      X      Y      Z        X      Y      Z        X      Y      Z
   1   6     0.00   0.00  -0.20    -0.36   0.00  -0.00     0.00   0.00   0.00
   2   6    -0.00  -0.00  -0.10     0.22   0.39   0.00     0.00   0.00  -0.19
   3   6    -0.00  -0.00  -0.19     0.18   0.23  -0.00     0.00   0.00  -0.27
   4   6    -0.00  -0.00   0.38     0.14  -0.00   0.00     0.00   0.00  -0.00
   5   6    -0.00   0.00  -0.19     0.18  -0.23  -0.00    -0.00   0.00   0.27
   6   6    -0.00   0.00  -0.10     0.22  -0.39   0.00    -0.00  -0.00   0.19
   7   6     0.00   0.00  -0.18    -0.27   0.00  -0.00     0.00  -0.00   0.00
   8   7     0.00  -0.00   0.05    -0.36  -0.00   0.00     0.00   0.00  -0.00
   9   1    -0.00  -0.00   0.45    -0.10   0.00   0.00     0.00  -0.00  -0.00
  10   1    -0.00  -0.00   0.39     0.18   0.04   0.00    -0.00  -0.00   0.38
  11   1    -0.00  -0.00   0.30    -0.00   0.04   0.00    -0.00   0.00   0.50
  12   1    -0.00   0.00   0.30    -0.00  -0.04   0.00     0.00   0.00  -0.50
  13   1    -0.00   0.00   0.39     0.18  -0.04   0.00     0.00   0.00  -0.38
                     13                     14                     15
                        a                      a                      a 
 Frequencies --   904.8601               928.2870               934.8050
 Red. masses --     1.2804                 1.3686                 1.2335
 Frc consts  --     0.0000                 0.0000                 0.0000
 IR Inten    --     0.2378                 0.0000                 0.0141
 Raman Activ --     0.0000                 0.0000                 0.0000
 Depolar     --     0.0000                 0.0000                 0.0000
 Atom AN      X      Y      Z        X      Y      Z        X      Y      Z
   1   6    -0.00  -0.00   0.30    -0.00   0.00   0.00     0.00   0.00  -0.31
   2   6    -0.00   0.00   0.06     0.00   0.00  -0.30    -0.00   0.00   0.22
   3   6     0.00  -0.00  -0.26    -0.00   0.00   0.23     0.00   0.00  -0.03
   4   6    -0.00  -0.00   0.07    -0.00  -0.00   0.00     0.00   0.00  -0.07
   5   6     0.00   0.00  -0.26     0.00   0.00  -0.23     0.00  -0.00  -0.03
   6   6    -0.00  -0.00   0.06    -0.00  -0.00   0.30    -0.00  -0.00   0.22
   7   6    -0.00   0.00  -0.03    -0.00  -0.00  -0.00    -0.00   0.00  -0.00
   8   7     0.00  -0.00   0.01    -0.00   0.00   0.00    -0.00   0.00  -0.00
   9   1     0.00   0.00  -0.46    -0.00   0.00  -0.00    -0.00  -0.00   0.58
  10   1     0.00  -0.00  -0.19    -0.00   0.00   0.48     0.00   0.00  -0.46
  11   1    -0.00   0.00   0.49     0.00  -0.00  -0.35    -0.00   0.00   0.15
  12   1    -0.00  -0.00   0.49    -0.00  -0.00   0.35    -0.00  -0.00   0.15
  13   1     0.00   0.00  -0.19     0.00   0.00  -0.48     0.00   0.00  -0.46
                     16                     17                     18
                        a                      a                      a 
 Frequencies --   986.0045              1077.9967              1116.3563
 Red. masses --     5.6844                 1.9583                 1.3502
 Frc consts  --     0.0000                 0.0000                 0.0000
 IR Inten    --     0.3768                 0.1445                 0.2128
 Raman Activ --     0.0000                 0.0000                 0.0000
 Depolar     --     0.0000                 0.0000                 0.0000
 Atom AN      X      Y      Z        X      Y      Z        X      Y      Z
   1   6    -0.39   0.00  -0.00     0.45  -0.00   0.00    -0.00  -0.20  -0.00
   2   6     0.04   0.15   0.00     0.06   0.37   0.00     0.12   0.15   0.00
   3   6     0.18  -0.54   0.00    -0.16   0.00  -0.00    -0.21   0.15  -0.00
   4   6    -0.15   0.00  -0.00    -0.02  -0.00  -0.00     0.00  -0.16  -0.00
   5   6     0.19   0.54   0.00    -0.16  -0.00  -0.00     0.21   0.15   0.00
   6   6     0.04  -0.15   0.00     0.06  -0.37   0.00    -0.12   0.15  -0.00
   7   6     0.06  -0.00   0.00     0.01  -0.00   0.00    -0.00   0.04   0.00
   8   7     0.11   0.00  -0.00     0.02   0.00  -0.00    -0.00  -0.01  -0.00
   9   1    -0.11   0.00  -0.00     0.13  -0.00   0.00    -0.00  -0.44  -0.00
  10   1    -0.08   0.08  -0.00    -0.23   0.26  -0.00     0.27  -0.09   0.00
  11   1     0.00  -0.18   0.00    -0.30  -0.14  -0.00    -0.40  -0.15  -0.00
  12   1     0.00   0.18   0.00    -0.30   0.14  -0.00     0.40  -0.15   0.00
  13   1    -0.08  -0.08  -0.00    -0.23  -0.26  -0.00    -0.27  -0.09  -0.00
                     19                     20                     21
                        a                      a                      a 
 Frequencies --  1181.8981              1187.6604              1232.5017
 Red. masses --     1.0374                 1.1334                 3.0058
 Frc consts  --     0.0000                 0.0000                 0.0000
 IR Inten    --     0.0028                 2.6904                 9.0577
 Raman Activ --     0.0000                 0.0000                 0.0000
 Depolar     --     0.0000                 0.0000                 0.0000
 Atom AN      X      Y      Z        X      Y      Z        X      Y      Z
   1   6     0.00   0.10   0.00     0.01  -0.00  -0.00     0.09   0.00   0.00
   2   6     0.03  -0.03   0.00     0.04  -0.14   0.00     0.16   0.17   0.00
   3   6     0.09  -0.00   0.00    -0.05  -0.09  -0.00    -0.19  -0.00  -0.00
   4   6     0.00  -0.06  -0.00     0.22  -0.00   0.00    -0.67   0.00  -0.00
   5   6    -0.09  -0.00  -0.00    -0.05   0.09  -0.00    -0.19   0.00  -0.00
   6   6    -0.03  -0.03  -0.00     0.04   0.14   0.00     0.16  -0.17   0.00
   7   6    -0.00  -0.01  -0.00    -0.05   0.00  -0.00     0.13  -0.00   0.00
   8   7    -0.00   0.00   0.00    -0.09  -0.00   0.00     0.26   0.00  -0.00
   9   1     0.00   0.72   0.00    -0.00  -0.00   0.00     0.03   0.00   0.00
  10   1     0.39  -0.23   0.00     0.32  -0.22   0.00     0.34  -0.12   0.00
  11   1    -0.12  -0.08  -0.00    -0.45  -0.28  -0.00     0.05   0.07   0.00
  12   1     0.12  -0.08   0.00    -0.45   0.28  -0.00     0.05  -0.07   0.00
  13   1    -0.39  -0.23  -0.00     0.32   0.22   0.00     0.34   0.12   0.00
                     22                     23                     24
                        a                      a                      a 
 Frequencies --  1273.7050              1316.3539              1424.8948
 Red. masses --     1.2714                10.7357                 2.8804
 Frc consts  --     0.0000                 0.0000                 0.0000
 IR Inten    --     0.0037                 0.8621                 0.5947
 Raman Activ --     0.0000                 0.0000                 0.0000
 Depolar     --     0.0000                 0.0000                 0.0000
 Atom AN      X      Y      Z        X      Y      Z        X      Y      Z
   1   6    -0.00  -0.14  -0.00     0.00   0.43   0.00    -0.00   0.29   0.00
   2   6     0.08  -0.12   0.00     0.32  -0.19   0.00    -0.38  -0.03  -0.00
   3   6     0.16   0.02   0.00    -0.36  -0.22  -0.00     0.26  -0.16   0.00
   4   6     0.00   0.34   0.00     0.00   0.43   0.00    -0.00   0.39   0.00
   5   6    -0.16   0.02  -0.00     0.36  -0.22   0.00    -0.26  -0.16  -0.00
   6   6    -0.08  -0.12  -0.00    -0.32  -0.19  -0.00     0.38  -0.03   0.00
   7   6    -0.00  -0.03  -0.00    -0.00  -0.01  -0.00     0.00  -0.04  -0.00
   8   7    -0.00   0.01   0.00    -0.00   0.01   0.00    -0.00   0.01   0.00
   9   1     0.00   0.24   0.00    -0.00  -0.06  -0.00    -0.00  -0.37  -0.00
  10   1    -0.31   0.16  -0.00     0.05  -0.03   0.00     0.16  -0.17   0.00
  11   1    -0.41  -0.26  -0.00     0.01   0.00   0.00    -0.07  -0.13  -0.00
  12   1     0.41  -0.26   0.00    -0.01   0.00  -0.00     0.07  -0.13   0.00
  13   1     0.31   0.16   0.00    -0.05  -0.03  -0.00    -0.16  -0.17  -0.00
                     25                     26                     27
                        a                      a                      a 
 Frequencies --  1464.9258              1573.4700              1590.7025
 Red. masses --     3.0091                 7.7062                 7.7271
 Frc consts  --     0.0000                 0.0000                 0.0000
 IR Inten    --     2.5373                 0.0110                 7.0199
 Raman Activ --     0.0000                 0.0000                 0.0000
 Depolar     --     0.0000                 0.0000                 0.0000
 Atom AN      X      Y      Z        X      Y      Z        X      Y      Z
   1   6     0.26   0.00   0.00    -0.00  -0.58  -0.00    -0.21  -0.00  -0.00
   2   6    -0.24   0.26  -0.00    -0.10   0.31  -0.00     0.44  -0.13   0.00
   3   6    -0.18  -0.26  -0.00    -0.17  -0.27  -0.00    -0.44  -0.12  -0.00
   4   6     0.44   0.00   0.00     0.00   0.44   0.00     0.26   0.00   0.00
   5   6    -0.18   0.26  -0.00     0.17  -0.27   0.00    -0.44   0.12  -0.00
   6   6    -0.24  -0.26  -0.00     0.10   0.31   0.00     0.44   0.13   0.00
   7   6    -0.04   0.00  -0.00    -0.00  -0.02  -0.00    -0.02  -0.00  -0.00
   8   7    -0.10  -0.00   0.00    -0.00   0.01   0.00    -0.03  -0.00   0.00
   9   1     0.08  -0.00   0.00     0.00   0.15   0.00    -0.05   0.00  -0.00
  10   1     0.24  -0.10   0.00     0.07   0.03   0.00    -0.08   0.08  -0.00
  11   1     0.24   0.09   0.00     0.09   0.01   0.00     0.07   0.08   0.00
  12   1     0.24  -0.09   0.00    -0.09   0.01  -0.00     0.07  -0.08   0.00
  13   1     0.24   0.10   0.00    -0.07   0.03  -0.00    -0.08  -0.08  -0.00
                     28                     29                     30
                        a                      a                      a 
 Frequencies --  2376.9524              3080.9115              3083.7674
 Red. masses --    12.7160                 1.0742                 1.0778
 Frc consts  --     0.0000                 0.0000                 0.0000
 IR Inten    --   214.4129                 0.2922                 0.6716
 Raman Activ --     0.0000                 0.0000                 0.0000
 Depolar     --     0.0000                 0.0000                 0.0000
 Atom AN      X      Y      Z        X      Y      Z        X      Y      Z
   1   6     0.00  -0.00   0.00     0.16  -0.00   0.00    -0.00  -0.00  -0.00
   2   6    -0.01   0.00  -0.00    -0.06  -0.11  -0.00    -0.07  -0.12  -0.00
   3   6     0.01   0.01   0.00    -0.03   0.05  -0.00    -0.07   0.11  -0.00
   4   6     0.09   0.00   0.00    -0.00   0.00  -0.00    -0.00   0.00   0.00
   5   6     0.01  -0.01   0.00    -0.03  -0.05  -0.00     0.07   0.11   0.00
   6   6    -0.01  -0.00  -0.00    -0.06   0.11  -0.00     0.07  -0.12   0.00
   7   6    -0.78  -0.00   0.00    -0.00  -0.00   0.00    -0.00   0.00   0.00
   8   7     0.62   0.00  -0.00     0.00  -0.00  -0.00     0.00  -0.00  -0.00
   9   1     0.00  -0.00  -0.00    -0.59   0.00  -0.00     0.00   0.00   0.00
  10   1    -0.00   0.00  -0.00     0.24   0.42   0.00     0.25   0.43   0.00
  11   1    -0.00   0.00  -0.00     0.12  -0.21   0.00     0.24  -0.41   0.00
  12   1    -0.00  -0.00  -0.00     0.12   0.21   0.00    -0.24  -0.41  -0.00
  13   1    -0.00  -0.00  -0.00     0.24  -0.42   0.00    -0.25   0.43  -0.00
                     31                     32                     33
                        a                      a                      a 
 Frequencies --  3089.4558              3094.8798              3099.6383
 Red. masses --     1.0825                 1.0872                 1.0914
 Frc consts  --     0.0000                 0.0000                 0.0000
 IR Inten    --    26.2711                63.1000                22.1960
 Raman Activ --     0.0000                 0.0000                 0.0000
 Depolar     --     0.0000                 0.0000                 0.0000
 Atom AN      X      Y      Z        X      Y      Z        X      Y      Z
   1   6    -0.15   0.00  -0.00    -0.00   0.00   0.00    -0.16   0.00  -0.00
   2   6    -0.01  -0.01  -0.00    -0.07  -0.12  -0.00    -0.07  -0.12  -0.00
   3   6    -0.08   0.14  -0.00     0.07  -0.12   0.00     0.05  -0.08   0.00
   4   6    -0.01  -0.00  -0.00    -0.00   0.00   0.00     0.01  -0.00   0.00
   5   6    -0.08  -0.14  -0.00    -0.07  -0.12  -0.00     0.05   0.08   0.00
   6   6    -0.01   0.01  -0.00     0.07  -0.12   0.00    -0.07   0.12  -0.00
   7   6    -0.00   0.00   0.00    -0.00  -0.00  -0.00     0.00   0.00  -0.00
   8   7     0.00   0.00  -0.00     0.00   0.00   0.00    -0.00  -0.00   0.00
   9   1     0.54  -0.00   0.00     0.00  -0.00   0.00     0.54  -0.00   0.00
  10   1     0.02   0.04   0.00     0.24   0.40   0.00     0.24   0.41   0.00
  11   1     0.28  -0.49   0.00    -0.25   0.42  -0.00    -0.15   0.26  -0.00
  12   1     0.28   0.49   0.00     0.25   0.42   0.00    -0.15  -0.26  -0.00
  13   1     0.02  -0.04   0.00    -0.23   0.40  -0.00     0.24  -0.41   0.00
