14
 energy: -307.634491157024 gnorm: 0.006058891948 xtb: 6.7.1 (41059b4)
C           -2.48436932472617       -0.00010103336550       -0.28275526436477
C           -1.23184582416039        0.74706249491056        0.15831976556890
C            0.03264006498480       -0.02218883734982       -0.13774867843201
O            0.09040658304261       -1.17095719041023       -0.50381802411566
O            1.12912231716959        0.74605834451658        0.09493267220418
C            2.38984332982975        0.08178329538168       -0.13424938967945
H           -2.55079088383907       -0.97240483114841        0.20884231639879
H           -3.37858192819421        0.57880754781538       -0.03871901687095
H           -2.46886639426248       -0.17743156009733       -1.36071622354892
H           -1.24699862040438        0.94528815427818        1.23798775741134
H           -1.15416081322542        1.72947320007191       -0.31931632415989
H            2.49945176545548       -0.77086284326701        0.53584773096483
H            3.15777352807597        0.82714516327514        0.06612367619047
H            2.45392907734045       -0.26663006928416       -1.16543304965734
14
 energy: -307.634522499630 gnorm: 0.002872283904 xtb: 6.7.1 (41059b4)
C           -2.48319399585363        0.00045489440560       -0.28344413789157
C           -1.23158912070199        0.74747386505795        0.15802362296540
C            0.03316084090285       -0.02507858209892       -0.12859058241239
O            0.09069497786678       -1.17046159683994       -0.50864578784165
O            1.12847722837225        0.74504472839751        0.09597265411615
C            2.38896470764893        0.08181901596181       -0.13531402510156
H           -2.54980050089220       -0.97129496470541        0.21034894304996
H           -3.37761054645372        0.57971012470030       -0.03993667378359
H           -2.46890853647523       -0.17920928662809       -1.36130412585442
H           -1.24730728948318        0.94537203674281        1.23747922310923
H           -1.15151143090339        1.72996708857841       -0.32001925853642
H            2.49896309247583       -0.77251758204016        0.53706064574686
H            3.15456197494426        0.83080741949161        0.06642510591605
H            2.45265144500116       -0.26704519777647       -1.16875762080546
14
 energy: -307.634535235515 gnorm: 0.001053921977 xtb: 6.7.1 (41059b4)
C           -2.48298603896778        0.00017449203047       -0.28209297893743
C           -1.23147440551189        0.74767295583666        0.15736940626264
C            0.03311823021776       -0.02326802451325       -0.13427978015998
O            0.09063077566597       -1.16986406549523       -0.51145396682386
O            1.12795614701556        0.74470673744784        0.09524145816012
C            2.38871676890266        0.08152273862751       -0.13410291079501
H           -2.54889593933672       -0.97140887647519        0.21242851461408
H           -3.37745720141164        0.57933539036256       -0.03819563225000
H           -2.46995484587958       -0.18035741263924       -1.35993163388018
H           -1.24553174558676        0.94649308584005        1.23671974006992
H           -1.15176482523080        1.72974937873748       -0.32167713142919
H            2.49746525861434       -0.77451583803852        0.53754867607039
H            3.15358532744409        0.83089475574887        0.07028900702496
H            2.45414523933375       -0.26609361010795       -1.16856497870615
14
 energy: -307.634539254567 gnorm: 0.000598306828 xtb: 6.7.1 (41059b4)
C           -2.48332489559381       -0.00011389310101       -0.28027118351819
C           -1.23148198236343        0.74792873152529        0.15573305668237
C            0.03321292345339       -0.02209958875474       -0.13793944944948
O            0.09038853667615       -1.16820595852119       -0.51743672684706
O            1.12749205617638        0.74369138284157        0.09540027535261
C            2.38887495137762        0.08141528437860       -0.13267334021432
H           -2.54823255043009       -0.97095659797715        0.21597611895350
H           -3.37783738171414        0.57894124266897       -0.03612598966543
H           -2.47183692398470       -0.18276663731978       -1.35778513799015
H           -1.24351329679518        0.94846013192558        1.23476827888040
H           -1.15244835944401        1.72939114640948       -0.32480395344529
H            2.49604843029333       -0.77675769431493        0.53663874700394
H            3.15328528735928        0.82996926466227        0.07560901867328
H            2.45692578261179       -0.26385543528566       -1.16779221833292
14
 energy: -307.634539254567 gnorm: 0.000598306828 xtb: 6.7.1 (41059b4)
C           -2.48332489559381       -0.00011389310101       -0.28027118351819
C           -1.23148198236343        0.74792873152529        0.15573305668237
C            0.03321292345339       -0.02209958875474       -0.13793944944948
O            0.09038853667615       -1.16820595852119       -0.51743672684706
O            1.12749205617638        0.74369138284157        0.09540027535261
C            2.38887495137762        0.08141528437860       -0.13267334021432
H           -2.54823255043009       -0.97095659797715        0.21597611895350
H           -3.37783738171414        0.57894124266897       -0.03612598966543
H           -2.47183692398470       -0.18276663731978       -1.35778513799015
H           -1.24351329679518        0.94846013192558        1.23476827888040
H           -1.15244835944401        1.72939114640948       -0.32480395344529
H            2.49604843029333       -0.77675769431493        0.53663874700394
H            3.15328528735928        0.82996926466227        0.07560901867328
H            2.45692578261179       -0.26385543528566       -1.16779221833292
