      -----------------------------------------------------------      
     |                   =====================                   |     
     |                           x T B                           |     
     |                   =====================                   |     
     |                         S. Grimme                         |     
     |          Mulliken Center for Theoretical Chemistry        |     
     |                    University of Bonn                     |     
      -----------------------------------------------------------      

   * xtb version 6.7.1 (41059b4) compiled by 'michael@archlinux' on 2025-03-24

   xtb is free software: you can redistribute it and/or modify it under
   the terms of the GNU Lesser General Public License as published by
   the Free Software Foundation, either version 3 of the License, or
   (at your option) any later version.
   
   xtb is distributed in the hope that it will be useful,
   but WITHOUT ANY WARRANTY; without even the implied warranty of
   MERCHANTABILITY or FITNESS FOR A PARTICULAR PURPOSE.  See the
   GNU Lesser General Public License for more details.
   
   Cite this work as:
   * C. Bannwarth, E. Caldeweyher, S. Ehlert, A. Hansen, P. Pracht,
     J. Seibert, S. Spicher, S. Grimme, WIREs Comput. Mol. Sci., 2020, 11,
     e01493. DOI: 10.1002/wcms.1493
   
   for GFN2-xTB:
   * C. Bannwarth, S. Ehlert and S. Grimme., J. Chem. Theory Comput., 2019,
     15, 1652-1671. DOI: 10.1021/acs.jctc.8b01176
   for GFN1-xTB:
   * S. Grimme, C. Bannwarth, P. Shushkov, J. Chem. Theory Comput., 2017,
     13, 1989-2009. DOI: 10.1021/acs.jctc.7b00118
   for GFN0-xTB:
   * P. Pracht, E. Caldeweyher, S. Ehlert, S. Grimme, ChemRxiv, 2019, preprint.
     DOI: 10.26434/chemrxiv.8326202.v1
   for GFN-FF:
   * S. Spicher and S. Grimme, Angew. Chem. Int. Ed., 2020, 59, 15665-15673.
     DOI: 10.1002/anie.202004239
   
   for ALPB and GBSA implicit solvation:
   * S. Ehlert, M. Stahn, S. Spicher, S. Grimme, J. Chem. Theory Comput.,
     2021, 17, 4250-4261. DOI: 10.1021/acs.jctc.1c00471
   
   for ddCOSMO and CPCM-X implicit solvation:
   * M. Stahn, S. Ehlert, S. Grimme, J. Phys. Chem. A,
     2023, XX, XXXX-XXXX. DOI: 10.1021/acs.jpca.3c04382
   
   for DFT-D4:
   * E. Caldeweyher, C. Bannwarth and S. Grimme, J. Chem. Phys., 2017,
     147, 034112. DOI: 10.1063/1.4993215
   * E. Caldeweyher, S. Ehlert, A. Hansen, H. Neugebauer, S. Spicher,
     C. Bannwarth and S. Grimme, J. Chem. Phys., 2019, 150, 154122.
     DOI: 10.1063/1.5090222
   * E. Caldeweyher, J.-M. Mewes, S. Ehlert and S. Grimme, Phys. Chem. Chem. Phys.
     2020, 22, 8499-8512. DOI: 10.1039/D0CP00502A
   
   for sTDA-xTB:
   * S. Grimme and C. Bannwarth, J. Chem. Phys., 2016, 145, 054103.
     DOI: 10.1063/1.4959605
   
   in the mass-spec context:
   * V. Asgeirsson, C. Bauer and S. Grimme, Chem. Sci., 2017, 8, 4879.
     DOI: 10.1039/c7sc00601b
   * J. Koopman and S. Grimme, ACS Omega 2019, 4, 12, 15120-15133.
     DOI: 10.1021/acsomega.9b02011
   
   for metadynamics refer to:
   * S. Grimme, J. Chem. Theory Comput., 2019, 155, 2847-2862
     DOI: 10.1021/acs.jctc.9b00143
   
   for SPH calculations refer to:
   * S. Spicher and S. Grimme, J. Chem. Theory Comput., 2021, 17, 1701-1714
     DOI: 10.1021/acs.jctc.0c01306
   
   for ONIOM refer to:
   * C. Plett, A. Katbashev, S. Ehlert, S. Grimme, M. Bursch,
     Phys. Chem. Chem. Phys., 2023, 25, 17860-17868. DOI: 10.1039/D3CP02178E
   
   for DIPRO refer to:
   * J. Kohn, N. Gildemeister, S. Grimme, D. Fazzi, A. Hansen,
     J. Chem. Phys., 2023, just accepted.
   
   for PTB refer to:
   * S. Grimme, M. Mueller, A. Hansen, J. Chem. Phys., 2023, 158, 124111.
     DOI: 10.1063/5.0137838
   
   with help from (in alphabetical order)
   P. Atkinson, C. Bannwarth, F. Bohle, G. Brandenburg, E. Caldeweyher
   M. Checinski, S. Dohm, S. Ehlert, S. Ehrlich, I. Gerasimov, C. Hölzer
   A. Katbashev, J. Kohn, J. Koopman, C. Lavigne, S. Lehtola, F. März, M. Müller,
   F. Musil, H. Neugebauer, J. Pisarek, C. Plett, P. Pracht, F. Pultar,
   J. Seibert, P. Shushkov, S. Spicher, M. Stahn, M. Steiner, T. Strunk,
   J. Stückrath, T. Rose, and J. Unsleber
   
 * started run on 2025/04/08 at 22:46:21.776     
   ID    Z sym.   atoms
    1    6 C      1-6
    2    8 O      7
    3   17 Cl     8
    4    1 H      9-13

           -------------------------------------------------
          |                Calculation Setup                |
           -------------------------------------------------

          program call               : /usr/bin/xtb xtb_rrho.coord --gfn2 --ohess vtight --chrg 0 --enso --norestart -I rrho-xcontrol-inp --parallel 1
          coordinate file            : xtb_rrho.coord
          omp threads                :                     1


           -------------------------------------------------
          |                 G F N 2 - x T B                 |
           -------------------------------------------------

        Reference                      10.1021/acs.jctc.8b01176
      * Hamiltonian:
        H0-scaling (s, p, d)           1.850000    2.230000    2.230000
        zeta-weighting                 0.500000
      * Dispersion:
        s8                             2.700000
        a1                             0.520000
        a2                             5.000000
        s9                             5.000000
      * Repulsion:
        kExp                           1.500000    1.000000
        rExp                           1.000000
      * Coulomb:
        alpha                          2.000000
        third order                    shell-resolved
        anisotropic                    true
        a3                             3.000000
        a5                             4.000000
        cn-shift                       1.200000
        cn-exp                         4.000000
        max-rad                        5.000000


          ...................................................
          :                      SETUP                      :
          :.................................................:
          :  # basis functions                  43          :
          :  # atomic orbitals                  42          :
          :  # shells                           22          :
          :  # electrons                        42          :
          :  max. iterations                   250          :
          :  Hamiltonian                  GFN2-xTB          :
          :  restarted?                      false          :
          :  GBSA solvation                  false          :
          :  PC potential                    false          :
          :  electronic temp.          300.0000000     K    :
          :  accuracy                    1.0000000          :
          :  -> integral cutoff          0.2500000E+02      :
          :  -> integral neglect         0.1000000E-07      :
          :  -> SCF convergence          0.1000000E-05 Eh   :
          :  -> wf. convergence          0.1000000E-03 e    :
          :  Broyden damping             0.4000000          :
          :  net charge                          0          :
          :  unpaired electrons                  0          :
          ...................................................

 iter      E             dE          RMSdq      gap      omega  full diag
   1    -24.2887205 -0.242887E+02  0.501E+00    4.07       0.0  T
   2    -24.3034877 -0.147672E-01  0.301E+00    4.08       1.0  T
   3    -24.2967384  0.674930E-02  0.105E+00    3.99       1.0  T
   4    -24.3060556 -0.931722E-02  0.340E-01    4.13       1.0  T
   5    -24.3067266 -0.671046E-03  0.165E-01    4.11       1.0  T
   6    -24.3067789 -0.522734E-04  0.117E-01    4.10       1.0  T
   7    -24.3068333 -0.543504E-04  0.735E-02    4.10       1.0  T
   8    -24.3068568 -0.235801E-04  0.386E-02    4.10       1.0  T
   9    -24.3068642 -0.732240E-05  0.196E-02    4.10       1.4  T
  10    -24.3068657 -0.148649E-05  0.761E-03    4.10       3.6  T
  11    -24.3068658 -0.140411E-06  0.438E-03    4.10       6.3  T
  12    -24.3068659 -0.638185E-07  0.332E-03    4.10       8.3  T
  13    -24.3068659 -0.580664E-07  0.169E-03    4.10      16.4  T
  14    -24.3068659 -0.143681E-07  0.688E-04    4.10      40.3  T
  15    -24.3068659 -0.244597E-08  0.337E-04    4.10      82.3  T

   *** convergence criteria satisfied after 15 iterations ***

         #    Occupation            Energy/Eh            Energy/eV
      -------------------------------------------------------------
         1        2.0000           -1.0643927             -28.9636
       ...           ...                  ...                  ...
        15        2.0000           -0.4815695             -13.1042
        16        2.0000           -0.4572948             -12.4436
        17        2.0000           -0.4530067             -12.3269
        18        2.0000           -0.4429889             -12.0543
        19        2.0000           -0.4289523             -11.6724
        20        2.0000           -0.4109619             -11.1828
        21        2.0000           -0.3922241             -10.6730 (HOMO)
        22                         -0.2416719              -6.5762 (LUMO)
        23                         -0.2314283              -6.2975
        24                         -0.1540393              -4.1916
        25                         -0.1112407              -3.0270
        26                          0.0041687               0.1134
       ...                                ...                  ...
        42                          0.6254220              17.0186
      -------------------------------------------------------------
                  HL-Gap            0.1505522 Eh            4.0967 eV
             Fermi-level           -0.3169480 Eh           -8.6246 eV

 SCC (total)                   0 d,  0 h,  0 min,  0.008 sec
 SCC setup                      ...        0 min,  0.000 sec (  1.212%)
 Dispersion                     ...        0 min,  0.000 sec (  0.835%)
 classical contributions        ...        0 min,  0.000 sec (  0.254%)
 integral evaluation            ...        0 min,  0.001 sec ( 14.318%)
 iterations                     ...        0 min,  0.004 sec ( 55.219%)
 molecular gradient             ...        0 min,  0.002 sec ( 27.395%)
 printout                       ...        0 min,  0.000 sec (  0.661%)

         :::::::::::::::::::::::::::::::::::::::::::::::::::::
         ::                     SUMMARY                     ::
         :::::::::::::::::::::::::::::::::::::::::::::::::::::
         :: total energy             -24.006683187593 Eh    ::
         :: gradient norm              0.014452027842 Eh/a0 ::
         :: HOMO-LUMO gap              4.096734167393 eV    ::
         ::.................................................::
         :: SCC energy               -24.306847336651 Eh    ::
         :: -> isotropic ES            0.022909091218 Eh    ::
         :: -> anisotropic ES         -0.000598874517 Eh    ::
         :: -> anisotropic XC          0.006852738787 Eh    ::
         :: -> dispersion             -0.010982292762 Eh    ::
         :: repulsion energy           0.300164149058 Eh    ::
         :: add. restraining           0.000000000000 Eh    ::
         :: total charge               0.000000000000 e     ::
         :::::::::::::::::::::::::::::::::::::::::::::::::::::

      ----------------------------------------------------------- 
     |                   =====================                   |
     |                        A N C O P T                        |
     |                   =====================                   |
     |               Approximate Normal Coordinate               |
     |                Rational Function Optimizer                |
      ----------------------------------------------------------- 

          ...................................................
          :                      SETUP                      :
          :.................................................:
          :   optimization level         verytight          :
          :   max. optcycles                   260          :
          :   ANC micro-cycles                  20          :
          :   degrees of freedom                33          :
          :.................................................:
          :   RF solver                   davidson          :
          :   write xtbopt.log                true          :
          :   linear?                        false          :
          :   energy convergence         0.1000000E-06 Eh   :
          :   grad. convergence          0.2000000E-03 Eh/α :
          :   maximum RF displ.          1.0000000          :
          :   Hlow (freq-cutoff)         0.1000000E-01      :
          :   Hmax (freq-cutoff)         5.0000000          :
          :   S6 in model hess.         20.0000000          :
          ...................................................

generating ANC from exact Hessian ...
Using Lindh-Hessian (1995)
 Shifting diagonal of input Hessian by    2.0219653896178507E-003
 Lowest  eigenvalues of input Hessian
    0.000000    0.000000    0.000000    0.000000    0.000000    0.000000
    0.010000    0.013315    0.022255    0.022770    0.031322    0.045449
    0.058271    0.061088    0.083173    0.091531    0.097845    0.099618
 Highest eigenvalues
    1.440657    1.597706    1.726807    1.866097    1.985953    2.064232


........................................................................
.............................. CYCLE    1 ..............................
........................................................................

 iter      E             dE          RMSdq      gap      omega  full diag
   1    -24.3068659 -0.243069E+02  0.618E-05    4.10       0.0  T
   2    -24.3068659 -0.382627E-11  0.380E-05    4.10     729.9  T
   3    -24.3068659  0.976996E-12  0.223E-05    4.10    1245.3  T
     SCC iter.                  ...        0 min,  0.001 sec
     gradient                   ...        0 min,  0.002 sec
 * total energy  :   -24.0066832 Eh     change       -0.6876917E-09 Eh
   gradient norm :     0.0144506 Eh/α   predicted     0.0000000E+00 (-100.00%)
   displ. norm   :     0.0869837 α      lambda       -0.8399636E-03
   maximum displ.:     0.0645322 α      in ANC's #5, #18, #17, ...

........................................................................
.............................. CYCLE    2 ..............................
........................................................................

 iter      E             dE          RMSdq      gap      omega  full diag
   1    -24.3173749 -0.243174E+02  0.932E-02    4.13       0.0  T
   2    -24.3173791 -0.425270E-05  0.577E-02    4.14       1.0  T
   3    -24.3173743  0.485543E-05  0.295E-02    4.13       1.0  T
   4    -24.3173824 -0.809149E-05  0.735E-03    4.13       3.8  T
   5    -24.3173825 -0.110398E-06  0.598E-03    4.14       4.6  T
   6    -24.3173827 -0.194980E-06  0.283E-03    4.14       9.8  T
   7    -24.3173827 -0.372342E-07  0.175E-03    4.13      15.9  T
   8    -24.3173827 -0.156643E-07  0.807E-04    4.14      34.4  T
   9    -24.3173827 -0.274852E-08  0.342E-04    4.13      81.0  T
     SCC iter.                  ...        0 min,  0.002 sec
     gradient                   ...        0 min,  0.002 sec
 * total energy  :   -24.0071844 Eh     change       -0.5012508E-03 Eh
   gradient norm :     0.0061825 Eh/α   predicted    -0.4231604E-03 ( -15.58%)
   displ. norm   :     0.0262105 α      lambda       -0.6898004E-04
   maximum displ.:     0.0178829 α      in ANC's #5, #7, #18, ...

........................................................................
.............................. CYCLE    3 ..............................
........................................................................

 iter      E             dE          RMSdq      gap      omega  full diag
   1    -24.3192613 -0.243193E+02  0.291E-02    4.13       0.0  T
   2    -24.3192626 -0.131064E-05  0.186E-02    4.14       1.5  T
   3    -24.3192627 -0.949107E-07  0.114E-02    4.14       2.4  T
   4    -24.3192633 -0.648415E-06  0.457E-03    4.14       6.1  T
   5    -24.3192634 -0.543329E-07  0.353E-03    4.14       7.8  T
   6    -24.3192634 -0.435736E-07  0.239E-03    4.14      11.6  T
   7    -24.3192635 -0.383644E-07  0.984E-04    4.14      28.2  T
   8    -24.3192635 -0.407039E-08  0.495E-04    4.14      56.1  T
     SCC iter.                  ...        0 min,  0.002 sec
     gradient                   ...        0 min,  0.002 sec
 * total energy  :   -24.0072261 Eh     change       -0.4164687E-04 Eh
   gradient norm :     0.0030044 Eh/α   predicted    -0.3451437E-04 ( -17.13%)
   displ. norm   :     0.0080050 α      lambda       -0.1103057E-04
   maximum displ.:     0.0047262 α      in ANC's #5, #7, #10, ...

........................................................................
.............................. CYCLE    4 ..............................
........................................................................

 iter      E             dE          RMSdq      gap      omega  full diag
   1    -24.3190591 -0.243191E+02  0.990E-03    4.13       0.0  T
   2    -24.3190594 -0.316308E-06  0.714E-03    4.13       3.9  T
   3    -24.3190595 -0.810100E-07  0.462E-03    4.13       6.0  T
   4    -24.3190596 -0.554071E-07  0.253E-03    4.13      11.0  T
   5    -24.3190596 -0.224608E-07  0.178E-03    4.13      15.6  T
   6    -24.3190596 -0.108833E-07  0.122E-03    4.13      22.8  T
   7    -24.3190596 -0.959481E-08  0.554E-04    4.13      50.0  T
   8    -24.3190596 -0.158628E-08  0.183E-04    4.13     151.3  T
     SCC iter.                  ...        0 min,  0.002 sec
     gradient                   ...        0 min,  0.002 sec
 * total energy  :   -24.0072331 Eh     change       -0.6988602E-05 Eh
   gradient norm :     0.0011753 Eh/α   predicted    -0.5517203E-05 ( -21.05%)
   displ. norm   :     0.0035592 α      lambda       -0.2032498E-05
   maximum displ.:     0.0014202 α      in ANC's #20, #14, #22, ...

........................................................................
.............................. CYCLE    5 ..............................
........................................................................

 iter      E             dE          RMSdq      gap      omega  full diag
   1    -24.3185595 -0.243186E+02  0.562E-03    4.13       0.0  T
   2    -24.3185596 -0.984175E-07  0.429E-03    4.13       6.5  T
   3    -24.3185596 -0.324738E-07  0.275E-03    4.13      10.1  T
   4    -24.3185597 -0.155039E-07  0.151E-03    4.13      18.4  T
   5    -24.3185597 -0.733342E-08  0.101E-03    4.13      27.4  T
   6    -24.3185597 -0.360264E-08  0.707E-04    4.13      39.2  T
   7    -24.3185597 -0.298908E-08  0.359E-04    4.13      77.2  T
     SCC iter.                  ...        0 min,  0.002 sec
     gradient                   ...        0 min,  0.002 sec
 * total energy  :   -24.0072342 Eh     change       -0.1135255E-05 Eh
   gradient norm :     0.0004780 Eh/α   predicted    -0.1016241E-05 ( -10.48%)
   displ. norm   :     0.0016889 α      lambda       -0.2445177E-06
   maximum displ.:     0.0009875 α      in ANC's #5, #7, #20, ...

........................................................................
.............................. CYCLE    6 ..............................
........................................................................

 iter      E             dE          RMSdq      gap      omega  full diag
   1    -24.3186614 -0.243187E+02  0.220E-03    4.13       0.0  T
   2    -24.3186615 -0.126901E-07  0.144E-03    4.13      19.2  T
   3    -24.3186615 -0.185453E-08  0.903E-04    4.13      30.7  T
   4    -24.3186615 -0.232363E-08  0.389E-04    4.13      71.3  T
     SCC iter.                  ...        0 min,  0.001 sec
     gradient                   ...        0 min,  0.002 sec
 * total energy  :   -24.0072344 Eh     change       -0.1955723E-06 Eh
   gradient norm :     0.0001043 Eh/α   predicted    -0.1234429E-06 ( -36.88%)
   displ. norm   :     0.0003027 α      lambda       -0.1288561E-07
   maximum displ.:     0.0001536 α      in ANC's #18, #12, #20, ...

........................................................................
.............................. CYCLE    7 ..............................
........................................................................

 iter      E             dE          RMSdq      gap      omega  full diag
   1    -24.3186923 -0.243187E+02  0.658E-04    4.13       0.0  T
   2    -24.3186923 -0.760394E-09  0.442E-04    4.13      62.7  T
   3    -24.3186923 -0.328413E-09  0.268E-04    4.13     103.6  T
     SCC iter.                  ...        0 min,  0.001 sec
     gradient                   ...        0 min,  0.002 sec
 * total energy  :   -24.0072344 Eh     change       -0.1110359E-07 Eh
   gradient norm :     0.0000267 Eh/α   predicted    -0.6605320E-08 ( -40.51%)
   displ. norm   :     0.0001452 α      lambda       -0.4367158E-09
   maximum displ.:     0.0000970 α      in ANC's #5, #12, #7, ...

   *** GEOMETRY OPTIMIZATION CONVERGED AFTER 7 ITERATIONS ***

------------------------------------------------------------------------
 total energy gain   :        -0.0005512 Eh       -0.3459 kcal/mol
 total RMSD          :         0.0322692 a0        0.0171 Å
 total power (kW/mol):        -0.2067502 (step)  -37.7005 (real)
------------------------------------------------------------------------

 ANCopt (total)                0 d,  0 h,  0 min,  0.038 sec
 optimizer setup                ...        0 min,  0.000 sec (  0.117%)
 model hessian                  ...        0 min,  0.001 sec (  1.485%)
 ANC generation                 ...        0 min,  0.000 sec (  0.339%)
 coordinate transformation      ...        0 min,  0.000 sec (  0.068%)
 single point calculation       ...        0 min,  0.036 sec ( 93.918%)
 optimization log               ...        0 min,  0.000 sec (  0.931%)
 hessian update                 ...        0 min,  0.000 sec (  0.095%)
 rational function              ...        0 min,  0.000 sec (  1.037%)

================
 final structure:
================
$coord
       -4.56405259722204       -0.10862997384905        0.00004425430232      C
       -3.50455838850764       -2.50164360572922        0.00014295143058      C
       -0.90298633274511       -2.77510943663076        0.00016187160999      C
        0.61117388622243       -0.64831543556999        0.00008174087406      C
       -0.42493113091858        1.77762759736645       -0.00001813526380      C
       -3.04446244260931        2.01421331305621       -0.00003566197603      C
        1.02483350561908        3.87243283186932       -0.00009694357134      O
        3.89734297854145       -0.94753390211519        0.00010476925721      Cl
       -6.59165722944983        0.10876434319569        0.00002859514936      H
       -4.69268141465698       -4.15768722883507        0.00020500984619      H
       -0.04886330938117       -4.62635332150562        0.00023861612431      H
       -3.83806059260998        3.89054750896427       -0.00011326168383      H
        2.78802476128089        3.36707113232188       -0.00007137840414      H
$end

 Bond Distances (Angstroems)
 ---------------------------
C1-C2=1.3849         C1-C6=1.3815         C1-H9=1.0791         C2-C1=1.3849         C2-C3=1.3843         C2-H10=1.0786        
C3-C2=1.3843         C3-C4=1.3815         C3-H11=1.0789        C4-C3=1.3815         C4-C5=1.3959         C4-Cl8=1.7462        
C5-C4=1.3959         C5-C6=1.3918         C5-O7=1.3481         C6-C1=1.3815         C6-C5=1.3918         C6-H12=1.0781        
O7-C5=1.3481         O7-H13=0.9706        Cl8-C4=1.7462        H9-C1=1.0791         H10-C2=1.0786        H11-C3=1.0789        
H12-C6=1.0781        H13-O7=0.9706        
 C  H  Rav=1.0787 sigma=0.0004  Rmin=1.0781  Rmax=1.0791     4
 C  C  Rav=1.3867 sigma=0.0054  Rmin=1.3815  Rmax=1.3959     6
 O  H  Rav=0.9706 sigma=0.0000  Rmin=0.9706  Rmax=0.9706     1
 O  C  Rav=1.3481 sigma=0.0000  Rmin=1.3481  Rmax=1.3481     1
 Cl C  Rav=1.7462 sigma=0.0000  Rmin=1.7462  Rmax=1.7462     1

 selected bond angles (degree)
 --------------------
C6-C1-C2=120.52                H9-C1-C2=120.00                H9-C1-C6=119.48                C3-C2-C1=119.88                
H10-C2-C1=120.46               H10-C2-C3=119.66               C4-C3-C2=119.45                H11-C3-C2=120.77               
H11-C3-C4=119.78               C5-C4-C3=121.42                Cl8-C4-C3=120.25               Cl8-C4-C5=118.33               
C6-C5-C4=118.29                O7-C5-C4=122.19                O7-C5-C6=119.53                C5-C6-C1=120.44                
H12-C6-C1=121.48               H12-C6-C5=118.09               H13-O7-C5=108.69               

 selected dihedral angles (degree)
 ---------------------------------
C3-C2-C1-C6=  0.00            C3-C2-C1-H9=180.00            H10-C2-C1-C6=180.00           H10-C2-C1-H9=  0.00           
C4-C3-C2-C1=  0.00            C4-C3-C2-H10=180.00           H11-C3-C2-C1=180.00           H11-C3-C2-H10=  0.00          
C5-C4-C3-C2=  0.00            C5-C4-C3-H11=180.00           Cl8-C4-C3-C2=180.00           Cl8-C4-C3-H11=  0.00          
C6-C5-C4-C3=  0.00            C6-C5-C4-Cl8=180.00           O7-C5-C4-C3=180.00            O7-C5-C4-Cl8=  0.00           
C5-C6-C1-C2=  0.00            C5-C6-C1-H9=180.00            H12-C6-C1-C2=180.00           H12-C6-C1-H9=  0.00           
C1-C6-C5-C4=  0.00            C1-C6-C5-O7=180.00            H12-C6-C5-C4=180.00           H12-C6-C5-O7=  0.00           
H13-O7-C5-C4=  0.00           H13-O7-C5-C6=180.00           
           -------------------------------------------------
          |                Final Singlepoint                |
           -------------------------------------------------

          ...................................................
          :                      SETUP                      :
          :.................................................:
          :  # basis functions                  43          :
          :  # atomic orbitals                  42          :
          :  # shells                           22          :
          :  # electrons                        42          :
          :  max. iterations                   250          :
          :  Hamiltonian                  GFN2-xTB          :
          :  restarted?                      false          :
          :  GBSA solvation                  false          :
          :  PC potential                    false          :
          :  electronic temp.          300.0000000     K    :
          :  accuracy                    1.0000000          :
          :  -> integral cutoff          0.2500000E+02      :
          :  -> integral neglect         0.1000000E-07      :
          :  -> SCF convergence          0.1000000E-05 Eh   :
          :  -> wf. convergence          0.1000000E-03 e    :
          :  Broyden damping             0.4000000          :
          :  net charge                          0          :
          :  unpaired electrons                  0          :
          ...................................................

 iter      E             dE          RMSdq      gap      omega  full diag
   1    -24.3186923 -0.243187E+02  0.118E-04    4.13       0.0  T
   2    -24.3186923 -0.253948E-10  0.966E-05    4.13     287.0  T
   3    -24.3186923 -0.188578E-10  0.758E-05    4.13     365.7  T

   *** convergence criteria satisfied after 3 iterations ***

         #    Occupation            Energy/Eh            Energy/eV
      -------------------------------------------------------------
         1        2.0000           -1.0659296             -29.0054
       ...           ...                  ...                  ...
        15        2.0000           -0.4830260             -13.1438
        16        2.0000           -0.4574870             -12.4489
        17        2.0000           -0.4547164             -12.3735
        18        2.0000           -0.4426976             -12.0464
        19        2.0000           -0.4295165             -11.6877
        20        2.0000           -0.4114540             -11.1962
        21        2.0000           -0.3919148             -10.6645 (HOMO)
        22                         -0.2400919              -6.5332 (LUMO)
        23                         -0.2293892              -6.2420
        24                         -0.1498322              -4.0771
        25                         -0.1076752              -2.9300
        26                          0.0018914               0.0515
       ...                                ...                  ...
        42                          0.6449600              17.5503
      -------------------------------------------------------------
                  HL-Gap            0.1518230 Eh            4.1313 eV
             Fermi-level           -0.3160034 Eh           -8.5989 eV

 SCC (total)                   0 d,  0 h,  0 min,  0.005 sec
 SCC setup                      ...        0 min,  0.000 sec (  0.799%)
 Dispersion                     ...        0 min,  0.000 sec (  0.498%)
 classical contributions        ...        0 min,  0.000 sec (  0.198%)
 integral evaluation            ...        0 min,  0.001 sec ( 22.054%)
 iterations                     ...        0 min,  0.001 sec ( 26.807%)
 molecular gradient             ...        0 min,  0.002 sec ( 48.674%)
 printout                       ...        0 min,  0.000 sec (  0.805%)

         :::::::::::::::::::::::::::::::::::::::::::::::::::::
         ::                     SUMMARY                     ::
         :::::::::::::::::::::::::::::::::::::::::::::::::::::
         :: total energy             -24.007234416718 Eh    ::
         :: gradient norm              0.000025686031 Eh/a0 ::
         :: HOMO-LUMO gap              4.131313487654 eV    ::
         ::.................................................::
         :: SCC energy               -24.318674062847 Eh    ::
         :: -> isotropic ES            0.022727132038 Eh    ::
         :: -> anisotropic ES         -0.000497133827 Eh    ::
         :: -> anisotropic XC          0.006436309642 Eh    ::
         :: -> dispersion             -0.011031710121 Eh    ::
         :: repulsion energy           0.311439646129 Eh    ::
         :: add. restraining           0.000000000000 Eh    ::
         :: total charge              -0.000000000000 e     ::
         :::::::::::::::::::::::::::::::::::::::::::::::::::::

           ------------------------------------------------- 
          |                Numerical Hessian                |
           ------------------------------------------------- 
step length          :   0.00500
SCC accuracy         :   0.30000
Hessian scale factor :   1.00000
frozen atoms in %    :   0.00000    0
RMS gradient         :   0.00003
estimated CPU  time      0.01 min
estimated wall time      0.01 min

writing file <hessian>, containing the non-mass-weighted Hessian matrix in atomic units (Eₕ/Bohr²).

 projected vibrational frequencies (cm⁻¹)
eigval :       -0.00    -0.00    -0.00    -0.00     0.00     0.00
eigval :      146.95   231.82   251.12   345.37   413.28   465.08
eigval :      489.40   517.89   530.70   658.54   664.95   782.90
eigval :      824.55   871.91   904.49   921.27  1017.62  1078.94
eigval :     1137.95  1162.99  1175.24  1254.24  1281.64  1333.11
eigval :     1435.22  1468.96  1574.72  1595.00  3092.04  3097.23
eigval :     3107.19  3115.38  3406.03
           -------------------------------------------------
          |                Property Printout                |
           -------------------------------------------------

    * Orbital Energies and Occupations

         #    Occupation            Energy/Eh            Energy/eV
      -------------------------------------------------------------
         1        2.0000           -1.0659293             -29.0054
       ...           ...                  ...                  ...
         9        2.0000           -0.5486415             -14.9293
        10        2.0000           -0.5395682             -14.6824
        11        2.0000           -0.5280061             -14.3678
        12        2.0000           -0.5047207             -13.7341
        13        2.0000           -0.4965350             -13.5114
        14        2.0000           -0.4950250             -13.4703
        15        2.0000           -0.4830257             -13.1438
        16        2.0000           -0.4574868             -12.4488
        17        2.0000           -0.4547162             -12.3735
        18        2.0000           -0.4426973             -12.0464
        19        2.0000           -0.4295161             -11.6877
        20        2.0000           -0.4114536             -11.1962
        21        2.0000           -0.3919145             -10.6645 (HOMO)
        22                         -0.2400914              -6.5332 (LUMO)
        23                         -0.2293888              -6.2420
        24                         -0.1498307              -4.0771
        25                         -0.1076749              -2.9300
        26                          0.0018916               0.0515
        27                          0.0072175               0.1964
        28                          0.0093531               0.2545
        29                          0.0231672               0.6304
        30                          0.0735038               2.0001
        31                          0.1206214               3.2823
        32                          0.1295887               3.5263
       ...                                ...                  ...
        42                          0.6449604              17.5503
      -------------------------------------------------------------
                  HL-Gap            0.1518230 Eh            4.1313 eV
             Fermi-level           -0.3160030 Eh           -8.5989 eV

     #   Z          covCN         q      C6AA      α(0)
     1   6          2.919    -0.032    28.798     8.800
     2   6          2.922    -0.040    29.005     8.832
     3   6          2.947    -0.039    28.960     8.826
     4   6          2.888     0.056    26.741     8.478
     5   6          2.877     0.144    24.870     8.175
     6   6          2.922    -0.054    29.333     8.882
     7   8          1.659    -0.374    20.359     6.091
     8  17          0.956    -0.196   105.322    15.701
     9   1          0.926     0.049     2.328     2.386
    10   1          0.926     0.048     2.351     2.398
    11   1          0.926     0.055     2.254     2.348
    12   1          0.926     0.064     2.152     2.294
    13   1          0.804     0.319     0.666     1.282

 Mol. C6AA /au·bohr⁶  :       2836.014691
 Mol. C8AA /au·bohr⁸  :      78706.055710
 Mol. α(0) /au        :         84.492721


Wiberg/Mayer (AO) data.
largest (>0.10) Wiberg bond orders for each atom

 ---------------------------------------------------------------------------
     #   Z sym  total        # sym  WBO       # sym  WBO       # sym  WBO
 ---------------------------------------------------------------------------
     1   6      3.991 --     6      1.454     2      1.430     9      0.970
     2   6      3.990 --     3      1.430     1      1.430    10      0.969
     3   6      3.989 --     2      1.430     4      1.422    11      0.967
                             6      0.106
     4   6      3.899 --     3      1.422     5      1.332     8      0.947
     5   6      3.948 --     6      1.359     4      1.332     7      1.105
     6   6      3.986 --     1      1.454     5      1.359    12      0.966
                             3      0.106
     7   8      2.150 --     5      1.105    13      0.864
     8  17      1.100 --     4      0.947
     9   1      0.997 --     1      0.970
    10   1      0.998 --     2      0.969
    11   1      0.997 --     3      0.967
    12   1      0.996 --     6      0.966
    13   1      0.898 --     7      0.864
 ---------------------------------------------------------------------------

Topologies differ in total number of bonds
Writing topology from bond orders to xtbtopo.mol

molecular dipole:
                 x           y           z       tot (Debye)
 q only:       -0.596      -0.066       0.000
   full:       -0.187      -0.397       0.000       1.115
molecular quadrupole (traceless):
                xx          xy          yy          xz          yz          zz
 q only:        1.342       2.868      -0.287      -0.000      -0.000      -1.055
  q+dip:        3.718       1.317       0.165      -0.000      -0.000      -3.883
   full:        3.485       1.528      -1.448      -0.000      -0.000      -2.037

           -------------------------------------------------
          |                Geometry Summary                 |
           -------------------------------------------------

      molecular mass/u    :      128.5564617
   center of mass at/Å    :        0.0000107       0.0000349       0.0000287
  moments of inertia/u·Å² :        0.1671716E+03   0.3274831E+03   0.4946547E+03
rotational constants/cm⁻¹ :        0.1008403E+00   0.5147634E-01   0.3407959E-01

 * 13 selected distances

     #   Z          #   Z                                           value/Å
     1   6          2   6                                         1.3848926
     2   6          3   6                                         1.3842776
     3   6          4   6                                         1.3815413
     4   6          5   6                                         1.3959364
     1   6          6   6                                         1.3815092
     5   6          6   6                                         1.3918385
     5   6          7   8                                         1.3481071
     4   6          8  17                                         1.7461598 (max)
     1   6          9   1                                         1.0791118
     2   6         10   1                                         1.0785506
     3   6         11   1                                         1.0788768
     6   6         12   1                                         1.0780716
     7   8         13   1                                         0.9706089 (min)

 * 5 distinct bonds (by element types)

   Z      Z             #   av. dist./Å        max./Å        min./Å
   1 H    6 C           4     1.0786527     1.0791118     1.0780716
   6 C    6 C           6     1.3866659     1.3959364     1.3815092
   1 H    8 O           1     0.9706089     0.9706089     0.9706089
   6 C    8 O           1     1.3481071     1.3481071     1.3481071
   6 C   17 Cl          1     1.7461598     1.7461598     1.7461598

           -------------------------------------------------
          |               Frequency Printout                |
           -------------------------------------------------
 projected vibrational frequencies (cm⁻¹)
eigval :       -0.00    -0.00    -0.00    -0.00     0.00     0.00
eigval :      146.95   231.82   251.12   345.37   413.28   465.08
eigval :      489.40   517.89   530.70   658.54   664.95   782.90
eigval :      824.55   871.91   904.49   921.27  1017.62  1078.94
eigval :     1137.95  1162.99  1175.24  1254.24  1281.64  1333.11
eigval :     1435.22  1468.96  1574.72  1595.00  3092.04  3097.23
eigval :     3107.19  3115.38  3406.03
 reduced masses (amu)
    1:      6.89    2:      7.86    3:     12.23    4:      8.05    5:      7.72    6:      7.36
    7:      4.96    8:      8.78    9:      4.73   10:      9.34   11:      3.52   12:      4.84
Molecule has the following symmetry elements: (sigma) 
It seems to be the Cs point group
   13:      1.24   14:      2.84   15:      7.68   16:      7.81   17:      7.22   18:      1.25
   19:      6.15   20:      1.26   21:      1.32   22:      1.23   23:      5.64   24:      1.63
   25:      1.58   26:      1.16   27:      1.06   28:      1.43   29:      2.84   30:      6.10
   31:      3.09   32:      4.07   33:      7.61   34:      8.69   35:      1.08   36:      1.08
   37:      1.09   38:      1.09   39:      1.06
 IR intensities (km·mol⁻¹)
    1:      0.07    2:      0.14    3:      0.03    4:      0.02    5:      0.10    6:      0.18
    7:      0.00    8:      3.41    9:      0.05   10:      3.85   11:      0.48   12:      7.41
   13:     80.94   14:     30.45   15:      1.32   16:      4.04   17:      5.02   18:     42.43
   19:     18.57   20:      1.33   21:      1.44   22:      0.18   23:     10.64   24:      7.66
   25:     52.61   26:    134.13   27:      4.07   28:     62.33   29:     73.32   30:     18.07
   31:      4.20   32:    155.09   33:      5.41   34:     52.53   35:      1.57   36:     23.25
   37:     23.89   38:     11.63   39:     40.38
 Raman intensities (Ä⁴*amu⁻¹)
    1:      0.00    2:      0.00    3:      0.00    4:      0.00    5:      0.00    6:      0.00
    7:      0.00    8:      0.00    9:      0.00   10:      0.00   11:      0.00   12:      0.00
   13:      0.00   14:      0.00   15:      0.00   16:      0.00   17:      0.00   18:      0.00
   19:      0.00   20:      0.00   21:      0.00   22:      0.00   23:      0.00   24:      0.00
   25:      0.00   26:      0.00   27:      0.00   28:      0.00   29:      0.00   30:      0.00
   31:      0.00   32:      0.00   33:      0.00   34:      0.00   35:      0.00   36:      0.00
   37:      0.00   38:      0.00   39:      0.00
 output can be read by thermo (or use thermo option).
 writing <g98.out> molden fake output.
 recommended (thermochemical) frequency scaling factor: 1.0
           -------------------------------------------------
          |             Thermodynamic Functions             |
           -------------------------------------------------

cs  symmetry found (for desy threshold:  0.10E+00) used in thermo

          ...................................................
          :                      SETUP                      :
          :.................................................:
          :  # frequencies                          33      :
          :  # imaginary freq.                       0      :
          :  linear?                             false      :
          :  only rotor calc.                    false      :
          :  symmetry                               cs      :
          :  rotational number                       1      :
          :  scaling factor                  1.0000000      :
          :  rotor cutoff                    0.0000000 cm⁻¹ :
          :  imag. cutoff                 -100.0000000 cm⁻¹ :
          :.................................................:

    mode    ω/cm⁻¹     T·S(HO)/kcal·mol⁻¹    T·S(FR)/kcal·mol⁻¹   T·S(vib)
   ------------------------------------------------------------------------
       1    146.95    -0.80839 (100.00%)    -0.73708 (  0.00%)    -0.80839
       2    231.82    -0.55600 (100.00%)    -0.60207 (  0.00%)    -0.55600
       3    251.12    -0.51362 (100.00%)    -0.57838 (  0.00%)    -0.51362
   ------------------------------------------------------------------------

   temp. (K)  partition function   enthalpy   heat capacity  entropy
                                   cal/mol     cal/K/mol   cal/K/mol   J/K/mol
 298.15  VIB   10.6                 2483.216     20.191     13.013
         ROT  0.398E+06              888.727      2.981     28.602
         INT  0.420E+07             3371.943     23.172     41.615
         TR   0.446E+26             1481.212      4.968     40.467
         TOT                        4853.1557    28.1402    82.0821   343.4316

       T/K    H(0)-H(T)+PV         H(T)/Eh          T*S/Eh         G(T)/Eh
   ------------------------------------------------------------------------
    298.15    0.773400E-02    0.996665E-01    0.389999E-01    0.606666E-01
   ------------------------------------------------------------------------

         :::::::::::::::::::::::::::::::::::::::::::::::::::::
         ::                  THERMODYNAMIC                  ::
         :::::::::::::::::::::::::::::::::::::::::::::::::::::
         :: total free energy         -23.946567782428 Eh   ::
         ::.................................................::
         :: total energy              -24.007234416756 Eh   ::
         :: zero point energy           0.091932501031 Eh   ::
         :: G(RRHO) w/o ZPVE           -0.031265866703 Eh   ::
         :: G(RRHO) contrib.            0.060666634328 Eh   ::
         :::::::::::::::::::::::::::::::::::::::::::::::::::::

optimized geometry written to: xtbopt.coord


           -------------------------------------------------
          | TOTAL ENERGY              -24.007234416756 Eh   |
          | TOTAL ENTHALPY            -23.907567919825 Eh   |
          | TOTAL FREE ENERGY         -23.946567782428 Eh   |
          | GRADIENT NORM               0.000025570200 Eh/α |
          | HOMO-LUMO GAP               4.131314303062 eV   |
           -------------------------------------------------

------------------------------------------------------------------------
 * finished run on 2025/04/08 at 22:46:22.239     
------------------------------------------------------------------------
 total:
 * wall-time:     0 d,  0 h,  0 min,  0.463 sec
 *  cpu-time:     0 d,  0 h,  0 min,  0.456 sec
 * ratio c/w:     0.985 speedup
 SCF:
 * wall-time:     0 d,  0 h,  0 min,  0.008 sec
 *  cpu-time:     0 d,  0 h,  0 min,  0.008 sec
 * ratio c/w:     0.993 speedup
 ANC optimizer:
 * wall-time:     0 d,  0 h,  0 min,  0.043 sec
 *  cpu-time:     0 d,  0 h,  0 min,  0.043 sec
 * ratio c/w:     0.990 speedup
 analytical hessian:
 * wall-time:     0 d,  0 h,  0 min,  0.405 sec
 *  cpu-time:     0 d,  0 h,  0 min,  0.399 sec
 * ratio c/w:     0.985 speedup

