13
 energy: -24.006683188281 gnorm: 0.014450580847 xtb: 6.7.1 (41059b4)
C           -2.41843401675174       -0.05597447522703        0.00002179077689
C           -1.86147435708573       -1.33284568944044        0.00007629539715
C           -0.47900801013953       -1.48085595833343        0.00008494404903
C            0.32750557617928       -0.35182475922292        0.00003915784179
C           -0.21757477897691        0.93709544553680       -0.00001315877576
C           -1.60663039647956        1.06924543256189       -0.00001950193794
O            0.53347359992823        2.06580437037188       -0.00005452187212
Cl           2.08046521308954       -0.51962201212841        0.00005544414147
H           -3.49619938442389        0.06692523639146        0.00001345174693
H           -2.49507132652663       -2.21242801833153        0.00011127194563
H           -0.02111886309192       -2.46340033641812        0.00013019336301
H           -2.02371951415991        2.07027720322768       -0.00005623845817
H            1.46949308034059        1.81886142113799       -0.00003329480581
13
 energy: -24.007184439054 gnorm: 0.006182510087 xtb: 6.7.1 (41059b4)
C           -2.41577605591491       -0.05702544079075        0.00002295635860
C           -1.85672368136173       -1.32541501240425        0.00007560227692
C           -0.47957210637409       -1.47130550498857        0.00008628441844
C            0.32264370976948       -0.34585536443254        0.00004308140805
C           -0.22281017656455        0.93646916171736       -0.00000995428096
C           -1.60946508628965        1.06525883220050       -0.00001903257699
O            0.53877307754369        2.05225095112109       -0.00005337164582
Cl           2.06967381280103       -0.50399788712518        0.00005354144430
H           -3.48964809595244        0.06057146134102        0.00001495385448
H           -2.48668481993060       -2.20199426519307        0.00010891579052
H           -0.02465440865015       -2.45054461241204        0.00012719226327
H           -2.02684316047137        2.06044958429487       -0.00005970077878
H            1.47279381329710        1.79239595679740       -0.00003463511993
13
 energy: -24.007226085925 gnorm: 0.003004434903 xtb: 6.7.1 (41059b4)
C           -2.41520451591415       -0.05725377645789        0.00002341879411
C           -1.85477639516075       -1.32363377107492        0.00007564073341
C           -0.47865343958399       -1.46883787580551        0.00008543988397
C            0.32223935634136       -0.34348468145198        0.00004267868987
C           -0.22452536053944        0.93883557975368       -0.00001003278190
C           -1.61099017801242        1.06537092472184       -0.00001901831746
O            0.54099757301960        2.04919206882592       -0.00005219266829
Cl           2.06490474451158       -0.50183343243770        0.00005561696541
H           -3.48804088233311        0.05796147183855        0.00001552453500
H           -2.48359782989930       -2.19967083388176        0.00010879128429
H           -0.02563663815822       -2.44778948747830        0.00012624899075
H           -2.02941019300241        2.05862728167832       -0.00005990675647
H            1.47440058063306        1.78377439189559       -0.00003637594058
13
 energy: -24.007233074527 gnorm: 0.001175338173 xtb: 6.7.1 (41059b4)
C           -2.41516482338040       -0.05735946644380        0.00002328369028
C           -1.85432920924505       -1.32357567145394        0.00007552402895
C           -0.47801171486205       -1.46847957785912        0.00008578827559
C            0.32274510858691       -0.34280767986255        0.00004353140061
C           -0.22490617713433        0.94039080996115       -0.00000957673711
C           -1.61138251299429        1.06581292838862       -0.00001907935189
O            0.54205577571610        2.04885879427156       -0.00005168336268
Cl           2.06300301482567       -0.50145903883614        0.00005528925665
H           -3.48796864443171        0.05721206235655        0.00001557331703
H           -2.48305648432873       -2.19969218186475        0.00010848502736
H           -0.02582085466271       -2.44776980914105        0.00012604300970
H           -2.03064327074341        2.05870481142492       -0.00006012358633
H            1.47518661455582        1.78142187918439       -0.00003722155606
13
 energy: -24.007234209782 gnorm: 0.000477996751 xtb: 6.7.1 (41059b4)
C           -2.41518468811448       -0.05746859666617        0.00002342312305
C           -1.85442510047469       -1.32387658068583        0.00007563953851
C           -0.47768217360101       -1.46858258427379        0.00008558396914
C            0.32341179029659       -0.34286695368380        0.00004320799901
C           -0.22488937084403        0.94111586992809       -0.00000963294339
C           -1.61121691415321        1.06602655836429       -0.00001886090665
O            0.54255476071234        2.04918627756579       -0.00005122483128
Cl           2.06214146456025       -0.50133283253897        0.00005562354903
H           -3.48819671226387        0.05727322856944        0.00001517469471
H           -2.48329692591503       -2.20018314153861        0.00010848276136
H           -0.02582382404222       -2.44827511148108        0.00012625782803
H           -2.03121723696921        2.05897389409521       -0.00005990941043
H            1.47553175271037        1.78126783247126       -0.00003793195898
13
 energy: -24.007234405354 gnorm: 0.000104331338 xtb: 6.7.1 (41059b4)
C           -2.41518150988464       -0.05747337962283        0.00002313078746
C           -1.85452804398129       -1.32384224719020        0.00007550479485
C           -0.47782909673747       -1.46856791863667        0.00008583842560
C            0.32338459573824       -0.34305703057202        0.00004355938198
C           -0.22484647022935        0.94073092767937       -0.00000951360977
C           -1.61107974535860        1.06588875337383       -0.00001906484464
O            0.54232982268855        2.04922335454691       -0.00005135185351
Cl           2.06243734084340       -0.50140490788584        0.00005513897608
H           -3.48817072449949        0.05750480831598        0.00001532877728
H           -2.48333523643637       -2.20015222557612        0.00010852499510
H           -0.02582645963507       -2.44819659737564        0.00012627484522
H           -2.03100581522826        2.05884512335569       -0.00005991355890
H            1.47535816462216        1.78175919971337       -0.00003762370465
13
 energy: -24.007234416458 gnorm: 0.000026669398 xtb: 6.7.1 (41059b4)
C           -2.41519262381937       -0.05748450658207        0.00002341836827
C           -1.85453243348242       -1.32381278595684        0.00007564663933
C           -0.47783978904693       -1.46852467163100        0.00008565876710
C            0.32341929248885       -0.34307375398126        0.00004325540775
C           -0.22486387068598        0.94068001400123       -0.00000959676831
C           -1.61106014408347        1.06587578316978       -0.00001887150501
O            0.54231853614498        2.04920320538359       -0.00005130032870
Cl           2.06238508732277       -0.50141334755877        0.00005544150332
H           -3.48815478791869        0.05755561177816        0.00001513190138
H           -2.48326006267153       -2.20015333156817        0.00010848653861
H           -0.02585734977389       -2.44816074733308        0.00012627021514
H           -2.03101419967979        2.05878907968513       -0.00005993550195
H            1.47535916710729        1.78177731071913       -0.00003777182482
