
                                 *****************
                                 * O   R   C   A *
                                 *****************

                                            #,                                       
                                            ###                                      
                                            ####                                     
                                            #####                                    
                                            ######                                   
                                           ########,                                 
                                     ,,################,,,,,                         
                               ,,#################################,,                 
                          ,,##########################################,,             
                       ,#########################################, ''#####,          
                    ,#############################################,,   '####,        
                  ,##################################################,,,,####,       
                ,###########''''           ''''###############################       
              ,#####''   ,,,,##########,,,,          '''####'''          '####       
            ,##' ,,,,###########################,,,                        '##       
           ' ,,###''''                  '''############,,,                           
         ,,##''                                '''############,,,,        ,,,,,,###''
      ,#''                                            '''#######################'''  
     '                                                          ''''####''''         
             ,#######,   #######,   ,#######,      ##                                
            ,#'     '#,  ##    ##  ,#'     '#,    #''#        ,####,   ,####,        
            ##       ##  ##   ,#'  ##            #'  '#       #'       #'  '#        
            ##       ##  #######   ##           ,######,      #####,   #    #        
            '#,     ,#'  ##    ##  '#,     ,#' ,#      #,     #,   #   #,  ,#        
             '#######'   ##     ##  '#######'  #'      '#     '####' # '####'        



                #########################################################
                #                        -***-                          #
                #          Department of theory and spectroscopy        #
                #                                                       #
                #                      Frank Neese                      #
                #                                                       #
                #     Directorship, Architecture, Infrastructure        #
                #                    SHARK, DRIVERS                     #
                #        Core code/Algorithms in most modules           #
                #                                                       #
                #        Max Planck Institute fuer Kohlenforschung      #
                #                Kaiser Wilhelm Platz 1                 #
                #                 D-45470 Muelheim/Ruhr                 #
                #                      Germany                          #
                #                                                       #
                #                  All rights reserved                  #
                #                        -***-                          #
                #########################################################


                         Program Version 6.0.1  -  RELEASE   -


 With contributions from (in alphabetic order):
[Max-Planck-Institut fuer Kohlenforschung]                               
  Daniel Aravena         : Magnetic Suceptibility                        
  Michael Atanasov       : Ab Initio Ligand Field Theory (pilot matlab implementation)
  Alexander A. Auer      : GIAO ZORA, VPT2 properties, NMR spectrum      
  Ute Becker             : All parallelization in ORCA, NUMFREQ, NUMCALC 
  Giovanni Bistoni       : ED, misc. LED, open-shell LED, HFLD           
  Martin Brehm           : Molecular dynamics                            
  Dmytro Bykov           : pre 5.0 version of the SCF Hessian            
  Marcos Casanova-Páez   : Triplet and SCS-CIS(D). UHF-(DLPNO)-IP/EA/STEOM-CCSD. UHF-CVS-IP/STEOM-CCSD   
  Vijay G. Chilkuri      : MRCI spin determinant printing, contributions to CSF-ICE 
  Pauline Colinet        : FMM embedding                                 
  Dipayan Datta          : RHF DLPNO-CCSD density                        
  Achintya Kumar Dutta   : EOM-CC, STEOM-CC                              
  Nicolas Foglia         : Exact transition moments, OPA infrastructure, MCD improvements    
  Dmitry Ganyushin       : Spin-Orbit,Spin-Spin,Magnetic field MRCI      
  Miquel Garcia-Rates    : C-PCM and meta-GGA Hessian, CCSD/C-PCM, Gaussian charge scheme 
  Tiago L. C. Gouveia    : GS-ROHF, GS-ROCIS                             
  Yang Guo               : DLPNO-NEVPT2, F12-NEVPT2, CIM, IAO-localization        
  Andreas Hansen         : Spin unrestricted coupled pair/coupled cluster methods 
  Ingolf Harden          : AUTO-CI MPn and infrastructure                
  Benjamin Helmich-Paris : MC-RPA, TRAH-(SCF,CASSCF), AVAS, COSX integrals, SCF dyn. polar. 
  Lee Huntington         : MR-EOM, pCC                                   
  Robert Izsak           : Overlap fitted RIJCOSX, COSX-SCS-MP3, EOM     
  Riya Kayal             : Wick's Theorem for AUTO-CI, AUTO-CI UHF-CCSDT 
  Emily Kempfer          : AUTO-CI, RHF CISDT and CCSDT                  
  Christian Kollmar      : KDIIS, OOCD, Brueckner-CCSD(T), CCSD density, CASPT2, CASPT2-K, improved NEVPT2 
  Axel Koslowski         : Symmetry handling                             
  Simone Kossmann        : meta-GGA functionals, TD-DFT gradient, OOMP2, (MP2 Hessian; deprecated post 5.0) 
  Lucas Lang             : DCDCAS                                        
  Marvin Lechner         : AUTO-CI (C++ implementation), FIC-MRCC        
  Spencer Leger          : CASSCF response                               
  Dagmar Lenk            : GEPOL surface, SMD, ORCA-2-JSON               
  Dimitrios Liakos       : Extrapolation schemes; Compound Job, initial MDCI parallelization 
  Dimitrios Manganas     : Further ROCIS development; embedding schemes. LFT, Crystal Embedding 
  Dimitrios Pantazis     : SARC Basis sets                               
  Anastasios Papadopoulos: AUTO-CI, single reference methods and gradients 
  Taras Petrenko         : pre 6.0 DFT Hessian and TD-DFT gradient, (ASA, deprecated), ECA, 1-Electron XAS/XES, NRVS 
  Peter Pinski           : DLPNO-MP2, DLPNO-MP2 Gradient                 
  Christoph Reimann      : Effective Core Potentials                     
  Marius Retegan         : Local ZFS, SOC                                
  Christoph Riplinger    : Optimizer, TS searches, QM/MM, DLPNO-CCSD(T), (RO)-DLPNO pert. Triples 
  Michael Roemelt        : Original ROCIS implementation                 
  Masaaki Saitow         : Open-shell DLPNO-CCSD energy and density      
  Barbara Sandhoefer     : DKH picture change effects                    
  Kantharuban Sivalingam : CASSCF convergence/infrastructure, NEVPT2 and variants, FIC-MRCI 
  Bernardo de Souza      : ESD, SOC TD-DFT                               
  Georgi L. Stoychev     : AutoAux, RI-MP2 NMR, DLPNO-MP2 response, X2C  
  Van Anh Tran           : RI-MP2 g-tensors                              
  Willem Van den Heuvel  : Paramagnetic NMR                              
  Zikuan Wang            : NOTCH, Electric field optimization            
  Frank Wennmohs         : Technical directorship and infrastructure     
  Hang Xu                : AUTO-CI-Response properties                   
                                                                         
[FACCTs GmbH]                                                            
  Markus Bursch, Miquel Garcia-Rates, Christoph Riplinger, Bernardo de Souza, Georgi L. Stoychev 
                                                                 
  APM, Basis sets (HGBS, AHGBS, def-TZVP (Ac-Lr), def2-XVPD (La-Lu)), CI-OPT, improved COSX, DLPNO-Multilevel,           
  DOCKER, DRACO, updates on ESD, GOAT, IRC, LR-CPCM, MBIS, meta-GGA TD-DFT gradient, ML-optimized integration grids, 
  MM, NACMEs, nearIR, NEB, NEB-TS, NL-DFT gradient (VV10), 2- and 3-layer-ONIOM, interface openCOSMO-RS, QMMM,   
  Crystal-QMMM, SF, symmetry and pop. for TD-DFT, r2SCAN hybrids, SOLVATOR                                   
                                                                         
[Other institutions]                                                     
  V. Asgeirsson          : NEB                                           
  Christoph Bannwarth    : sTDA-DFT, sTD-DFT, PBEh-3c, B97-3c, D3        
  Sebastian Ehlert       : rSCAN, r2SCAN, r2SCAN-3c, D4, dhf basis sets  
  Marvin Friede          : D4 for Fr, Ra, Ac-Lr                          
  Lars Goerigk           : TD-DFT with DH, B97 family of functionals     
  Stefan Grimme          : VdW corrections, initial TS optimization, DFT functionals, gCP, sTDA/sTD-DF 
  Waldemar Hujo          : DFT-NL                                        
  H. Jonsson             : NEB                                           
  Holger Kruse           : gCP                                           
  Marcel Mueller         : wB97X-3c, vDZP basis set                      
  Hagen Neugebauer       : wr2SCAN                                       
  Tobias Risthaus        : range-separated hybrid DFT                    
  Lukas Wittmann         : regularized MP2, r2SCAN double-hybrids, wr2SCAN        
                                                                         
We gratefully acknowledge several colleagues who have allowed us to      
interface, adapt or use parts of their codes:                            
  Ed Valeev, F. Pavosevic, A. Kumar             : LibInt (2-el integral package), F12 methods 
  Garnet Chan, S. Sharma, J. Yang, R. Olivares  : DMRG                   
  Ulf Ekstrom                                   : XCFun DFT Library      
  Mihaly Kallay                                 : mrcc  (arbitrary order and MRCC methods)
  Frank Weinhold                                : gennbo (NPA and NBO analysis)           
  Simon Mueller                                 : openCOSMO-RS                            
  Christopher J. Cramer and Donald G. Truhlar   : smd solvation model                     
  S Lehtola, MJT Oliveira, MAL Marques          : LibXC Library                           
  Liviu Ungur et al                             : ANISO software                          


 Your calculation uses the libint2 library for the computation of 2-el integrals
 For citations please refer to: http://libint.valeyev.net

 Your ORCA version has been built with support for libXC version: 6.2.2
 For citations please refer to: https://libxc.gitlab.io

 This ORCA versions uses:
   CBLAS   interface :  Fast vector & matrix operations
   LAPACKE interface :  Fast linear algebra routines
   SCALAPACK package :  Parallel linear algebra routines
   Shared memory     :  Shared parallel matrices
   BLAS/LAPACK       :  OpenBLAS 0.3.27  USE64BITINT DYNAMIC_ARCH NO_AFFINITY Zen SINGLE_THREADED
        Core in use  :  Zen
   Copyright (c) 2011-2014, The OpenBLAS Project


Your calculation utilizes the geometrical counterpoise correction gCP
Please cite in your paper:
H.Kruse, S. Grimme J.Chem.Phys., 136, (2012), 154101 
   

Your calculation utilizes the DFT-NL dispersion correction.
Cite in your paper:
Vydrov, O. A.; Van Voorhis, T. J. Chem. Phys. 2010, 133, 244103
Hujo, W.; Grimme, S. J. Chem. Theory Comput. 2011, 7, 3866 
   

================================================================================

----- Orbital basis set information -----
Your calculation utilizes the basis: def2-TZVP
   F. Weigend and R. Ahlrichs, Phys. Chem. Chem. Phys. 7, 3297 (2005).

----- AuxJ basis set information -----
Your calculation utilizes the auxiliary basis: def2/J
   F. Weigend, Phys. Chem. Chem. Phys. 8, 1057 (2006).

================================================================================
                                        WARNINGS
                       Please study these warnings very carefully!
================================================================================

WARNING: Old DensityContainer found on disk!
         Will remove this file - 
         If you want to keep old densities, please start your calculation with a different basename. 


================================================================================
                                       INPUT FILE
================================================================================
NAME = sp.inp
|  1> ! wb97x-v def2-tzvp def2/J RIJCOSX DEFGRID2 scfconv7 GCP(DFT/TZ) printgap
|  2> %output
|  3>     printlevel normal
|  4> end
|  5> * xyz 0 1
|  6> C 1.5143853818005885e-06 -2.1203005803944563 -0.00014369873643156129
|  7> C 1.2113528605893875 -1.43703177307466 -9.915547001531972e-05
|  8> C 1.1901082965224896 -0.04743945864503031 1.4783827229584155e-05
|  9> C -2.6879850326297227e-05 0.6702107559865844 9.096408386075209e-05
| 10> C -1.1901471906073144 -0.0474635479335186 5.500870330340354e-05
| 11> C -1.2113637371139183 -1.4370587166267146 -6.568782160956063e-05
| 12> Cl -2.7036429755589086 0.8346134566059886 0.00013442078266683136
| 13> Cl 2.703584011492609 0.8346711549067112 5.740808573714191e-05
| 14> H 1.940092433294677e-05 -3.205159288357157 -0.00024433734540137955
| 15> H 2.154816551460156 -1.9686586075691483 -0.0001591982184387246
| 16> H -3.508939010616424e-05 1.7523933716180513 0.0001671898174098936
| 17> H -2.1548205663430737 -1.9687010707823511 -0.00010167719933143715
| 18> *
| 19> 
| 20>                          ****END OF INPUT****
================================================================================

                       ****************************
                       * Single Point Calculation *
                       ****************************

---------------------------------
CARTESIAN COORDINATES (ANGSTROEM)
---------------------------------
  C      0.000002   -2.120301   -0.000144
  C      1.211353   -1.437032   -0.000099
  C      1.190108   -0.047439    0.000015
  C     -0.000027    0.670211    0.000091
  C     -1.190147   -0.047464    0.000055
  C     -1.211364   -1.437059   -0.000066
  Cl    -2.703643    0.834613    0.000134
  Cl     2.703584    0.834671    0.000057
  H      0.000019   -3.205159   -0.000244
  H      2.154817   -1.968659   -0.000159
  H     -0.000035    1.752393    0.000167
  H     -2.154821   -1.968701   -0.000102

----------------------------
CARTESIAN COORDINATES (A.U.)
----------------------------
  NO LB      ZA    FRAG     MASS         X           Y           Z
   0 C     6.0000    0    12.011    0.000003   -4.006787   -0.000272
   1 C     6.0000    0    12.011    2.289125   -2.715596   -0.000187
   2 C     6.0000    0    12.011    2.248979   -0.089648    0.000028
   3 C     6.0000    0    12.011   -0.000051    1.266515    0.000172
   4 C     6.0000    0    12.011   -2.249052   -0.089693    0.000104
   5 C     6.0000    0    12.011   -2.289146   -2.715647   -0.000124
   6 Cl   17.0000    0    35.453   -5.109145    1.577191    0.000254
   7 Cl   17.0000    0    35.453    5.109033    1.577300    0.000108
   8 H     1.0000    0     1.008    0.000037   -6.056873   -0.000462
   9 H     1.0000    0     1.008    4.072013   -3.720226   -0.000301
  10 H     1.0000    0     1.008   -0.000066    3.311544    0.000316
  11 H     1.0000    0     1.008   -4.072021   -3.720306   -0.000192

--------------------------------
INTERNAL COORDINATES (ANGSTROEM)
--------------------------------
 C      0   0   0     0.000000000000     0.00000000     0.00000000
 C      1   0   0     1.390765382439     0.00000000     0.00000000
 C      2   1   0     1.389754706704   118.54950060     0.00000000
 C      3   2   1     1.389763855626   121.96582067     0.00000000
 C      4   3   2     1.389763563300   117.81897043     0.00000000
 C      5   4   3     1.389757133196   121.96583074     0.00000000
 Cl     5   4   3     1.751778907086   118.67493987   180.00056213
 Cl     3   2   1     1.751778489468   119.35935281   180.00057624
 H      1   2   3     1.084858712778   119.42444523   179.99928198
 H      2   1   3     1.082936208071   121.17403997   180.00047385
 H      4   3   2     1.082182618347   121.09036601   180.00075826
 H      6   5   4     1.082937848007   120.27619616   180.00065782

---------------------------
INTERNAL COORDINATES (A.U.)
---------------------------
 C      0   0   0     0.000000000000     0.00000000     0.00000000
 C      1   0   0     2.628165689348     0.00000000     0.00000000
 C      2   1   0     2.626255788999   118.54950060     0.00000000
 C      3   2   1     2.626273077955   121.96582067     0.00000000
 C      4   3   2     2.626272525540   117.81897043     0.00000000
 C      5   4   3     2.626260374404   121.96583074     0.00000000
 Cl     5   4   3     3.310382381572   118.67493987   180.00056213
 Cl     3   2   1     3.310381592388   119.35935281   180.00057624
 H      1   2   3     2.050085861149   119.42444523   179.99928198
 H      2   1   3     2.046452853761   121.17403997   180.00047385
 H      4   3   2     2.045028775566   121.09036601   180.00075826
 H      6   5   4     2.046455952792   120.27619616   180.00065782

---------------------
BASIS SET INFORMATION
---------------------
There are 3 groups of distinct atoms

 Group   1 Type C   : 11s6p2d1f contracted to 5s3p2d1f pattern {62111/411/11/1}
 Group   2 Type Cl  : 14s9p3d1f contracted to 5s5p2d1f pattern {73211/51111/21/1}
 Group   3 Type H   : 5s1p contracted to 3s1p pattern {311/1}

Atom   0C    basis set group =>   1
Atom   1C    basis set group =>   1
Atom   2C    basis set group =>   1
Atom   3C    basis set group =>   1
Atom   4C    basis set group =>   1
Atom   5C    basis set group =>   1
Atom   6Cl   basis set group =>   2
Atom   7Cl   basis set group =>   2
Atom   8H    basis set group =>   3
Atom   9H    basis set group =>   3
Atom  10H    basis set group =>   3
Atom  11H    basis set group =>   3
---------------------------------
AUXILIARY/J BASIS SET INFORMATION
---------------------------------
There are 3 groups of distinct atoms

 Group   1 Type C   : 12s5p4d2f1g contracted to 6s4p3d1f1g pattern {711111/2111/211/2/1}
 Group   2 Type Cl  : 14s5p5d2f1g contracted to 8s4p3d1f1g pattern {71111111/2111/311/2/1}
 Group   3 Type H   : 5s2p1d contracted to 3s1p1d pattern {311/2/1}

Atom   0C    basis set group =>   1
Atom   1C    basis set group =>   1
Atom   2C    basis set group =>   1
Atom   3C    basis set group =>   1
Atom   4C    basis set group =>   1
Atom   5C    basis set group =>   1
Atom   6Cl   basis set group =>   2
Atom   7Cl   basis set group =>   2
Atom   8H    basis set group =>   3
Atom   9H    basis set group =>   3
Atom  10H    basis set group =>   3
Atom  11H    basis set group =>   3

Checking for AutoStart:
The File: sp.gbw exists
Trying to determine its content:
     ... Fine, the file contains calculation information
     ... Fine, the calculation information was read
     ... Fine, the file contains a basis set
     ... Fine, the basis set was read
     ... Fine, the file contains a geometry
     ... Fine, the geometry was read
     ... Fine, the file contains a set of orbitals
     ... Fine, the orbitals can be read
     => possible old guess file was deleted
     => GBW file was renamed to GES file
     => GES file is set as startup file
     => Guess is set to MORead
     ... now leaving AutoStart

------------------------------------------------------------------------------
                             ORCA STARTUP CALCULATIONS
                           -- RI-GTO INTEGRALS CHOSEN --
------------------------------------------------------------------------------
------------------------------------------------------------------------------
                   ___                                                        
                  /   \      - P O W E R E D   B Y -                         
                 /     \                                                     
                 |  |  |   _    _      __       _____    __    __             
                 |  |  |  | |  | |    /  \     |  _  \  |  |  /  |          
                  \  \/   | |  | |   /    \    | | | |  |  | /  /          
                 / \  \   | |__| |  /  /\  \   | |_| |  |  |/  /          
                |  |  |   |  __  | /  /__\  \  |    /   |      \           
                |  |  |   | |  | | |   __   |  |    \   |  |\   \          
                \     /   | |  | | |  |  |  |  | |\  \  |  | \   \       
                 \___/    |_|  |_| |__|  |__|  |_| \__\ |__|  \__/        
                                                                              
                      - O R C A' S   B I G   F R I E N D -                    
                                      &                                       
                       - I N T E G R A L  F E E D E R -                       
                                                                              
 v1 FN, 2020, v2 2021, v3 2022-2024                                           
------------------------------------------------------------------------------


----------------------
SHARK INTEGRAL PACKAGE
----------------------

Number of atoms                             ...     12
Number of basis functions                   ...    284
Number of shells                            ...    108
Maximum angular momentum                    ...      3
Integral batch strategy                     ... SHARK/LIBINT Hybrid
RI-J (if used) integral strategy            ... SPLIT-RIJ (Revised 2003 algorithm where possible)
Printlevel                                  ...      1
Contraction scheme used                     ... SEGMENTED contraction
Prescreening option                         ... SCHWARTZ
   Thresh                                   ... 3.000e-11
   Tcut                                     ... 1.000e-12
   Tpresel                                  ... 1.000e-12 
Coulomb Range Separation                    ... NOT USED
Exchange Range Separation                   ... Long Range
   Mu parameter                             ... 3.000e-01
   Scaling (regular/separated)              ... 1.670e-01 8.330e-01
Multipole approximations                    ... NOT USED
Finite Nucleus Model                        ... NOT USED
CABS basis                                  ... NOT available
Auxiliary Coulomb fitting basis             ... AVAILABLE
   # of basis functions in Aux-J            ...    440
   # of shells in Aux-J                     ...    144
   Maximum angular momentum in Aux-J        ...      4
Auxiliary J/K fitting basis                 ... NOT available
Auxiliary Correlation fitting basis         ... NOT available
Auxiliary 'external' fitting basis          ... NOT available

Checking pre-screening integrals            ... done (  0.0 sec) Dimension = 108
Check shell pair data                       ... done (  0.0 sec)
Shell pair information
Shell pair cut-off parameter TPreSel        ...   1.0e-12
Total number of shell pairs                 ...      5886
Shell pairs after pre-screening             ...      5338
Total number of primitive shell pairs       ...     19917
Primitive shell pairs kept                  ...     13227
          la=0 lb=0:   1173 shell pairs
          la=1 lb=0:   1494 shell pairs
          la=1 lb=1:    488 shell pairs
          la=2 lb=0:    786 shell pairs
          la=2 lb=1:    484 shell pairs
          la=2 lb=2:    133 shell pairs
          la=3 lb=0:    382 shell pairs
          la=3 lb=1:    236 shell pairs
          la=3 lb=2:    126 shell pairs
          la=3 lb=3:     36 shell pairs

Calculating one electron integrals          ... done (  0.0 sec)
Calculating RI/J V-Matrix + Cholesky decomp.... done (  0.0 sec)
Calculating Nuclear repulsion               ... done (  0.0 sec) ENN=    452.280682162967 Eh

Diagonalization of the overlap matrix:
Smallest eigenvalue                        ... 1.023e-05
Time for diagonalization                   ...    0.005 sec
Threshold for overlap eigenvalues          ... 1.000e-07
Number of eigenvalues below threshold      ... 0
Time for construction of square roots      ...    0.002 sec
Total time needed                          ...    0.008 sec

-------------------
DFT GRID GENERATION
-------------------

General Integration Accuracy     IntAcc      ... 4.388
Radial Grid Type                 RadialGrid  ... OptM3 with GC (2021)
Angular Grid (max. ang.)         AngularGrid ... 4 (Lebedev-302)
Angular grid pruning method      GridPruning ... 4 (adaptive)
Weight generation scheme         WeightScheme... mBecke (2022)
Basis function cutoff            BFCut       ... 1.0000e-11
Integration weight cutoff        WCut        ... 1.0000e-14
Partially contracted basis set               ... off
Rotationally invariant grid construction     ... off
Angular grids for H and He will be reduced by one unit

Total number of grid points                  ...    63598
Total number of batches                      ...      999
Average number of points per batch           ...       63
Average number of grid points per atom       ...     5300

--------------------
COSX GRID GENERATION
--------------------

GRIDX 1
-------
General Integration Accuracy     IntAcc      ... 3.816
Radial Grid Type                 RadialGrid  ... OptM3 with GC (2021)
Angular Grid (max. ang.)         AngularGrid ... 1 (Lebedev-50)
Angular grid pruning method      GridPruning ... 4 (adaptive)
Weight generation scheme         WeightScheme... mBecke (2022)
Basis function cutoff            BFCut       ... 1.0000e-11
Integration weight cutoff        WCut        ... 1.0000e-14
Partially contracted basis set               ... on
Rotationally invariant grid construction     ... off
Angular grids for H and He will be reduced by one unit

Total number of grid points                  ...    10166
Total number of batches                      ...       85
Average number of points per batch           ...      119
Average number of grid points per atom       ...      847
UseSFitting                                  ... on

GRIDX 2
-------
General Integration Accuracy     IntAcc      ... 4.020
Radial Grid Type                 RadialGrid  ... OptM3 with GC (2021)
Angular Grid (max. ang.)         AngularGrid ... 2 (Lebedev-110)
Angular grid pruning method      GridPruning ... 4 (adaptive)
Weight generation scheme         WeightScheme... mBecke (2022)
Basis function cutoff            BFCut       ... 1.0000e-11
Integration weight cutoff        WCut        ... 1.0000e-14
Partially contracted basis set               ... on
Rotationally invariant grid construction     ... off
Angular grids for H and He will be reduced by one unit

Total number of grid points                  ...    17774
Total number of batches                      ...      144
Average number of points per batch           ...      123
Average number of grid points per atom       ...     1481
UseSFitting                                  ... on

GRIDX 3
-------
General Integration Accuracy     IntAcc      ... 4.338
Radial Grid Type                 RadialGrid  ... OptM3 with GC (2021)
Angular Grid (max. ang.)         AngularGrid ... 3 (Lebedev-194)
Angular grid pruning method      GridPruning ... 4 (adaptive)
Weight generation scheme         WeightScheme... mBecke (2022)
Basis function cutoff            BFCut       ... 1.0000e-11
Integration weight cutoff        WCut        ... 1.0000e-14
Partially contracted basis set               ... on
Rotationally invariant grid construction     ... off
Angular grids for H and He will be reduced by one unit

Total number of grid points                  ...    40416
Total number of batches                      ...      323
Average number of points per batch           ...      125
Average number of grid points per atom       ...     3368
UseSFitting                                  ... on
Initializing property integral containers    ... done (  0.0 sec)

SHARK setup successfully completed in   1.0 seconds

Maximum memory used throughout the entire STARTUP-calculation: 40.7 MB
-------------------------------------------------------------------------------
                                 ORCA GUESS
                   Start orbitals & Density for SCF / CASSCF
-------------------------------------------------------------------------------

------------
SCF SETTINGS
------------
Hamiltonian:
 Density Functional     Method          .... DFT(GTOs)
 Exchange Functional    Exchange        .... WB97X-V
 Correlation Functional Correlation     .... WB97X-V
 Gradients option       PostSCFGGA      .... off
 Hybrid DFT is turned on
   Fraction HF Exchange ScalHFX         ....  0.167000
   Scaling of DF-GGA-X  ScalDFX         ....  0.000000
   Scaling of DF-GGA-C  ScalDFC         ....  1.000000
   Scaling of DF-LDA-C  ScalLDAC        ....  1.000000
   Perturbative correction              ....  0.000000
 Long-range corrected/Screened/Range-Separated Hybrid DFT is turned on
   Amount of maximum screened exact exchange              ....  0.833000
   Range separation parameter mu (erf(mu*r12)/r12)        ....  0.300000
   NL short-range parameter             ....  6.000000
   NL long-range parameter              ....  0.010000
 RI-approximation to the Coulomb term is turned on
   Number of AuxJ basis functions       .... 440
   RIJ-COSX (HFX calculated with COS-X)).... on


General Settings:
 Integral files         IntName         .... sp
 Hartree-Fock type      HFTyp           .... RHF
 Total Charge           Charge          ....    0
 Multiplicity           Mult            ....    1
 Number of Electrons    NEL             ....   74
 Basis Dimension        Dim             ....  284
 Nuclear Repulsion      ENuc            ....    452.2806821630 Eh

Convergence Acceleration:
 AO-DIIS                CNVDIIS         .... on
   Start iteration      DIISMaxIt       ....    12
   Startup error        DIISStart       ....  0.200000
   # of expansion vecs  DIISMaxEq       ....     5
   Bias factor          DIISBfac        ....   1.050
   Max. coefficient     DIISMaxC        ....  10.000
 MO-DIIS                CNVKDIIS        .... off
 Trust-Rad. Augm. Hess. CNVTRAH         .... auto
   Auto Start mean grad. ratio tolernc. ....  1.125000
   Auto Start start iteration           ....     1
   Auto Start num. interpolation iter.  ....    10
   Max. Number of Micro iterations      ....    24
   Max. Number of Macro iterations      .... Maxiter - #DIIS iter
   Number of Davidson start vectors     ....     2
   Converg. threshold    (grad. norm)   ....   1.000e-04
   Grad. Scal. Fac. for Micro threshold ....   0.100
   Minimum threshold for Micro iter.    ....   1.000e-02
   NR start threshold (gradient norm)   ....   1.000e-04
   Initial trust radius                 ....   0.400
   Minimum AH scaling param. (alpha)    ....   1.000
   Maximum AH scaling param. (alpha)    .... 1000.000
   Quad. conv. algorithm                .... NR
   White noise on init. David. guess    .... on
   Maximum white noise                  ....   0.010
   Pseudo random numbers                .... off
   Inactive MOs                         .... canonical
   Orbital update algorithm             .... Taylor
   Preconditioner                       .... Diag
   Full preconditioner red. dimension   ....   250
 SOSCF                  CNVSOSCF        .... on
   Start iteration      SOSCFMaxIt      ....   150
   Startup grad/error   SOSCFStart      ....  0.003300
   Hessian update       SOSCFHessUp     .... L-BFGS
 Level Shifting         CNVShift        .... on
   Level shift para.    LevelShift      ....    0.2500
   Turn off err/grad.   ShiftErr        ....    0.0010
 Zerner damping         CNVZerner       .... off
 Static damping         CNVDamp         .... on
   Fraction old density DampFac         ....    0.7000
   Max. Damping (<1)    DampMax         ....    0.9800
   Min. Damping (>=0)   DampMin         ....    0.0000
   Turn off err/grad.   DampErr         ....    0.1000

SCF Procedure:
 Maximum # iterations   MaxIter         ....   125
 SCF integral mode      SCFMode         .... Direct
   Integral package                     .... SHARK and LIBINT hybrid scheme
 Reset frequency        DirectResetFreq ....    20
 Integral Threshold     Thresh          ....  3.000e-11 Eh
 Primitive CutOff       TCut            ....  1.000e-12 Eh

Convergence Tolerance:
 Convergence Check Mode ConvCheckMode   .... Total+1el-Energy
 Convergence forced     ConvForced      .... 0
 Energy Change          TolE            ....  1.000e-07 Eh
 1-El. energy change                    ....  1.000e-04 Eh
 Orbital Gradient       TolG            ....  1.000e-04
 Orbital Rotation angle TolX            ....  1.000e-04
 DIIS Error             TolErr          ....  1.000e-07

---------------------
INITIAL GUESS: MOREAD
---------------------
Guess MOs are being read from file: sp.ges
Input Geometry matches current geometry (good)
Atom 0: N(Shells)= 11 and 9 - projection required
Input basis set needs projection
NBasis(read)= 188
NBasis(calc)= 284
Basis set overlap was calculated
Using GuessMode=FMatrix for the initial guess
C*T matrix was formed
Effective Fockian was calculated
Effective Fockian was diagonalized
Initial density was built
                      ------------------
                      INITIAL GUESS DONE (   0.0 sec)
                      ------------------
             **** ENERGY FILE WAS UPDATED (sp.en.tmp) ****
Finished Guess after   0.1 sec
Maximum memory used throughout the entire GUESS-calculation: 26.0 MB

-------------------------------------------------------------------------------------------
                                      ORCA LEAN-SCF
                              memory conserving SCF solver
-------------------------------------------------------------------------------------------

----------------------------------------D-I-I-S--------------------------------------------
Iteration    Energy (Eh)           Delta-E    RMSDP     MaxDP     DIISErr   Damp  Time(sec)
-------------------------------------------------------------------------------------------
               ***  Starting incremental Fock matrix formation  ***
    1    -1151.6210886261299038     0.00e+00  2.31e-03  6.25e-02  5.45e-02  0.700   8.2
    2    -1151.6274711486071283    -6.38e-03  1.99e-03  5.60e-02  4.05e-02  0.700   4.7
                               ***Turning on AO-DIIS***
    3    -1151.6322469209362680    -4.78e-03  1.67e-03  4.78e-02  2.94e-02  0.700   4.7
    4    -1151.6357456006810480    -3.50e-03  4.26e-03  1.21e-01  2.08e-02  0.000   4.7
                              *** Initializing SOSCF ***
---------------------------------------S-O-S-C-F--------------------------------------
Iteration    Energy (Eh)           Delta-E    RMSDP     MaxDP     MaxGrad    Time(sec)
--------------------------------------------------------------------------------------
    5    -1151.6445968938025999    -8.85e-03  2.80e-04  1.03e-02  1.49e-03     4.8
               *** Restarting incremental Fock matrix formation ***
    6    -1151.6446266662198923    -2.98e-05  1.32e-04  4.83e-03  6.96e-04     8.8
    7    -1151.6446372050081663    -1.05e-05  6.82e-05  2.51e-03  2.39e-04     6.8
    8    -1151.6446389739535334    -1.77e-06  5.10e-06  1.47e-04  5.08e-05     6.6
    9    -1151.6446390510161564    -7.71e-08  4.57e-06  1.58e-04  5.47e-05     5.9
                 **** Energy Check signals convergence ****

               *****************************************************
               *                     SUCCESS                       *
               *           SCF CONVERGED AFTER   9 CYCLES          *
               *****************************************************


------------------
NL GRID GENERATION
------------------

General Integration Accuracy     IntAcc      ... 4.004
Radial Grid Type                 RadialGrid  ... OptM3 with GC (2021)
Angular Grid (max. ang.)         AngularGrid ... 2 (Lebedev-110)
Angular grid pruning method      GridPruning ... 4 (adaptive)
Weight generation scheme         WeightScheme... mBecke (2022)
Basis function cutoff            BFCut       ... 1.0000e-10
Integration weight cutoff        WCut        ... 1.0000e-14
Partially contracted basis set               ... off
Rotationally invariant grid construction     ... off
Angular grids for H and He will be reduced by one unit

Total number of grid points                  ...    20520
Total number of batches                      ...      324
Average number of points per batch           ...       63
Average number of grid points per atom       ...     1710
Final grid set up in    0.1 sec

-------------------------------------------------------------------------------
                    post-SCF DFT-NL dispersion correction                      
-------------------------------------------------------------------------------

SCF Energy:    -1151.644639051 
NL    Energy:      0.290141958 
SC+NL Energy:  -1151.354497093 
NL done in  :              1.3 sec
-------------------------------------------------------------------------------
Recomputing exchange energy using gridx3       ... done (   16.684 sec)
Old exchange energy                            :    -24.385509838 Eh
New exchange energy                            :    -24.385484815 Eh
Exchange energy change after final integration :      0.000025023 Eh
Total energy after final integration           :  -1151.354472070 Eh
             **** ENERGY FILE WAS UPDATED (sp.en.tmp) ****

----------------
TOTAL SCF ENERGY
----------------

Total Energy       :      -1151.35447207010725 Eh          -31329.94797 eV

Components:
Nuclear Repulsion  :        452.28068216296748 Eh           12307.18305 eV
Electronic Energy  :      -1603.92532121398335 Eh          -43645.02686 eV
One Electron Energy:      -2480.04229352110042 Eh          -67485.38170 eV
Two Electron Energy:        876.11697230711695 Eh           23840.35484 eV

Virial components:
Potential Energy   :      -2300.42005706509644 Eh          -62597.61215 eV
Kinetic Energy     :       1149.06558499498897 Eh           31267.66419 eV
Virial Ratio       :          2.00199195511989

DFT components:
N(Alpha)           :       37.000014486961 electrons
N(Beta)            :       37.000014486961 electrons
N(Total)           :       74.000028973922 electrons
E(X)               :      -62.853237887277 Eh       
E(C)               :       -3.452885637812 Eh       
NL Energy, E(C,NL) :        0.290141958092 Eh       
E(XC)              :      -66.015981566996 Eh       

---------------
SCF CONVERGENCE
---------------

  Last Energy change         ...    7.7063e-08  Tolerance :   1.0000e-07
  Last MAX-Density change    ...    1.5820e-04  Tolerance :   1.0000e-05
  Last RMS-Density change    ...    4.5742e-06  Tolerance :   1.0000e-06
  Last DIIS Error            ...    1.4909e-03  Tolerance :   1.0000e-07
  Last Orbital Gradient      ...    5.4654e-05  Tolerance :   1.0000e-04
  Last Orbital Rotation      ...    8.2113e-05  Tolerance :   1.0000e-04


----------------
ORBITAL ENERGIES
----------------

  NO   OCC          E(Eh)            E(eV) 
   0   2.0000    -101.530997     -2762.7989 
   1   2.0000    -101.530995     -2762.7988 
   2   2.0000     -10.357230      -281.8346 
   3   2.0000     -10.357215      -281.8342 
   4   2.0000     -10.305256      -280.4203 
   5   2.0000     -10.304091      -280.3886 
   6   2.0000     -10.300920      -280.3023 
   7   2.0000     -10.300860      -280.3006 
   8   2.0000      -9.570528      -260.4273 
   9   2.0000      -9.570524      -260.4272 
  10   2.0000      -7.325576      -199.3390 
  11   2.0000      -7.325574      -199.3390 
  12   2.0000      -7.316486      -199.0917 
  13   2.0000      -7.316486      -199.0917 
  14   2.0000      -7.316216      -199.0843 
  15   2.0000      -7.316215      -199.0843 
  16   2.0000      -1.054167       -28.6853 
  17   2.0000      -1.013369       -27.5752 
  18   2.0000      -0.968288       -26.3485 
  19   2.0000      -0.897091       -24.4111 
  20   2.0000      -0.875622       -23.8269 
  21   2.0000      -0.758160       -20.6306 
  22   2.0000      -0.734055       -19.9746 
  23   2.0000      -0.656994       -17.8777 
  24   2.0000      -0.611357       -16.6359 
  25   2.0000      -0.591621       -16.0988 
  26   2.0000      -0.559510       -15.2250 
  27   2.0000      -0.554318       -15.0838 
  28   2.0000      -0.542632       -14.7658 
  29   2.0000      -0.490208       -13.3392 
  30   2.0000      -0.487479       -13.2650 
  31   2.0000      -0.481592       -13.1048 
  32   2.0000      -0.439080       -11.9480 
  33   2.0000      -0.433524       -11.7968 
  34   2.0000      -0.426257       -11.5991 
  35   2.0000      -0.365551        -9.9472 
  36   2.0000      -0.350293        -9.5319 
  37   0.0000       0.041279         1.1233 
  38   0.0000       0.042385         1.1533 
  39   0.0000       0.085150         2.3171 
  40   0.0000       0.135634         3.6908 
  41   0.0000       0.141204         3.8424 
  42   0.0000       0.157248         4.2789 
  43   0.0000       0.166072         4.5190 
  44   0.0000       0.185007         5.0343 
  45   0.0000       0.203538         5.5386 
  46   0.0000       0.209125         5.6906 
  47   0.0000       0.215514         5.8644 
*Only the first 10 virtual orbitals were printed.

                    ********************************
                    * MULLIKEN POPULATION ANALYSIS *
                    ********************************

-----------------------
MULLIKEN ATOMIC CHARGES
-----------------------
   0 C :   -0.105272
   1 C :   -0.171962
   2 C :    0.143380
   3 C :   -0.224542
   4 C :    0.143389
   5 C :   -0.171977
   6 Cl:   -0.086191
   7 Cl:   -0.086195
   8 H :    0.131436
   9 H :    0.139214
  10 H :    0.149497
  11 H :    0.139223
Sum of atomic charges:    0.0000000

--------------------------------
MULLIKEN REDUCED ORBITAL CHARGES
--------------------------------
  0 C s       :     3.170060  s :     3.170060
      pz      :     0.945428  p :     2.840588
      px      :     0.918261
      py      :     0.976898
      dz2     :     0.004887  d :     0.087085
      dxz     :     0.025052
      dyz     :     0.005593
      dx2y2   :     0.027970
      dxy     :     0.023583
      f0      :     0.001665  f :     0.007538
      f+1     :     0.000616
      f-1     :     0.000693
      f+2     :     0.000214
      f-2     :     0.001178
      f+3     :     0.002120
      f-3     :     0.001053

  1 C s       :     3.191626  s :     3.191626
      pz      :     0.983233  p :     2.884072
      px      :     0.971495
      py      :     0.929343
      dz2     :     0.004959  d :     0.088728
      dxz     :     0.009440
      dyz     :     0.018451
      dx2y2   :     0.029370
      dxy     :     0.026508
      f0      :     0.001666  f :     0.007535
      f+1     :     0.000712
      f-1     :     0.000660
      f+2     :     0.000902
      f-2     :     0.000406
      f+3     :     0.002096
      f-3     :     0.001093

  2 C s       :     3.093960  s :     3.093960
      pz      :     0.968342  p :     2.584197
      px      :     0.795838
      py      :     0.820017
      dz2     :     0.007078  d :     0.167538
      dxz     :     0.028797
      dyz     :     0.027820
      dx2y2   :     0.050773
      dxy     :     0.053069
      f0      :     0.002085  f :     0.010926
      f+1     :     0.000960
      f-1     :     0.000762
      f+2     :     0.001096
      f-2     :     0.001042
      f+3     :     0.003535
      f-3     :     0.001444

  3 C s       :     3.216839  s :     3.216839
      pz      :     0.987115  p :     2.908087
      px      :     0.968187
      py      :     0.952785
      dz2     :     0.005357  d :     0.091912
      dxz     :     0.022816
      dyz     :     0.006232
      dx2y2   :     0.033504
      dxy     :     0.024003
      f0      :     0.001707  f :     0.007704
      f+1     :     0.000701
      f-1     :     0.000745
      f+2     :     0.000174
      f-2     :     0.001200
      f+3     :     0.002055
      f-3     :     0.001123

  4 C s       :     3.093956  s :     3.093956
      pz      :     0.968342  p :     2.584182
      px      :     0.795807
      py      :     0.820033
      dz2     :     0.007080  d :     0.167548
      dxz     :     0.028797
      dyz     :     0.027821
      dx2y2   :     0.050776
      dxy     :     0.053073
      f0      :     0.002085  f :     0.010926
      f+1     :     0.000960
      f-1     :     0.000762
      f+2     :     0.001096
      f-2     :     0.001042
      f+3     :     0.003535
      f-3     :     0.001445

  5 C s       :     3.191585  s :     3.191585
      pz      :     0.983232  p :     2.884113
      px      :     0.971547
      py      :     0.929334
      dz2     :     0.004960  d :     0.088744
      dxz     :     0.009440
      dyz     :     0.018451
      dx2y2   :     0.029374
      dxy     :     0.026519
      f0      :     0.001666  f :     0.007535
      f+1     :     0.000712
      f-1     :     0.000660
      f+2     :     0.000902
      f-2     :     0.000406
      f+3     :     0.002096
      f-3     :     0.001093

  6 Cls       :     5.865092  s :     5.865092
      pz      :     3.930800  p :    11.158094
      px      :     3.436048
      py      :     3.791246
      dz2     :     0.007621  d :     0.057576
      dxz     :     0.012155
      dyz     :     0.004253
      dx2y2   :     0.012963
      dxy     :     0.020584
      f0      :     0.000541  f :     0.005429
      f+1     :     0.000824
      f-1     :     0.000329
      f+2     :     0.000212
      f-2     :     0.000602
      f+3     :     0.001026
      f-3     :     0.001894

  7 Cls       :     5.865086  s :     5.865086
      pz      :     3.930800  p :    11.158104
      px      :     3.436069
      py      :     3.791234
      dz2     :     0.007621  d :     0.057576
      dxz     :     0.012155
      dyz     :     0.004253
      dx2y2   :     0.012963
      dxy     :     0.020584
      f0      :     0.000541  f :     0.005429
      f+1     :     0.000824
      f-1     :     0.000329
      f+2     :     0.000212
      f-2     :     0.000602
      f+3     :     0.001026
      f-3     :     0.001894

  8 H s       :     0.846355  s :     0.846355
      pz      :     0.004398  p :     0.022210
      px      :     0.003502
      py      :     0.014309

  9 H s       :     0.838437  s :     0.838437
      pz      :     0.004533  p :     0.022349
      px      :     0.011841
      py      :     0.005975

 10 H s       :     0.827981  s :     0.827981
      pz      :     0.004473  p :     0.022522
      px      :     0.003322
      py      :     0.014727

 11 H s       :     0.838428  s :     0.838428
      pz      :     0.004533  p :     0.022349
      px      :     0.011841
      py      :     0.005975


------------------------
MULLIKEN OVERLAP CHARGES
------------------------
B(  0-C ,  1-C ) :   0.7731 B(  0-C ,  2-C ) :   0.1810 B(  0-C ,  3-C ) :  -0.3255 
B(  0-C ,  4-C ) :   0.1808 B(  0-C ,  5-C ) :   0.7732 B(  0-C ,  8-H ) :   0.8428 
B(  0-C ,  9-H ) :  -0.1040 B(  0-C , 11-H ) :  -0.1039 B(  1-C ,  2-C ) :   0.6719 
B(  1-C ,  3-C ) :   0.1894 B(  1-C ,  4-C ) :  -0.2914 B(  1-C ,  5-C ) :   0.1190 
B(  1-C ,  7-Cl) :  -0.0777 B(  1-C ,  8-H ) :  -0.0835 B(  1-C ,  9-H ) :   0.8756 
B(  2-C ,  3-C ) :   0.5172 B(  2-C ,  4-C ) :   0.2455 B(  2-C ,  5-C ) :  -0.2914 
B(  2-C ,  7-Cl) :   0.5837 B(  2-C ,  9-H ) :  -0.1168 B(  2-C , 10-H ) :  -0.1330 
B(  3-C ,  4-C ) :   0.5171 B(  3-C ,  5-C ) :   0.1892 B(  3-C ,  6-Cl) :  -0.0791 
B(  3-C ,  7-Cl) :  -0.0792 B(  3-C , 10-H ) :   0.9003 B(  4-C ,  5-C ) :   0.6724 
B(  4-C ,  6-Cl) :   0.5836 B(  4-C , 10-H ) :  -0.1330 B(  4-C , 11-H ) :  -0.1167 
B(  5-C ,  6-Cl) :  -0.0777 B(  5-C ,  8-H ) :  -0.0835 B(  5-C , 11-H ) :   0.8755 



                     *******************************
                     * LOEWDIN POPULATION ANALYSIS *
                     *******************************

----------------------
LOEWDIN ATOMIC CHARGES
----------------------
   0 C :   -0.122722
   1 C :   -0.140695
   2 C :   -0.408252
   3 C :   -0.143354
   4 C :   -0.408251
   5 C :   -0.140695
   6 Cl:    0.382856
   7 Cl:    0.382856
   8 H :    0.148379
   9 H :    0.148828
  10 H :    0.152220
  11 H :    0.148829

-------------------------------
LOEWDIN REDUCED ORBITAL CHARGES
-------------------------------
  0 C s       :     2.762242  s :     2.762242
      pz      :     0.868797  p :     2.926367
      px      :     1.067890
      py      :     0.989681
      dz2     :     0.025225  d :     0.390612
      dxz     :     0.085673
      dyz     :     0.012242
      dx2y2   :     0.166192
      dxy     :     0.101281
      f0      :     0.003162  f :     0.043501
      f+1     :     0.004362
      f-1     :     0.003131
      f+2     :     0.001397
      f-2     :     0.008093
      f+3     :     0.015547
      f-3     :     0.007809

  1 C s       :     2.764393  s :     2.764393
      pz      :     0.895455  p :     2.955302
      px      :     1.021057
      py      :     1.038789
      dz2     :     0.026221  d :     0.377690
      dxz     :     0.028084
      dyz     :     0.061254
      dx2y2   :     0.123468
      dxy     :     0.138663
      f0      :     0.003313  f :     0.043310
      f+1     :     0.003509
      f-1     :     0.004245
      f+2     :     0.006542
      f-2     :     0.002866
      f+3     :     0.014675
      f-3     :     0.008160

  2 C s       :     2.778307  s :     2.778307
      pz      :     0.904050  p :     2.955013
      px      :     0.982116
      py      :     1.068847
      dz2     :     0.041030  d :     0.611533
      dxz     :     0.088441
      dyz     :     0.087483
      dx2y2   :     0.182888
      dxy     :     0.211690
      f0      :     0.004446  f :     0.063400
      f+1     :     0.004957
      f-1     :     0.004692
      f+2     :     0.007500
      f-2     :     0.007062
      f+3     :     0.024223
      f-3     :     0.010520

  3 C s       :     2.766700  s :     2.766700
      pz      :     0.898880  p :     2.959415
      px      :     1.062562
      py      :     0.997973
      dz2     :     0.027423  d :     0.373808
      dxz     :     0.077319
      dyz     :     0.014054
      dx2y2   :     0.149041
      dxy     :     0.105971
      f0      :     0.003480  f :     0.043432
      f+1     :     0.004620
      f-1     :     0.003345
      f+2     :     0.001358
      f-2     :     0.008657
      f+3     :     0.013530
      f-3     :     0.008442

  4 C s       :     2.778307  s :     2.778307
      pz      :     0.904050  p :     2.955012
      px      :     0.982113
      py      :     1.068848
      dz2     :     0.041030  d :     0.611532
      dxz     :     0.088441
      dyz     :     0.087483
      dx2y2   :     0.182890
      dxy     :     0.211688
      f0      :     0.004446  f :     0.063400
      f+1     :     0.004957
      f-1     :     0.004692
      f+2     :     0.007499
      f-2     :     0.007062
      f+3     :     0.024223
      f-3     :     0.010520

  5 C s       :     2.764394  s :     2.764394
      pz      :     0.895455  p :     2.955301
      px      :     1.021059
      py      :     1.038787
      dz2     :     0.026221  d :     0.377690
      dxz     :     0.028085
      dyz     :     0.061253
      dx2y2   :     0.123467
      dxy     :     0.138664
      f0      :     0.003313  f :     0.043310
      f+1     :     0.003509
      f-1     :     0.004245
      f+2     :     0.006542
      f-2     :     0.002866
      f+3     :     0.014675
      f-3     :     0.008160

  6 Cls       :     5.546112  s :     5.546112
      pz      :     3.855897  p :    10.965866
      px      :     3.403847
      py      :     3.706123
      dz2     :     0.011899  d :     0.094117
      dxz     :     0.019782
      dyz     :     0.006849
      dx2y2   :     0.023100
      dxy     :     0.032486
      f0      :     0.001161  f :     0.011049
      f+1     :     0.001458
      f-1     :     0.000612
      f+2     :     0.000452
      f-2     :     0.001365
      f+3     :     0.002618
      f-3     :     0.003383

  7 Cls       :     5.546112  s :     5.546112
      pz      :     3.855897  p :    10.965866
      px      :     3.403859
      py      :     3.706111
      dz2     :     0.011899  d :     0.094117
      dxz     :     0.019781
      dyz     :     0.006850
      dx2y2   :     0.023100
      dxy     :     0.032487
      f0      :     0.001161  f :     0.011049
      f+1     :     0.001458
      f-1     :     0.000612
      f+2     :     0.000452
      f-2     :     0.001365
      f+3     :     0.002618
      f-3     :     0.003383

  8 H s       :     0.793446  s :     0.793446
      pz      :     0.012630  p :     0.058174
      px      :     0.010515
      py      :     0.035029

  9 H s       :     0.791574  s :     0.791574
      pz      :     0.013402  p :     0.059598
      px      :     0.029905
      py      :     0.016291

 10 H s       :     0.787322  s :     0.787322
      pz      :     0.013454  p :     0.060458
      px      :     0.009790
      py      :     0.037214

 11 H s       :     0.791574  s :     0.791574
      pz      :     0.013402  p :     0.059598
      px      :     0.029905
      py      :     0.016291


---------------------------------
LOEWDIN BOND ORDERS (THRESH 0.050000)
---------------------------------
B(  0-C ,  1-C ) :   1.5757 B(  0-C ,  2-C ) :   0.2508 B(  0-C ,  3-C ) :   0.1074 
B(  0-C ,  4-C ) :   0.2508 B(  0-C ,  5-C ) :   1.5757 B(  0-C ,  8-H ) :   0.8250 
B(  0-C ,  9-H ) :   0.0949 B(  0-C , 11-H ) :   0.0949 B(  1-C ,  2-C ) :   1.5442 
B(  1-C ,  3-C ) :   0.2316 B(  1-C ,  4-C ) :   0.1051 B(  1-C ,  5-C ) :   0.2393 
B(  1-C ,  7-Cl) :   0.1654 B(  1-C ,  8-H ) :   0.0969 B(  1-C ,  9-H ) :   0.8251 
B(  2-C ,  3-C ) :   1.5420 B(  2-C ,  4-C ) :   0.2521 B(  2-C ,  5-C ) :   0.1051 
B(  2-C ,  7-Cl) :   1.6078 B(  2-C ,  9-H ) :   0.0969 B(  2-C , 10-H ) :   0.0958 
B(  3-C ,  4-C ) :   1.5421 B(  3-C ,  5-C ) :   0.2316 B(  3-C ,  6-Cl) :   0.1691 
B(  3-C ,  7-Cl) :   0.1691 B(  3-C , 10-H ) :   0.8200 B(  4-C ,  5-C ) :   1.5442 
B(  4-C ,  6-Cl) :   1.6078 B(  4-C , 10-H ) :   0.0958 B(  4-C , 11-H ) :   0.0969 
B(  5-C ,  6-Cl) :   0.1654 B(  5-C ,  8-H ) :   0.0969 B(  5-C , 11-H ) :   0.8251 


------------------------------------------
LOEWDIN REDUCED ORBITAL POPULATIONS PER MO
-------------------------------------------
THRESHOLD FOR PRINTING IS 0.1%%
                      0         1         2         3         4         5   
                 -101.53100 -101.53099 -10.35723 -10.35722 -10.30526 -10.30409
                   2.00000   2.00000   2.00000   2.00000   2.00000   2.00000
                  --------  --------  --------  --------  --------  --------
 0 C  s               0.0       0.0       0.0       0.0       0.0      97.3
 1 C  s               0.0       0.0       0.0       0.0       0.0       0.7
 1 C  px              0.0       0.0       0.0       0.0       0.0       0.1
 1 C  dx2y2           0.0       0.0       0.1       0.1       0.0       0.1
 1 C  dxy             0.0       0.0       0.0       0.0       0.0       0.2
 2 C  s               0.0       0.0      42.7      56.0       0.0       0.0
 2 C  dxy             0.0       0.0       0.0       0.0       0.2       0.0
 3 C  s               0.0       0.0       0.0       0.1      98.7       0.0
 3 C  px              0.0       0.0       0.2       0.0       0.0       0.0
 3 C  dz2             0.0       0.0       0.0       0.2       0.0       0.0
 3 C  dx2y2           0.0       0.0       0.0       0.1       0.0       0.0
 3 C  dxy             0.0       0.0       0.4       0.0       0.0       0.0
 3 C  f-3             0.0       0.0       0.0       0.1       0.0       0.0
 4 C  s               0.0       0.0      56.0      42.8       0.0       0.0
 4 C  dxy             0.0       0.0       0.0       0.0       0.2       0.0
 5 C  s               0.0       0.0       0.0       0.0       0.0       0.7
 5 C  px              0.0       0.0       0.0       0.0       0.0       0.1
 5 C  dx2y2           0.0       0.0       0.1       0.1       0.0       0.1
 5 C  dxy             0.0       0.0       0.0       0.0       0.0       0.2
 6 Cl s              49.0      51.0       0.0       0.0       0.0       0.0
 7 Cl s              51.0      49.0       0.0       0.0       0.0       0.0

                      6         7         8         9        10        11   
                 -10.30092 -10.30086  -9.57053  -9.57052  -7.32558  -7.32557
                   2.00000   2.00000   2.00000   2.00000   2.00000   2.00000
                  --------  --------  --------  --------  --------  --------
 0 C  s               0.0       1.5       0.0       0.0       0.0       0.0
 0 C  px              0.2       0.0       0.0       0.0       0.0       0.0
 0 C  dz2             0.0       0.1       0.0       0.0       0.0       0.0
 0 C  dx2y2           0.0       0.1       0.0       0.0       0.0       0.0
 0 C  dxy             0.3       0.0       0.0       0.0       0.0       0.0
 0 C  f-3             0.0       0.1       0.0       0.0       0.0       0.0
 1 C  s              48.0      50.1       0.0       0.0       0.0       0.0
 2 C  dx2y2           0.1       0.1       0.0       0.0       0.0       0.0
 4 C  dx2y2           0.1       0.1       0.0       0.0       0.0       0.0
 5 C  s              50.8      47.3       0.0       0.0       0.0       0.0
 6 Cl s               0.0       0.0      50.3      49.4       0.0       0.0
 6 Cl px              0.0       0.0       0.0       0.0      38.1      36.6
 6 Cl py              0.0       0.0       0.0       0.0      12.9      12.3
 7 Cl s               0.0       0.0      49.3      50.3       0.0       0.0
 7 Cl px              0.0       0.0       0.0       0.0      36.6      38.1
 7 Cl py              0.0       0.0       0.0       0.0      12.4      12.9

                     12        13        14        15        16        17   
                  -7.31649  -7.31649  -7.31622  -7.31622  -1.05417  -1.01337
                   2.00000   2.00000   2.00000   2.00000   2.00000   2.00000
                  --------  --------  --------  --------  --------  --------
 0 C  s               0.0       0.0       0.0       0.0       5.2       0.0
 0 C  px              0.0       0.0       0.0       0.0       0.0       1.0
 0 C  py              0.0       0.0       0.0       0.0       2.1       0.0
 0 C  dz2             0.0       0.0       0.0       0.0       0.3       0.0
 0 C  dxy             0.0       0.0       0.0       0.0       0.0       0.2
 1 C  s               0.0       0.0       0.0       0.0       7.2       2.0
 1 C  px              0.0       0.0       0.0       0.0       0.8       0.4
 1 C  py              0.0       0.0       0.0       0.0       1.9       1.7
 1 C  dz2             0.0       0.0       0.0       0.0       0.4       0.1
 1 C  dx2y2           0.0       0.0       0.0       0.0       0.1       0.3
 2 C  s               0.0       0.0       0.0       0.0      14.8       8.6
 2 C  px              0.0       0.0       0.0       0.0       0.1       5.0
 2 C  py              0.0       0.0       0.0       0.0       0.0       0.5
 2 C  dz2             0.0       0.0       0.0       0.0       0.9       0.6
 2 C  dxy             0.0       0.0       0.0       0.0       0.1       0.7
 2 C  f-3             0.0       0.0       0.0       0.0       0.2       0.2
 3 C  s               0.0       0.0       0.0       0.0      11.5       0.0
 3 C  px              0.0       0.0       0.0       0.0       0.0       8.3
 3 C  py              0.0       0.0       0.0       0.0       2.3       0.0
 3 C  dz2             0.0       0.0       0.0       0.0       0.6       0.0
 3 C  dx2y2           0.0       0.0       0.0       0.0       0.3       0.0
 3 C  dxy             0.0       0.0       0.0       0.0       0.0       0.5
 4 C  s               0.0       0.0       0.0       0.0      14.8       8.6
 4 C  px              0.0       0.0       0.0       0.0       0.1       5.0
 4 C  py              0.0       0.0       0.0       0.0       0.0       0.5
 4 C  dz2             0.0       0.0       0.0       0.0       0.9       0.6
 4 C  dxy             0.0       0.0       0.0       0.0       0.1       0.7
 4 C  f-3             0.0       0.0       0.0       0.0       0.2       0.2
 5 C  s               0.0       0.0       0.0       0.0       7.2       2.0
 5 C  px              0.0       0.0       0.0       0.0       0.8       0.4
 5 C  py              0.0       0.0       0.0       0.0       1.9       1.7
 5 C  dz2             0.0       0.0       0.0       0.0       0.4       0.1
 5 C  dx2y2           0.0       0.0       0.0       0.0       0.1       0.3
 6 Cl s               0.0       0.0       0.0       0.0       8.7      23.3
 6 Cl pz             54.2      45.8       0.0       0.0       0.0       0.0
 6 Cl px              0.0       0.0      14.3      10.9       0.8       0.6
 6 Cl py              0.0       0.0      42.5      32.3       0.2       0.2
 6 Cl dxy             0.0       0.0       0.0       0.0       0.1       0.1
 7 Cl s               0.0       0.0       0.0       0.0       8.7      23.3
 7 Cl pz             45.8      54.2       0.0       0.0       0.0       0.0
 7 Cl px              0.0       0.0      10.9      14.3       0.8       0.6
 7 Cl py              0.0       0.0      32.3      42.5       0.2       0.2
 7 Cl dxy             0.0       0.0       0.0       0.0       0.1       0.1
 8 H  s               0.0       0.0       0.0       0.0       0.6       0.0
 9 H  s               0.0       0.0       0.0       0.0       1.0       0.4
10 H  s               0.0       0.0       0.0       0.0       1.7       0.0
11 H  s               0.0       0.0       0.0       0.0       1.0       0.4

                     18        19        20        21        22        23   
                  -0.96829  -0.89709  -0.87562  -0.75816  -0.73405  -0.65699
                   2.00000   2.00000   2.00000   2.00000   2.00000   2.00000
                  --------  --------  --------  --------  --------  --------
 0 C  s              11.8       9.6       0.0      10.4       0.0       0.3
 0 C  px              0.0       0.0      12.1       0.0       9.7       0.0
 0 C  py              1.1       0.1       0.0       4.2       0.0       7.1
 0 C  dz2             0.5       0.1       0.0       0.0       0.0       0.0
 0 C  dx2y2           0.1       0.3       0.0       0.0       0.0       0.8
 0 C  dxy             0.0       0.0       2.1       0.0       0.1       0.0
 0 C  f-3             0.1       0.1       0.0       0.0       0.0       0.0
 1 C  s               5.6       3.0      13.0       1.5       3.4       1.2
 1 C  px              3.4       0.3       0.3       4.6       0.4      11.9
 1 C  py              0.9       2.7       0.5       8.1       5.5       2.1
 1 C  dz2             0.2       0.0       0.1       0.0       0.0       0.0
 1 C  dx2y2           0.2       0.4       0.4       0.3       0.3       0.1
 1 C  dxy             0.0       0.9       0.0       0.4       0.0       0.0
 1 C  f-3             0.1       0.0       0.1       0.0       0.0       0.0
 2 C  s               0.1       1.9       4.0       1.7       6.5       0.1
 2 C  px              5.3       9.1       0.5       1.9       1.1       3.0
 2 C  py              5.5       2.7       6.6       8.5       2.8       0.5
 2 C  dz2             0.0       0.0       0.0       0.0       0.1       0.0
 2 C  dx2y2           0.6       0.3       1.5       0.1       0.0       0.4
 2 C  dxy             0.4       1.9       0.5       0.0       0.2       1.4
 3 C  s               0.1      18.6       0.0       5.6       0.0       1.0
 3 C  px              0.0       0.0       1.5       0.0      18.9       0.0
 3 C  py              1.1       0.4       0.0       3.9       0.0      10.5
 3 C  dz2             0.0       0.2       0.0       0.0       0.0       0.0
 3 C  dx2y2           0.6       0.0       0.0       0.0       0.0       0.0
 3 C  dxy             0.0       0.0       1.4       0.0       1.3       0.0
 3 C  f+3             0.0       0.0       0.1       0.0       0.0       0.0
 3 C  f-3             0.0       0.2       0.0       0.0       0.0       0.0
 4 C  s               0.1       1.9       4.0       1.7       6.5       0.1
 4 C  px              5.3       9.1       0.5       1.9       1.1       3.0
 4 C  py              5.5       2.7       6.6       8.5       2.8       0.5
 4 C  dz2             0.0       0.0       0.0       0.0       0.1       0.0
 4 C  dx2y2           0.6       0.3       1.5       0.1       0.0       0.4
 4 C  dxy             0.4       1.9       0.5       0.0       0.2       1.4
 5 C  s               5.6       3.0      13.0       1.5       3.4       1.2
 5 C  px              3.4       0.3       0.3       4.6       0.4      11.9
 5 C  py              0.9       2.7       0.5       8.1       5.5       2.1
 5 C  dz2             0.2       0.0       0.1       0.0       0.0       0.0
 5 C  dx2y2           0.2       0.4       0.4       0.3       0.3       0.1
 5 C  dxy             0.0       0.9       0.0       0.4       0.0       0.0
 5 C  f-3             0.1       0.0       0.1       0.0       0.0       0.0
 6 Cl s              18.2       6.5       8.8       1.1       4.5       1.7
 6 Cl px              0.1       0.6       0.7       0.2       4.9       2.9
 6 Cl py              0.0       0.0       0.6       1.3       0.4       1.3
 6 Cl dz2             0.0       0.0       0.0       0.0       0.1       0.1
 6 Cl dx2y2           0.0       0.1       0.0       0.0       0.3       0.0
 6 Cl dxy             0.0       0.0       0.1       0.2       0.2       0.1
 7 Cl s              18.2       6.5       8.8       1.1       4.5       1.7
 7 Cl px              0.1       0.6       0.7       0.2       4.9       2.9
 7 Cl py              0.0       0.0       0.6       1.3       0.4       1.3
 7 Cl dz2             0.0       0.0       0.0       0.0       0.1       0.1
 7 Cl dx2y2           0.0       0.1       0.0       0.0       0.3       0.0
 7 Cl dxy             0.0       0.0       0.1       0.2       0.2       0.1
 8 H  s               1.8       2.5       0.0       7.4       0.0       2.1
 8 H  py              0.2       0.2       0.0       0.6       0.0       0.1
 9 H  s               0.6       1.0       3.2       0.8       3.4       8.3
 9 H  px              0.1       0.1       0.2       0.0       0.3       0.3
 9 H  py              0.0       0.0       0.1       0.2       0.0       0.1
10 H  s               0.1       3.8       0.0       4.9       0.0       6.6
10 H  px              0.0       0.0       0.0       0.0       0.2       0.0
10 H  py              0.0       0.4       0.0       0.4       0.0       0.3
11 H  s               0.6       1.0       3.2       0.8       3.4       8.3
11 H  px              0.1       0.1       0.2       0.0       0.3       0.3
11 H  py              0.0       0.0       0.1       0.2       0.0       0.1

                     24        25        26        27        28        29   
                  -0.61136  -0.59162  -0.55951  -0.55432  -0.54263  -0.49021
                   2.00000   2.00000   2.00000   2.00000   2.00000   2.00000
                  --------  --------  --------  --------  --------  --------
 0 C  s               0.0       1.3       0.5       0.0       0.0       0.1
 0 C  pz              0.0       0.0       0.0       0.0       8.2       0.0
 0 C  px             16.0       0.0       0.0       2.1       0.0       0.0
 0 C  py              0.0      11.9      12.3       0.0       0.0       9.0
 0 C  dz2             0.0       0.0       0.1       0.0       0.0       0.0
 0 C  dyz             0.0       0.0       0.0       0.0       0.4       0.0
 0 C  dx2y2           0.0       2.2       0.1       0.0       0.0       4.2
 0 C  dxy             0.1       0.0       0.0       1.6       0.0       0.0
 0 C  f+3             0.1       0.0       0.0       0.5       0.0       0.0
 1 C  s               0.1       1.7       0.1       0.2       0.0       0.1
 1 C  pz              0.0       0.0       0.0       0.0      10.3       0.0
 1 C  px              2.7       0.5       5.3       9.2       0.0       0.1
 1 C  py             12.6       0.5       0.6       4.1       0.0       8.1
 1 C  dxz             0.0       0.0       0.0       0.0       0.2       0.0
 1 C  dyz             0.0       0.0       0.0       0.0       0.3       0.0
 1 C  dx2y2           0.1       1.0       0.3       0.6       0.0       1.0
 1 C  dxy             0.0       1.2       0.9       0.1       0.0       0.6
 1 C  f0              0.0       0.0       0.0       0.0       0.1       0.0
 1 C  f+3             0.1       0.0       0.3       0.1       0.0       0.1
 2 C  s               0.0       2.1       0.0       0.1       0.0       0.0
 2 C  pz              0.0       0.0       0.0       0.0      17.9       0.0
 2 C  px              4.0       1.7       5.8       5.2       0.0       0.1
 2 C  py             10.7       0.8       0.1       4.4       0.0       7.6
 2 C  dz2             0.0       0.1       0.0       0.0       0.0       0.0
 2 C  dx2y2           0.3       0.6       0.9       0.5       0.0       0.2
 2 C  dxy             0.0       0.6       0.7       0.1       0.0       0.6
 2 C  f0              0.0       0.0       0.0       0.0       0.2       0.0
 2 C  f+3             0.0       0.0       0.4       0.1       0.0       0.1
 3 C  s               0.0       1.5       0.4       0.0       0.0       0.2
 3 C  pz              0.0       0.0       0.0       0.0      15.4       0.0
 3 C  px             13.2       0.0       0.0       0.4       0.0       0.0
 3 C  py              0.0       5.8      18.2       0.0       0.0       7.3
 3 C  dz2             0.0       0.0       0.2       0.0       0.0       0.0
 3 C  dyz             0.0       0.0       0.0       0.0       0.6       0.0
 3 C  dx2y2           0.0       2.5       0.3       0.0       0.0       3.6
 3 C  dxy             0.1       0.0       0.0       1.2       0.0       0.0
 3 C  f0              0.0       0.0       0.0       0.0       0.1       0.0
 3 C  f+3             0.1       0.0       0.0       0.4       0.0       0.0
 4 C  s               0.0       2.1       0.0       0.1       0.0       0.0
 4 C  pz              0.0       0.0       0.0       0.0      17.9       0.0
 4 C  px              4.0       1.7       5.8       5.2       0.0       0.1
 4 C  py             10.7       0.8       0.1       4.4       0.0       7.6
 4 C  dz2             0.0       0.1       0.0       0.0       0.0       0.0
 4 C  dx2y2           0.3       0.6       0.9       0.5       0.0       0.2
 4 C  dxy             0.0       0.6       0.7       0.1       0.0       0.6
 4 C  f0              0.0       0.0       0.0       0.0       0.2       0.0
 4 C  f+3             0.0       0.0       0.4       0.1       0.0       0.1
 5 C  s               0.1       1.7       0.1       0.2       0.0       0.1
 5 C  pz              0.0       0.0       0.0       0.0      10.3       0.0
 5 C  px              2.7       0.5       5.3       9.2       0.0       0.1
 5 C  py             12.6       0.5       0.6       4.1       0.0       8.1
 5 C  dxz             0.0       0.0       0.0       0.0       0.2       0.0
 5 C  dyz             0.0       0.0       0.0       0.0       0.3       0.0
 5 C  dx2y2           0.1       1.0       0.3       0.6       0.0       1.0
 5 C  dxy             0.0       1.2       0.9       0.1       0.0       0.6
 5 C  f0              0.0       0.0       0.0       0.0       0.1       0.0
 5 C  f+3             0.1       0.0       0.3       0.1       0.0       0.1
 6 Cl s               0.0       1.9       0.9       1.6       0.0       0.2
 6 Cl pz              0.0       0.0       0.0       0.0       7.9       0.0
 6 Cl px              0.5       8.7       6.4       9.3       0.0       7.8
 6 Cl py              3.0       3.6       1.1       4.3       0.0       0.8
 6 Cl dxz             0.0       0.0       0.0       0.0       0.2       0.0
 6 Cl dx2y2           0.2       0.1       0.0       0.1       0.0       0.1
 6 Cl dxy             0.1       0.3       0.1       0.1       0.0       0.0
 7 Cl s               0.0       1.9       0.9       1.6       0.0       0.2
 7 Cl pz              0.0       0.0       0.0       0.0       7.9       0.0
 7 Cl px              0.5       8.7       6.4       9.3       0.0       7.8
 7 Cl py              3.0       3.6       1.1       4.3       0.0       0.8
 7 Cl dxz             0.0       0.0       0.0       0.0       0.2       0.0
 7 Cl dx2y2           0.2       0.1       0.0       0.1       0.0       0.1
 7 Cl dxy             0.1       0.3       0.1       0.1       0.0       0.0
 8 H  s               0.0      10.5       5.1       0.0       0.0       8.4
 8 H  px              0.2       0.0       0.0       0.0       0.0       0.0
 8 H  py              0.0       0.4       0.1       0.0       0.0       0.1
 9 H  s               0.2       2.6       3.1       6.5       0.0       2.3
 9 H  px              0.1       0.1       0.0       0.1       0.0       0.1
 9 H  py              0.1       0.0       0.0       0.0       0.0       0.0
10 H  s               0.0       6.7       8.1       0.0       0.0       7.2
10 H  pz              0.0       0.0       0.0       0.0       0.2       0.0
10 H  px              0.2       0.0       0.0       0.0       0.0       0.0
10 H  py              0.0       0.3       0.2       0.0       0.0       0.1
11 H  s               0.2       2.6       3.1       6.5       0.0       2.3
11 H  px              0.1       0.1       0.0       0.1       0.0       0.1
11 H  py              0.1       0.0       0.0       0.0       0.0       0.0

                     30        31        32        33        34        35   
                  -0.48748  -0.48159  -0.43908  -0.43352  -0.42626  -0.36555
                   2.00000   2.00000   2.00000   2.00000   2.00000   2.00000
                  --------  --------  --------  --------  --------  --------
 0 C  s               0.0       0.0       0.0       0.1       0.0       0.0
 0 C  pz              0.0       0.0      16.1       0.0       0.0      19.1
 0 C  px             12.0       0.0       0.0       0.0       0.3       0.0
 0 C  py              0.0       0.0       0.0       1.5       0.0       0.0
 0 C  dxz             0.0       0.5       0.0       0.0       0.0       0.0
 0 C  dyz             0.0       0.0       0.2       0.0       0.0       0.0
 0 C  dx2y2           0.0       0.0       0.0       0.4       0.0       0.0
 0 C  dxy             0.5       0.0       0.0       0.0       0.1       0.0
 1 C  s               0.1       0.0       0.0       0.1       0.1       0.0
 1 C  pz              0.0       3.5       8.0       0.0       0.0       4.6
 1 C  px             10.5       0.0       0.0       0.4       0.2       0.0
 1 C  py              0.2       0.0       0.0       1.6       0.7       0.0
 1 C  dxz             0.0       0.0       0.6       0.0       0.0       0.5
 1 C  dyz             0.0       0.4       0.2       0.0       0.0       1.6
 1 C  dx2y2           0.4       0.0       0.0       0.3       0.0       0.0
 1 C  dxy             2.4       0.0       0.0       0.0       0.0       0.0
 1 C  f+2             0.0       0.0       0.0       0.0       0.0       0.1
 2 C  pz              0.0      10.4       0.0       0.0       0.0       5.4
 2 C  px              5.0       0.0       0.0       0.1       1.0       0.0
 2 C  py              0.0       0.0       0.0       1.4       1.1       0.0
 2 C  dxz             0.0       1.0       0.9       0.0       0.0       2.4
 2 C  dyz             0.0       0.0       1.4       0.0       0.0       1.2
 2 C  dx2y2           0.4       0.0       0.0       1.9       0.9       0.0
 2 C  dxy             2.3       0.0       0.0       0.2       0.6       0.0
 2 C  f+2             0.0       0.0       0.1       0.0       0.0       0.1
 2 C  f-2             0.0       0.1       0.0       0.0       0.0       0.2
 2 C  f+3             0.1       0.0       0.0       0.2       0.3       0.0
 3 C  s               0.0       0.0       0.0       0.6       0.0       0.0
 3 C  pz              0.0       0.0       0.0       0.0       0.0      29.5
 3 C  px              6.6       0.0       0.0       0.0       4.0       0.0
 3 C  py              0.0       0.0       0.0       0.3       0.0       0.0
 3 C  dz2             0.0       0.0       0.0       0.1       0.0       0.0
 3 C  dxz             0.0       1.6       0.0       0.0       0.0       0.0
 3 C  dxy             0.3       0.0       0.0       0.0       0.2       0.0
 3 C  f-2             0.0       0.1       0.0       0.0       0.0       0.0
 4 C  pz              0.0      10.4       0.0       0.0       0.0       5.4
 4 C  px              5.0       0.0       0.0       0.1       1.0       0.0
 4 C  py              0.0       0.0       0.0       1.4       1.1       0.0
 4 C  dxz             0.0       1.0       0.9       0.0       0.0       2.4
 4 C  dyz             0.0       0.0       1.4       0.0       0.0       1.2
 4 C  dx2y2           0.4       0.0       0.0       1.9       0.9       0.0
 4 C  dxy             2.3       0.0       0.0       0.2       0.6       0.0
 4 C  f+2             0.0       0.0       0.1       0.0       0.0       0.1
 4 C  f-2             0.0       0.1       0.0       0.0       0.0       0.2
 4 C  f+3             0.1       0.0       0.0       0.2       0.3       0.0
 5 C  s               0.1       0.0       0.0       0.1       0.1       0.0
 5 C  pz              0.0       3.5       8.0       0.0       0.0       4.6
 5 C  px             10.5       0.0       0.0       0.4       0.2       0.0
 5 C  py              0.2       0.0       0.0       1.6       0.7       0.0
 5 C  dxz             0.0       0.0       0.6       0.0       0.0       0.5
 5 C  dyz             0.0       0.4       0.2       0.0       0.0       1.6
 5 C  dx2y2           0.4       0.0       0.0       0.3       0.0       0.0
 5 C  dxy             2.4       0.0       0.0       0.0       0.0       0.0
 5 C  f+2             0.0       0.0       0.0       0.0       0.0       0.1
 6 Cl s               0.4       0.0       0.0       0.0       0.0       0.0
 6 Cl pz              0.0      33.0      30.1       0.0       0.0       8.6
 6 Cl px              6.4       0.0       0.0       6.8      13.8       0.0
 6 Cl py              5.5       0.0       0.0      34.4      28.7       0.0
 6 Cl dxz             0.0       0.1       0.0       0.0       0.0       0.2
 6 Cl dx2y2           0.0       0.0       0.0       0.1       0.1       0.0
 6 Cl dxy             0.1       0.0       0.0       0.0       0.0       0.0
 7 Cl s               0.4       0.0       0.0       0.0       0.0       0.0
 7 Cl pz              0.0      33.0      30.1       0.0       0.0       8.6
 7 Cl px              6.4       0.0       0.0       6.8      13.8       0.0
 7 Cl py              5.5       0.0       0.0      34.4      28.7       0.0
 7 Cl dxz             0.0       0.1       0.0       0.0       0.0       0.2
 7 Cl dx2y2           0.0       0.0       0.0       0.1       0.1       0.0
 7 Cl dxy             0.1       0.0       0.0       0.0       0.0       0.0
 8 H  s               0.0       0.0       0.0       1.1       0.0       0.0
 8 H  pz              0.0       0.0       0.2       0.0       0.0       0.3
 8 H  px              0.2       0.0       0.0       0.0       0.0       0.0
[...]
 4 C  s               0.2       1.7       0.6       0.0       4.6       0.0
 4 C  px              0.5       0.0       5.7       1.4       0.6       1.6
 4 C  py              2.2       2.7       0.6       3.8       0.8       4.3
 4 C  dz2             0.0       0.3       0.5       0.0       1.8       0.0
 4 C  dx2y2           0.5       2.4       0.2       4.9       0.9       0.7
 4 C  dxy             1.2       2.3       0.5       1.5       3.8       0.4
 4 C  f+1             0.3       0.1       1.5       0.3       0.0       0.5
 4 C  f-1             1.4       1.3       0.1       0.9       0.1       1.3
 4 C  f+3             6.5       2.5       0.9       4.1       0.4       5.9
 4 C  f-3             2.3       0.2       0.4       0.0       2.5       0.0
 5 C  s               0.3       1.7       1.2       0.0       5.3       0.1
 5 C  px              0.1       0.2       7.9       1.3       0.3       1.7
 5 C  py              2.0       0.2       0.6       3.9       0.7       4.6
 5 C  dz2             0.2       0.4       0.2       0.0       2.6       0.0
 5 C  dx2y2           0.0       1.8       0.6       4.3       0.5       0.7
 5 C  dxy             2.3       3.5       0.4       2.4       2.2       0.1
 5 C  f+1             0.1       0.2       3.1       0.3       0.1       0.4
 5 C  f-1             1.3       0.1       0.2       1.0       0.2       1.2
 5 C  f+3             6.8       1.9       1.0       2.8       0.6       9.1
 5 C  f-3             5.9       6.2       1.5       0.0       4.1       0.0
 6 Cl s               0.0       0.1       0.3       0.0       0.1       0.0
 6 Cl px              0.0       0.1       0.4       0.1       0.0       0.0
 6 Cl py              0.1       0.0       0.1       0.1       0.0       0.0
 6 Cl dx2y2           0.0       0.0       0.0       0.1       0.0       0.0
 6 Cl f+3             0.1       0.0       0.0       0.2       0.0       0.0
 7 Cl s               0.0       0.1       0.3       0.0       0.1       0.0
 7 Cl px              0.0       0.1       0.4       0.1       0.0       0.0
 7 Cl py              0.1       0.0       0.1       0.1       0.0       0.0
 7 Cl dx2y2           0.0       0.0       0.0       0.1       0.0       0.0
 7 Cl f+3             0.1       0.0       0.0       0.2       0.0       0.0
 8 H  s               0.0       0.0       3.3       0.0       2.0       0.0
 8 H  px              0.0       0.1       0.0       0.0       0.0       0.1
 8 H  py              0.1       0.0       0.5       0.0       0.3       0.0
 9 H  s               2.2       2.0       1.3       0.0       0.6       0.0
 9 H  px              0.1       0.6       0.1       0.0       0.1       0.1
 9 H  py              0.4       0.0       0.0       0.0       0.0       0.1
10 H  s               0.5       0.0       1.8       0.0       0.8       0.0
10 H  px              0.0       0.2       0.0       0.0       0.0       0.1
10 H  py              0.3       0.0       0.2       0.0       0.1       0.0
11 H  s               2.2       2.0       1.3       0.0       0.6       0.0
11 H  px              0.1       0.6       0.1       0.0       0.1       0.1
11 H  py              0.4       0.0       0.0       0.0       0.0       0.1

                    270       271       272       273       274       275   
                  10.83761  10.84660  10.91477  10.91552  11.40632  11.47796
                   0.00000   0.00000   0.00000   0.00000   0.00000   0.00000
                  --------  --------  --------  --------  --------  --------
 2 C  s               0.0       0.0       0.0       0.0       0.3       0.6
 2 C  px              0.0       0.0       0.0       0.0       0.2       0.1
 4 C  s               0.0       0.0       0.0       0.0       0.3       0.6
 4 C  px              0.0       0.0       0.0       0.0       0.2       0.1
 6 Cl s               0.0       0.0       0.0       0.0       0.4       0.4
 6 Cl pz             50.0      50.0       0.0       0.0       0.0       0.0
 6 Cl px              0.0       0.0      12.4      12.9      36.7      36.1
 6 Cl py              0.0       0.0      37.4      37.0      12.2      12.5
 7 Cl s               0.0       0.0       0.0       0.0       0.4       0.4
 7 Cl pz             50.0      50.0       0.0       0.0       0.0       0.0
 7 Cl px              0.0       0.0      12.4      12.9      36.7      36.1
 7 Cl py              0.0       0.0      37.4      37.0      12.2      12.5

                    276       277       278       279       280       281   
                  21.92200  22.65823  22.70206  22.76260  22.78691  23.10272
                   0.00000   0.00000   0.00000   0.00000   0.00000   0.00000
                  --------  --------  --------  --------  --------  --------
 0 C  s              16.5       0.0      65.7       0.0       0.6      15.4
 0 C  px              0.0       0.5       0.0       0.1       0.0       0.0
 0 C  dxy             0.0       0.2       0.0       0.0       0.0       0.0
 1 C  s              13.4      28.6       0.4      20.5      16.1      19.1
 1 C  px              0.1       0.0       0.1       0.0       0.0       0.0
 1 C  py              0.0       0.1       0.3       0.1       0.0       0.0
 1 C  dx2y2           0.0       0.0       0.1       0.0       0.0       0.0
 2 C  s              20.6      19.9      15.4      28.8       0.2      13.2
 2 C  px              0.0       0.1       0.0       0.0       0.2       0.0
 2 C  py              0.0       0.1       0.1       0.1       0.3       0.0
 2 C  dx2y2           0.0       0.0       0.0       0.0       0.1       0.0
 3 C  s              14.3       0.0       0.4       0.0      64.7      18.6
 3 C  px              0.0       0.5       0.0       0.2       0.0       0.0
 3 C  py              0.1       0.0       0.0       0.0       0.0       0.0
 3 C  dxy             0.0       0.2       0.0       0.1       0.0       0.0
 4 C  s              20.6      19.9      15.4      28.8       0.2      13.2
 4 C  px              0.0       0.1       0.0       0.0       0.2       0.0
 4 C  py              0.0       0.1       0.1       0.1       0.3       0.0
 4 C  dx2y2           0.0       0.0       0.0       0.0       0.1       0.0
 5 C  s              13.4      28.6       0.4      20.5      16.1      19.1
 5 C  px              0.1       0.0       0.1       0.0       0.0       0.0
 5 C  py              0.0       0.1       0.3       0.1       0.0       0.0
 5 C  dx2y2           0.0       0.0       0.1       0.0       0.0       0.0
 6 Cl s               0.1       0.3       0.2       0.2       0.0       0.1
 7 Cl s               0.1       0.3       0.2       0.2       0.0       0.1
 8 H  s               0.1       0.0       0.1       0.0       0.0       0.0
10 H  s               0.1       0.0       0.0       0.0       0.1       0.0

                    282       283   
                  25.82181  26.00186
                   0.00000   0.00000
                  --------  --------
 0 C  s               0.2       0.0
 1 C  s               0.2       0.0
 2 C  s               0.1       0.5
 2 C  px              0.2       0.4
 2 C  py              0.1       0.1
 2 C  dxy             0.2       0.2
 3 C  s               0.2       0.0
 3 C  px              0.0       0.4
 4 C  s               0.1       0.5
 4 C  px              0.2       0.4
 4 C  py              0.1       0.1
 4 C  dxy             0.2       0.2
 5 C  s               0.2       0.0
 6 Cl s              48.4      48.2
 6 Cl px              0.1       0.1
 7 Cl s              48.4      48.2
 7 Cl px              0.1       0.1


                      *****************************
                      * MAYER POPULATION ANALYSIS *
                      *****************************

  NA   - Mulliken gross atomic population
  ZA   - Total nuclear charge
  QA   - Mulliken gross atomic charge
  VA   - Mayer's total valence
  BVA  - Mayer's bonded valence
  FA   - Mayer's free valence

  ATOM       NA         ZA         QA         VA         BVA        FA
  0 C      6.1053     6.0000    -0.1053     3.9168     3.9168     0.0000
  1 C      6.1720     6.0000    -0.1720     3.9787     3.9787     0.0000
  2 C      5.8566     6.0000     0.1434     3.8943     3.8943     0.0000
  3 C      6.2245     6.0000    -0.2245     3.9530     3.9530     0.0000
  4 C      5.8566     6.0000     0.1434     3.8943     3.8943    -0.0000
  5 C      6.1720     6.0000    -0.1720     3.9787     3.9787     0.0000
  6 Cl    17.0862    17.0000    -0.0862     1.2150     1.2150    -0.0000
  7 Cl    17.0862    17.0000    -0.0862     1.2150     1.2150    -0.0000
  8 H      0.8686     1.0000     0.1314     0.9676     0.9676     0.0000
  9 H      0.8608     1.0000     0.1392     0.9766     0.9766     0.0000
 10 H      0.8505     1.0000     0.1495     0.9799     0.9799    -0.0000
 11 H      0.8608     1.0000     0.1392     0.9766     0.9766     0.0000

  Mayer bond orders larger than 0.100000
B(  0-C ,  1-C ) :   1.4112 B(  0-C ,  5-C ) :   1.4112 B(  0-C ,  8-H ) :   0.9643 
B(  1-C ,  2-C ) :   1.3980 B(  1-C ,  9-H ) :   0.9638 B(  2-C ,  3-C ) :   1.3659 
B(  2-C ,  7-Cl) :   0.9970 B(  3-C ,  4-C ) :   1.3659 B(  3-C , 10-H ) :   0.9627 
B(  4-C ,  5-C ) :   1.3979 B(  4-C ,  6-Cl) :   0.9970 B(  5-C , 11-H ) :   0.9638 


-------
TIMINGS
-------

Total SCF time: 0 days 0 hours 1 min 13 sec 

Total time                  ....      73.372 sec
Sum of individual times     ....      72.076 sec  ( 98.2%)

SCF preparation             ....       0.048 sec  (  0.1%)
Fock matrix formation       ....      71.637 sec  ( 97.6%)
  Startup                   ....       0.005 sec  (  0.0% of F)
  Split-RI-J                ....       2.625 sec  (  3.7% of F)
  Chain of spheres X        ....      63.835 sec  ( 89.1% of F)
  XC integration            ....       6.416 sec  (  9.0% of F)
    XC Preparation          ....       0.000 sec  (  0.0% of XC)
    Basis function eval.    ....       1.545 sec  ( 24.1% of XC)
    Density eval.           ....       1.409 sec  ( 22.0% of XC)
    XC-Functional eval.     ....       1.488 sec  ( 23.2% of XC)
    XC-Potential eval.      ....       1.881 sec  ( 29.3% of XC)
Diagonalization             ....       0.000 sec  (  0.0%)
Density matrix formation    ....       0.015 sec  (  0.0%)
Total Energy calculation    ....       0.004 sec  (  0.0%)
Population analysis         ....       0.138 sec  (  0.2%)
Orbital Transformation      ....       0.024 sec  (  0.0%)
Orbital Orthonormalization  ....       0.000 sec  (  0.0%)
DIIS solution               ....       0.078 sec  (  0.1%)
  MO trafo                  ....       0.000 sec  (  0.0 % of DIIS)
  Orb grad                  ....       0.000 sec  (  0.0 % of DIIS)
  Energy W gradient         ....       0.000 sec  (  0.0 % of DIIS)
  DIIS error                ....       0.010 sec  ( 13.2 % of DIIS)
  DIIS work                 ....       0.055 sec  ( 70.8 % of DIIS)
  Form Q                    ....       0.000 sec  (  0.0 % of DIIS)
  Form QpQm                 ....       0.000 sec  (  0.0 % of DIIS)
  Exp/Cayley                ....       0.000 sec  (  0.0 % of DIIS)
  Orb update                ....       0.000 sec  (  0.0 % of DIIS)
  Wake-sleep                ....       0.001 sec  (  0.9 % of DIIS)
SOSCF solution              ....       0.040 sec  (  0.1%)
  MO trafo                  ....       0.023 sec  ( 57.6 % of SOSCF)
  Orb grad                  ....       0.000 sec  (  0.7 % of SOSCF)
  Rot update                ....       0.001 sec  (  2.6 % of SOSCF)
  Step                      ....       0.016 sec  ( 38.8 % of SOSCF)
Grid generation             ....       0.091 sec  (  0.1%)
Finished LeanSCF after  73.4 sec

Maximum memory used throughout the entire LEANSCF-calculation: 36.6 MB
------------------   -----------------
gCP correction             0.005697901
------------------   -----------------

-------------------------   --------------------
FINAL SINGLE POINT ENERGY     -1151.348774169007
-------------------------   --------------------


------------------------------------------------------------------------------
                              ORCA PROPERTY CALCULATIONS
------------------------------------------------------------------------------

GBWName                                 ... sp.gbw
Number of atoms                         ...     12
Number of basis functions               ...    284
Max core memory                         ...   1024 MB

Electric properties:
Dipole moment                           ... YES
Quadrupole moment                       ...  NO
Static polarizability (Dipole/Dipole)   ...  NO
Static polarizability (Dipole/Quad.)    ...  NO
Static polarizability (Quad./Quad.)     ...  NO
Static polarizability (Velocity)        ...  NO

Atomic electric properties:
Dipole moment                           ...  NO
Quadrupole moment                       ...  NO
Static polarizability                   ...  NO

Choice of electric origin               ... Center of mass
Position of electric origin             ...    -0.000039     0.008617     0.000060

General magnetic properties:
Magnetizability                         ...  NO

EPR properties:
g-Tensor (aka g-matrix)                 ...  NO
Zero-Field splitting spin-orbit         ...  NO
Zero-field splitting spin-spin          ...  NO
Hyperfine couplings                     ...  NO (   0 nuclei)
Quadrupole couplings                    ...  NO (   0 nuclei)
Contact density                         ...  NO (   0 nuclei)

NMR properties:
Chemical shifts                         ...  NO (   0 nuclei)
Spin-rotation constants                 ...  NO (   0 nuclei)
Spin-spin couplings                     ...  NO (   0 nuclei,    0 pairs)

Choice of magnetic origin               ... GIAO
Position of magnetic origin             ...     0.000000     0.000000     0.000000

Properties with geometric perturbations:
SCF Hessian                             ...  NO
IR spectrum                             ...  NO
VCD spectrum                            ...  NO
X-ray spectroscopy properties:
SCF XES/XAS/RIXS spectra                ...  NO


-------------
DIPOLE MOMENT
-------------

Method             : SCF
Type of density    : Electron Density
Multiplicity       :   1
Irrep              :   0
Energy             : -1151.3544720701072492 Eh
Relativity type    : 
Basis              : AO
                                X                 Y                 Z
Electronic contribution:     -0.000077063       6.626284212       0.000547518
Nuclear contribution   :      0.000082551      -7.302286014      -0.000608647
                        -----------------------------------------
Total Dipole Moment    :      0.000005488      -0.676001802      -0.000061129
                        -----------------------------------------
Magnitude (a.u.)       :      0.676001805
Magnitude (Debye)      :      1.718260036



--------------------
Rotational spectrum 
--------------------
 
Rotational constants in cm-1:             0.093804             0.028241             0.021706 
Rotational constants in MHz :          2812.183555           846.638865           650.729557 

Dipole components along the rotational axes: 
x,y,z [a.u.] :    -0.000002    -0.676002    -0.000007 
x,y,z [Debye]:    -0.000004    -1.718260    -0.000017 

 

Dipole moment calculation done in   0.0 sec 

Maximum memory used throughout the entire PROP-calculation: 23.8 MB

--------------------------------
SUGGESTED CITATIONS FOR THIS RUN
--------------------------------

Below you find a list of papers that are relevant to this ORCA run
We neither can nor want to force you to cite these papers, but we appreciate if you do
You receive ORCA, which is the product of decades of hard work by many enthusiastic individuals, for free
The only thing we kindly ask in return is that you cite our papers,
We deeply appreciate it, if you show your appreciation for ORCA by not just citing the generic ORCA reference.

Please note that relegating all ORCA citations to the supporting information does *not* help us.
SI sections are not indexed - citations you put there will not count into any citation statistics
But we need these citations in order to attract the funding resources that allow us to do what we are doing

Therefore, if you are a happy ORCA user, please consider citing a few of the papers listed below in the main body of your paper

In addition to the list printed below, the program has created the file sp.bibtex that contains the list in bibtex format
You can import this file easily into all common literature databanks and citation aid programs


List of essential papers. We consider these as the minimum necessary citations

  1. Neese,F.
     Software update: the ORCA program system, version 5.0
     WIRES Comput. Molec. Sci., 2022 12(1)e1606
     doi.org/10.1002/wcms.1606

List of papers to cite with high priority. The work reported in these papers was absolutely
necessary for this run to complete.
Our perspective: the developers of density functionals and basis sets usually get cited in chemistry papers
Good! But without the algorithms to do something with them, the functionals or basis sets would not do anything.
Hence, in our opinion, the algorithm design and method developments papers are equally worthy of getting cited

  1. Neese,F.
     An improvement of the resolution of the identity approximation for the formation of the Coulomb matrix
     J. Comp. Chem., 2003 24(14)1740-1747
     doi.org/10.1002/jcc.10318
  2. Neese,F.; Wennmohs,F.; Hansen,A.; Becker,U.
     Efficient, approximate and parallel Hartree-Fock and hybrid DFT calculations. A 'chain-of-spheres' algorithm for the Hartree-Fock exchange
     Chem. Phys., 2009 356(1-3)98-109
     doi.org/10.1016/j.chemphys.2008.10.036
  3. Helmich-Paris,B.; de Souza,B.; Neese,F.; Izsák,R.
     An improved chain of spheres for exchange algorithm
     J. Chem. Phys., 2021 155 104109
     doi.org/doi: 10.1063/5.0058766.
  4. Neese,F.
     The SHARK Integral Generation and Digestion System
     J. Comp. Chem., 2022  1-16
     doi.org/10.1002/jcc.26942

List of suggested additional citations. These are papers that are important in the 'surrounding' of 
of this run, or papers that preceded the highly important papers. If you like your results we are grateful for a citation.

  1. Izsak,R.; Neese,F.
     An overlap fitted chain of spheres exchange method
     J. Chem. Phys., 2011 135 144105
     doi.org/10.1063/1.3646921
  2. Izsak,R.; Hansen,A.; Neese,F.
     The resolution of identity and chain of spheres approximations for the LPNO-CCSD singles Fock term
     Molec. Phys., 2012 110 2413-2417
     doi.org/10.1080/00268976.2012.687466
  3. Neese,F.
     The ORCA program system
     WIRES Comput. Molec. Sci., 2012 2(1)73-78
     doi.org/10.1002/wcms.81
  4. Izsak,R.; Neese,F.; Klopper,W.
     Robust fitting techniques in the chain of spheres approximation to the Fock exchange: The role of the complementary space
     J. Chem. Phys., 2013 139 
     doi.org/10.1063/1.4819264
  5. Neese,F.
     Software update: the ORCA program system, version 4.0
     WIRES Comput. Molec. Sci., 2018 8(1)1-6
     doi.org/10.1002/wcms.1327
  6. Neese,F.; Wennmohs,F.; Becker,U.; Riplinger,C.
     The ORCA quantum chemistry program package
     J. Chem. Phys., 2020 152 Art. No. L224108
     doi.org/10.1063/5.0004608

List of optional additional citations

  1. Neese,F.
     Approximate second-order SCF convergence for spin unrestricted wavefunctions
     Chem. Phys. Lett., 2000 325(1-3)93-98
     doi.org/10.1016/s0009-2614(00)00662-x

Timings for individual modules:

Sum of individual times          ...       74.483 sec (=   1.241 min)
Startup calculation              ...        0.971 sec (=   0.016 min)   1.3 %
SCF iterations                   ...       73.465 sec (=   1.224 min)  98.6 %
Property calculations            ...        0.047 sec (=   0.001 min)   0.1 %
                             ****ORCA TERMINATED NORMALLY****
TOTAL RUN TIME: 0 days 0 hours 1 minutes 14 seconds 533 msec
