 Entering Gaussian System
 *********************************************
 Gaussian 98:
 frequency output generated by the xtb code
 *********************************************
                         Standard orientation:
 --------------------------------------------------------------------
  Center     Atomic     Atomic              Coordinates (Angstroms)
  Number     Number      Type              X           Y           Z
 --------------------------------------------------------------------
    1          6             0        0.696603    0.553196    0.208105
    2          6             0       -0.572484   -0.155666   -0.313717
    3          9             0       -0.488547   -0.286385   -1.649156
    4         17             0       -2.001382    0.822190    0.074647
    5         17             0       -0.688707   -1.761981    0.416544
    6          9             0        0.783909    1.788082   -0.298097
    7          9             0        0.637714    0.684877    1.536688
    8         17             0        2.148090   -0.367247   -0.234965
 --------------------------------------------------------------------
     1 basis functions        1 primitive gaussians
     1 alpha electrons        1 beta electrons

 Harmonic frequencies (cm**-1), IR intensities (km*mol⁻¹),
 Raman scattering activities (A**4/amu), Raman depolarization ratios,
 reduced masses (AMU), force constants (mDyne/A) and normal coordinates:
                      1                      2                      3
                        a                      a                      a 
 Frequencies --    46.2358               122.7384               156.6434
 Red. masses --    25.2959                29.2895                21.5910
 Frc consts  --     0.0000                 0.0000                 0.0000
 IR Inten    --     0.3647                 1.0835                 1.9974
 Raman Activ --     0.0000                 0.0000                 0.0000
 Depolar     --     0.0000                 0.0000                 0.0000
 Atom AN      X      Y      Z        X      Y      Z        X      Y      Z
   1   6     0.00  -0.04   0.06    -0.00  -0.09  -0.05    -0.06  -0.04  -0.13
   2   6     0.01  -0.03   0.02     0.01  -0.14  -0.02    -0.05   0.01  -0.17
   3   9     0.15  -0.24   0.05    -0.10  -0.20  -0.02    -0.43  -0.17  -0.21
   4  17     0.02   0.11  -0.38     0.37   0.23   0.20     0.13   0.21   0.06
   5  17    -0.16   0.10   0.35    -0.42  -0.23  -0.11     0.44   0.16   0.13
   6   9    -0.13   0.09   0.40    -0.27  -0.12  -0.15     0.12   0.04   0.13
   7   9     0.12  -0.40   0.12    -0.09  -0.04  -0.07    -0.45  -0.34  -0.13
   8  17     0.03   0.23  -0.42     0.39   0.40   0.14     0.04  -0.02   0.14
                      4                      5                      6
                        a                      a                      a 
 Frequencies --   200.7538               245.5037               279.9548
 Red. masses --    28.3162                23.9639                20.7766
 Frc consts  --     0.0000                 0.0000                 0.0000
 IR Inten    --     0.5098                 0.3542                 1.1737
 Raman Activ --     0.0000                 0.0000                 0.0000
 Depolar     --     0.0000                 0.0000                 0.0000
 Atom AN      X      Y      Z        X      Y      Z        X      Y      Z
   1   6     0.10  -0.03  -0.09     0.01  -0.08   0.04    -0.04  -0.10  -0.06
   2   6    -0.00   0.07  -0.08    -0.12   0.00   0.14     0.03  -0.01  -0.10
   3   9    -0.16   0.12  -0.11    -0.40   0.11   0.15     0.25   0.40  -0.18
   4  17    -0.37  -0.39   0.07    -0.33   0.30  -0.33     0.10  -0.06   0.07
   5  17    -0.33   0.30   0.13     0.24  -0.16  -0.09     0.07   0.32   0.21
   6   9     0.35  -0.02  -0.02    -0.16  -0.15  -0.06    -0.59  -0.14  -0.19
   7   9     0.05  -0.17  -0.11     0.44  -0.09   0.07     0.08  -0.28  -0.07
   8  17     0.46   0.12   0.08     0.25   0.01   0.20     0.04  -0.17   0.13
                      7                      8                      9
                        a                      a                      a 
 Frequencies --   307.8407               346.1131               387.5201
 Red. masses --    20.7536                24.6336                25.2841
 Frc consts  --     0.0000                 0.0000                 0.0000
 IR Inten    --     2.5603                27.0951                26.0996
 Raman Activ --     0.0000                 0.0000                 0.0000
 Depolar     --     0.0000                 0.0000                 0.0000
 Atom AN      X      Y      Z        X      Y      Z        X      Y      Z
   1   6    -0.04  -0.16   0.11    -0.04  -0.04  -0.01     0.06  -0.01   0.07
   2   6    -0.05  -0.04   0.12    -0.06   0.05   0.02     0.05  -0.01   0.05
   3   9     0.16   0.41   0.14     0.44  -0.45   0.12    -0.07  -0.05   0.08
   4  17    -0.11   0.16  -0.07    -0.43   0.28   0.29    -0.08   0.03  -0.01
   5  17     0.09  -0.20   0.21     0.13   0.24  -0.26     0.01   0.12  -0.09
   6   9     0.23  -0.39  -0.22    -0.00  -0.12  -0.16    -0.32   0.07   0.28
   7   9    -0.45  -0.02   0.11    -0.02  -0.19  -0.01    -0.30   0.38   0.03
   8  17     0.12   0.16  -0.29     0.06   0.02   0.00     0.52  -0.43  -0.26
                     10                     11                     12
                        a                      a                      a 
 Frequencies --   416.0750               478.4281               596.2859
 Red. masses --    23.1748                17.5867                17.3804
 Frc consts  --     0.0000                 0.0000                 0.0000
 IR Inten    --    11.5676                15.3456                 4.9716
 Raman Activ --     0.0000                 0.0000                 0.0000
 Depolar     --     0.0000                 0.0000                 0.0000
 Atom AN      X      Y      Z        X      Y      Z        X      Y      Z
   1   6    -0.01   0.14  -0.25     0.11   0.24  -0.08    -0.04  -0.30  -0.26
   2   6    -0.04   0.00  -0.08     0.10   0.14   0.33    -0.14  -0.10   0.20
   3   9     0.26   0.15  -0.07    -0.07   0.03   0.54     0.07   0.09   0.35
   4  17    -0.25   0.23   0.10     0.14  -0.13  -0.13     0.09  -0.06  -0.05
   5  17    -0.04  -0.52   0.26    -0.04   0.04  -0.14     0.03   0.17  -0.09
   6   9     0.01   0.40   0.11    -0.05   0.32  -0.32     0.02  -0.22   0.37
   7   9    -0.00  -0.08  -0.37    -0.21  -0.37  -0.07     0.02   0.13  -0.59
   8  17     0.12  -0.14   0.08     0.03  -0.11   0.01    -0.11   0.12   0.08
                     13                     14                     15
                        a                      a                      a 
 Frequencies --   702.4745               771.1968               918.7364
 Red. masses --    13.3126                12.8166                12.7434
 Frc consts  --     0.0000                 0.0000                 0.0000
 IR Inten    --    22.0473                13.8828                24.6116
 Raman Activ --     0.0000                 0.0000                 0.0000
 Depolar     --     0.0000                 0.0000                 0.0000
 Atom AN      X      Y      Z        X      Y      Z        X      Y      Z
   1   6     0.51  -0.09  -0.03    -0.43   0.16   0.02     0.59  -0.24  -0.11
   2   6     0.68  -0.34   0.02    -0.02  -0.80   0.12    -0.58  -0.24   0.19
   3   9    -0.11   0.04  -0.02     0.01   0.10  -0.01     0.07   0.01  -0.16
   4  17    -0.24   0.13   0.02     0.01   0.05  -0.00     0.03  -0.01  -0.01
   5  17    -0.04   0.03  -0.01     0.01   0.18  -0.06     0.03   0.06  -0.02
   6   9    -0.08  -0.02   0.03     0.15   0.19  -0.06    -0.02   0.26  -0.08
   7   9    -0.09   0.01  -0.06     0.06  -0.03   0.06    -0.07   0.03   0.19
   8  17    -0.21   0.07   0.03     0.08  -0.05  -0.02    -0.04   0.02   0.01
                     16                     17                     18
                        a                      a                      a 
 Frequencies --  1048.6787              1080.7794              1118.8944
 Red. masses --    13.7248                13.4667                12.8780
 Frc consts  --     0.0000                 0.0000                 0.0000
 IR Inten    --   103.2215               182.3786                42.7681
 Raman Activ --     0.0000                 0.0000                 0.0000
 Depolar     --     0.0000                 0.0000                 0.0000
 Atom AN      X      Y      Z        X      Y      Z        X      Y      Z
   1   6    -0.05  -0.45   0.01    -0.07  -0.37   0.72    -0.32  -0.52  -0.43
   2   6     0.00  -0.07  -0.67     0.05   0.07   0.19     0.27   0.19   0.38
   3   9    -0.02   0.05   0.47    -0.02  -0.03  -0.18     0.01  -0.02  -0.19
   4  17     0.00  -0.00   0.01    -0.00   0.00  -0.00    -0.02   0.00  -0.00
   5  17     0.01   0.02   0.01     0.01   0.01  -0.00    -0.00  -0.01  -0.00
   6   9     0.02   0.28  -0.10     0.02   0.29  -0.14     0.03   0.23  -0.06
   7   9     0.03   0.05   0.14     0.01  -0.03  -0.39    -0.00   0.06   0.29
   8  17    -0.00   0.01  -0.00     0.00   0.00  -0.01     0.02   0.00   0.00
