8
 energy: -32.104565468472 gnorm: 0.018948823595 xtb: 6.7.1 (41059b4)
C            0.70935546290727        0.55699255967855        0.21769129509622
C           -0.57738657717385       -0.16715692812629       -0.31237433854553
F           -0.47675067025464       -0.27502019311666       -1.64966505347426
Cl          -2.00757208268261        0.83222175718991        0.08584134523901
Cl          -0.72912621265743       -1.78713373542209        0.41215866922150
F            0.76757322569089        1.78204050680477       -0.32845522237382
F            0.64419099176145        0.68579442010710        1.54828187109208
Cl           2.18490689678724       -0.35066973309085       -0.23342581052983
8
 energy: -32.105287533641 gnorm: 0.008641802926 xtb: 6.7.1 (41059b4)
C            0.69842070247037        0.55753211496683        0.21418351817975
C           -0.57471026326358       -0.15742442853351       -0.31600261998847
F           -0.48585885373277       -0.27559614504411       -1.65082781336903
Cl          -2.00909848273850        0.82225774606675        0.08435051556067
Cl          -0.68916045118912       -1.77135959494512        0.41023619940486
F            0.78287074715813        1.78424121820981       -0.31592580295361
F            0.63947026815503        0.69108209673353        1.54126091193201
Cl           2.15325736751875       -0.37366435342974       -0.22722215304080
8
 energy: -32.105418178756 gnorm: 0.003142115245 xtb: 6.7.1 (41059b4)
C            0.69572214002662        0.55436793084175        0.20864355069718
C           -0.57123657844424       -0.15567723509803       -0.31429458616676
F           -0.49161976476078       -0.28034018894836       -1.64827228780815
Cl          -2.00395059753845        0.81711100174018        0.08212379611194
Cl          -0.68928349125948       -1.76455859959674        0.40972862246012
F            0.78789484529270        1.78517786308049       -0.30548573049809
F            0.63729272803524        0.69135795663030        1.53399015390980
Cl           2.15037175302669       -0.37037007462514       -0.22638076298067
8
 energy: -32.105426796013 gnorm: 0.001967026689 xtb: 6.7.1 (41059b4)
C            0.69529235412221        0.55359206155045        0.20856722725003
C           -0.57195000018182       -0.15574009021050       -0.31430476509984
F           -0.49071609878126       -0.28129934118870       -1.64896989462173
Cl          -2.00213402586458        0.82047719943073        0.08071655231691
Cl          -0.68517714311878       -1.76422001851333        0.41159206432985
F            0.78618399840175        1.78543423013985       -0.30371160423795
F            0.63536574314991        0.69022676368588        1.53490521603085
Cl           2.14832620665088       -0.37140215086992       -0.22874204024274
8
 energy: -32.105431403788 gnorm: 0.000485759121 xtb: 6.7.1 (41059b4)
C            0.69644348091642        0.55303059763802        0.20824576587664
C           -0.57230873500427       -0.15587599496167       -0.31389195251673
F           -0.48975980420904       -0.28422151059809       -1.64973861240864
Cl          -2.00134860865838        0.82158555997324        0.07766543805635
Cl          -0.68705909578454       -1.76310979346520        0.41431737562565
F            0.78490713976248        1.78694281753973       -0.30044488167686
F            0.63581156149599        0.68798030050171        1.53649889576731
Cl           2.14850509585965       -0.36926332260327       -0.23259927299835
8
 energy: -32.105432134131 gnorm: 0.000250480352 xtb: 6.7.1 (41059b4)
C            0.69654179546609        0.55313481727240        0.20789465661305
C           -0.57243648501155       -0.15580419019435       -0.31356703697168
F           -0.48925777811098       -0.28523418186530       -1.64928573347721
Cl          -2.00150807259582        0.82154794746264        0.07625457863102
Cl          -0.68823035665710       -1.76264645213409        0.41512138866117
F            0.78473557452683        1.78760034467998       -0.29937047418983
F            0.63699535320891        0.68652652451666        1.53637076049029
Cl           2.14835100355192       -0.36805615571349       -0.23336538403145
8
 energy: -32.105432293359 gnorm: 0.000114778004 xtb: 6.7.1 (41059b4)
C            0.69660702289829        0.55318623055067        0.20806283998071
C           -0.57243866076475       -0.15568506986805       -0.31369350113001
F           -0.48879744399941       -0.28589299876853       -1.64926631236281
Cl          -2.00146674053445        0.82182428605852        0.07529970145940
Cl          -0.68858436086022       -1.76215598341980        0.41595753658250
F            0.78414557225399        1.78783406183717       -0.29869009488058
F            0.63757718471990        0.68550999526653        1.53662834169014
Cl           2.14814846066495       -0.36755186763208       -0.23424575561398
8
 energy: -32.105432347420 gnorm: 0.000068308853 xtb: 6.7.1 (41059b4)
C            0.69659966208561        0.55319957754134        0.20810869733498
C           -0.57248218145436       -0.15566884597603       -0.31371884435818
F           -0.48853930079605       -0.28638513326162       -1.64915789440352
Cl          -2.00138650502293        0.82217977395890        0.07464096851366
Cl          -0.68869906837855       -1.76198551696327        0.41653818448949
F            0.78390077562819        1.78808610210117       -0.29809094435140
F            0.63770540250495        0.68487761515471        1.53669095817713
Cl           2.14809224981145       -0.36723491853075       -0.23495836967679
