
                                 *****************
                                 * O   R   C   A *
                                 *****************

                                            #,                                       
                                            ###                                      
                                            ####                                     
                                            #####                                    
                                            ######                                   
                                           ########,                                 
                                     ,,################,,,,,                         
                               ,,#################################,,                 
                          ,,##########################################,,             
                       ,#########################################, ''#####,          
                    ,#############################################,,   '####,        
                  ,##################################################,,,,####,       
                ,###########''''           ''''###############################       
              ,#####''   ,,,,##########,,,,          '''####'''          '####       
            ,##' ,,,,###########################,,,                        '##       
           ' ,,###''''                  '''############,,,                           
         ,,##''                                '''############,,,,        ,,,,,,###''
      ,#''                                            '''#######################'''  
     '                                                          ''''####''''         
             ,#######,   #######,   ,#######,      ##                                
            ,#'     '#,  ##    ##  ,#'     '#,    #''#        ,####,   ,####,        
            ##       ##  ##   ,#'  ##            #'  '#       #'       #'  '#        
            ##       ##  #######   ##           ,######,      #####,   #    #        
            '#,     ,#'  ##    ##  '#,     ,#' ,#      #,     #,   #   #,  ,#        
             '#######'   ##     ##  '#######'  #'      '#     '####' # '####'        



                #########################################################
                #                        -***-                          #
                #          Department of theory and spectroscopy        #
                #                                                       #
                #                      Frank Neese                      #
                #                                                       #
                #     Directorship, Architecture, Infrastructure        #
                #                    SHARK, DRIVERS                     #
                #        Core code/Algorithms in most modules           #
                #                                                       #
                #        Max Planck Institute fuer Kohlenforschung      #
                #                Kaiser Wilhelm Platz 1                 #
                #                 D-45470 Muelheim/Ruhr                 #
                #                      Germany                          #
                #                                                       #
                #                  All rights reserved                  #
                #                        -***-                          #
                #########################################################


                         Program Version 6.0.1  -  RELEASE   -


 With contributions from (in alphabetic order):
[Max-Planck-Institut fuer Kohlenforschung]                               
  Daniel Aravena         : Magnetic Suceptibility                        
  Michael Atanasov       : Ab Initio Ligand Field Theory (pilot matlab implementation)
  Alexander A. Auer      : GIAO ZORA, VPT2 properties, NMR spectrum      
  Ute Becker             : All parallelization in ORCA, NUMFREQ, NUMCALC 
  Giovanni Bistoni       : ED, misc. LED, open-shell LED, HFLD           
  Martin Brehm           : Molecular dynamics                            
  Dmytro Bykov           : pre 5.0 version of the SCF Hessian            
  Marcos Casanova-Páez   : Triplet and SCS-CIS(D). UHF-(DLPNO)-IP/EA/STEOM-CCSD. UHF-CVS-IP/STEOM-CCSD   
  Vijay G. Chilkuri      : MRCI spin determinant printing, contributions to CSF-ICE 
  Pauline Colinet        : FMM embedding                                 
  Dipayan Datta          : RHF DLPNO-CCSD density                        
  Achintya Kumar Dutta   : EOM-CC, STEOM-CC                              
  Nicolas Foglia         : Exact transition moments, OPA infrastructure, MCD improvements    
  Dmitry Ganyushin       : Spin-Orbit,Spin-Spin,Magnetic field MRCI      
  Miquel Garcia-Rates    : C-PCM and meta-GGA Hessian, CCSD/C-PCM, Gaussian charge scheme 
  Tiago L. C. Gouveia    : GS-ROHF, GS-ROCIS                             
  Yang Guo               : DLPNO-NEVPT2, F12-NEVPT2, CIM, IAO-localization        
  Andreas Hansen         : Spin unrestricted coupled pair/coupled cluster methods 
  Ingolf Harden          : AUTO-CI MPn and infrastructure                
  Benjamin Helmich-Paris : MC-RPA, TRAH-(SCF,CASSCF), AVAS, COSX integrals, SCF dyn. polar. 
  Lee Huntington         : MR-EOM, pCC                                   
  Robert Izsak           : Overlap fitted RIJCOSX, COSX-SCS-MP3, EOM     
  Riya Kayal             : Wick's Theorem for AUTO-CI, AUTO-CI UHF-CCSDT 
  Emily Kempfer          : AUTO-CI, RHF CISDT and CCSDT                  
  Christian Kollmar      : KDIIS, OOCD, Brueckner-CCSD(T), CCSD density, CASPT2, CASPT2-K, improved NEVPT2 
  Axel Koslowski         : Symmetry handling                             
  Simone Kossmann        : meta-GGA functionals, TD-DFT gradient, OOMP2, (MP2 Hessian; deprecated post 5.0) 
  Lucas Lang             : DCDCAS                                        
  Marvin Lechner         : AUTO-CI (C++ implementation), FIC-MRCC        
  Spencer Leger          : CASSCF response                               
  Dagmar Lenk            : GEPOL surface, SMD, ORCA-2-JSON               
  Dimitrios Liakos       : Extrapolation schemes; Compound Job, initial MDCI parallelization 
  Dimitrios Manganas     : Further ROCIS development; embedding schemes. LFT, Crystal Embedding 
  Dimitrios Pantazis     : SARC Basis sets                               
  Anastasios Papadopoulos: AUTO-CI, single reference methods and gradients 
  Taras Petrenko         : pre 6.0 DFT Hessian and TD-DFT gradient, (ASA, deprecated), ECA, 1-Electron XAS/XES, NRVS 
  Peter Pinski           : DLPNO-MP2, DLPNO-MP2 Gradient                 
  Christoph Reimann      : Effective Core Potentials                     
  Marius Retegan         : Local ZFS, SOC                                
  Christoph Riplinger    : Optimizer, TS searches, QM/MM, DLPNO-CCSD(T), (RO)-DLPNO pert. Triples 
  Michael Roemelt        : Original ROCIS implementation                 
  Masaaki Saitow         : Open-shell DLPNO-CCSD energy and density      
  Barbara Sandhoefer     : DKH picture change effects                    
  Kantharuban Sivalingam : CASSCF convergence/infrastructure, NEVPT2 and variants, FIC-MRCI 
  Bernardo de Souza      : ESD, SOC TD-DFT                               
  Georgi L. Stoychev     : AutoAux, RI-MP2 NMR, DLPNO-MP2 response, X2C  
  Van Anh Tran           : RI-MP2 g-tensors                              
  Willem Van den Heuvel  : Paramagnetic NMR                              
  Zikuan Wang            : NOTCH, Electric field optimization            
  Frank Wennmohs         : Technical directorship and infrastructure     
  Hang Xu                : AUTO-CI-Response properties                   
                                                                         
[FACCTs GmbH]                                                            
  Markus Bursch, Miquel Garcia-Rates, Christoph Riplinger, Bernardo de Souza, Georgi L. Stoychev 
                                                                 
  APM, Basis sets (HGBS, AHGBS, def-TZVP (Ac-Lr), def2-XVPD (La-Lu)), CI-OPT, improved COSX, DLPNO-Multilevel,           
  DOCKER, DRACO, updates on ESD, GOAT, IRC, LR-CPCM, MBIS, meta-GGA TD-DFT gradient, ML-optimized integration grids, 
  MM, NACMEs, nearIR, NEB, NEB-TS, NL-DFT gradient (VV10), 2- and 3-layer-ONIOM, interface openCOSMO-RS, QMMM,   
  Crystal-QMMM, SF, symmetry and pop. for TD-DFT, r2SCAN hybrids, SOLVATOR                                   
                                                                         
[Other institutions]                                                     
  V. Asgeirsson          : NEB                                           
  Christoph Bannwarth    : sTDA-DFT, sTD-DFT, PBEh-3c, B97-3c, D3        
  Sebastian Ehlert       : rSCAN, r2SCAN, r2SCAN-3c, D4, dhf basis sets  
  Marvin Friede          : D4 for Fr, Ra, Ac-Lr                          
  Lars Goerigk           : TD-DFT with DH, B97 family of functionals     
  Stefan Grimme          : VdW corrections, initial TS optimization, DFT functionals, gCP, sTDA/sTD-DF 
  Waldemar Hujo          : DFT-NL                                        
  H. Jonsson             : NEB                                           
  Holger Kruse           : gCP                                           
  Marcel Mueller         : wB97X-3c, vDZP basis set                      
  Hagen Neugebauer       : wr2SCAN                                       
  Tobias Risthaus        : range-separated hybrid DFT                    
  Lukas Wittmann         : regularized MP2, r2SCAN double-hybrids, wr2SCAN        
                                                                         
We gratefully acknowledge several colleagues who have allowed us to      
interface, adapt or use parts of their codes:                            
  Ed Valeev, F. Pavosevic, A. Kumar             : LibInt (2-el integral package), F12 methods 
  Garnet Chan, S. Sharma, J. Yang, R. Olivares  : DMRG                   
  Ulf Ekstrom                                   : XCFun DFT Library      
  Mihaly Kallay                                 : mrcc  (arbitrary order and MRCC methods)
  Frank Weinhold                                : gennbo (NPA and NBO analysis)           
  Simon Mueller                                 : openCOSMO-RS                            
  Christopher J. Cramer and Donald G. Truhlar   : smd solvation model                     
  S Lehtola, MJT Oliveira, MAL Marques          : LibXC Library                           
  Liviu Ungur et al                             : ANISO software                          


 Your calculation uses the libint2 library for the computation of 2-el integrals
 For citations please refer to: http://libint.valeyev.net

 Your ORCA version has been built with support for libXC version: 6.2.2
 For citations please refer to: https://libxc.gitlab.io

 This ORCA versions uses:
   CBLAS   interface :  Fast vector & matrix operations
   LAPACKE interface :  Fast linear algebra routines
   SCALAPACK package :  Parallel linear algebra routines
   Shared memory     :  Shared parallel matrices
   BLAS/LAPACK       :  OpenBLAS 0.3.27  USE64BITINT DYNAMIC_ARCH NO_AFFINITY Zen SINGLE_THREADED
        Core in use  :  Zen
   Copyright (c) 2011-2014, The OpenBLAS Project


Your calculation utilizes the geometrical counterpoise correction gCP
Please cite in your paper:
H.Kruse, S. Grimme J.Chem.Phys., 136, (2012), 154101 
   

Your calculation utilizes the atom-pairwise dispersion correction
based on EEQ partial charges (D4)


================================================================================

----- Orbital basis set information -----
Your calculation utilizes the basis: def2-SV(P)
   F. Weigend and R. Ahlrichs, Phys. Chem. Chem. Phys. 7, 3297 (2005).

----- AuxJ basis set information -----
Your calculation utilizes the auxiliary basis: def2/J
   F. Weigend, Phys. Chem. Chem. Phys. 8, 1057 (2006).

================================================================================
                                        WARNINGS
                       Please study these warnings very carefully!
================================================================================

WARNING: Old DensityContainer found on disk!
         Will remove this file - 
         If you want to keep old densities, please start your calculation with a different basename. 


================================================================================
                                       INPUT FILE
================================================================================
NAME = sp.inp
|  1> ! pbe def2-sv(p) def2/J RI DEFGRID1 loosescf d4 GCP(DFT/SV(P)) printgap
|  2> %output
|  3>     printlevel normal
|  4> end
|  5> * xyz 0 1
|  6> C 0.8493601988 1.2629459473 -1.0176881398
|  7> C 1.4485954501 0.3192838826 0.0237998019
|  8> H 2.4959835998 0.1129729131 -0.2492695722
|  9> C 0.6656913615 -1.0137636761 0.0078973755
| 10> H 0.6750065799 -1.4284787234 1.0261125047
| 11> C -0.8071372428 -0.802110478 -0.4240285367
| 12> H -0.8691895971 -1.0087741677 -1.496520755
| 13> C -1.2758088699 0.6345167163 -0.1160606655
| 14> H -2.2955997447 0.7761753883 -0.4957480409
| 15> O -0.4837436771 1.6254786554 -0.71351612
| 16> O -1.3749377165 0.7996962751 1.2689613447
| 17> O -1.6649643127 -1.6998056948 0.2187865992
| 18> O 1.238827028 -1.9102704661 -0.909743935
| 19> O 1.3916447238 0.8554165294 1.3315669459
| 20> H 0.9006483594 0.7688682657 -1.9973029797
| 21> H 1.4017546377 2.2064831956 -1.067485698
| 22> H -0.4713502909 0.8582509831 1.6310322742
| 23> H -1.9050278272 -1.307332126 1.0728163578
| 24> H 2.0413233357 -2.2913177429 -0.5372362757
| 25> H 1.7095037158 1.7662517492 1.3135120294
| 26> *
| 27> 
| 28>                          ****END OF INPUT****
================================================================================

                       ****************************
                       * Single Point Calculation *
                       ****************************

---------------------------------
CARTESIAN COORDINATES (ANGSTROEM)
---------------------------------
  C      0.849360    1.262946   -1.017688
  C      1.448595    0.319284    0.023800
  H      2.495984    0.112973   -0.249270
  C      0.665691   -1.013764    0.007897
  H      0.675007   -1.428479    1.026113
  C     -0.807137   -0.802110   -0.424029
  H     -0.869190   -1.008774   -1.496521
  C     -1.275809    0.634517   -0.116061
  H     -2.295600    0.776175   -0.495748
  O     -0.483744    1.625479   -0.713516
  O     -1.374938    0.799696    1.268961
  O     -1.664964   -1.699806    0.218787
  O      1.238827   -1.910270   -0.909744
  O      1.391645    0.855417    1.331567
  H      0.900648    0.768868   -1.997303
  H      1.401755    2.206483   -1.067486
  H     -0.471350    0.858251    1.631032
  H     -1.905028   -1.307332    1.072816
  H      2.041323   -2.291318   -0.537236
  H      1.709504    1.766252    1.313512

----------------------------
CARTESIAN COORDINATES (A.U.)
----------------------------
  NO LB      ZA    FRAG     MASS         X           Y           Z
   0 C     6.0000    0    12.011    1.605058    2.386622   -1.923152
   1 C     6.0000    0    12.011    2.737449    0.603359    0.044975
   2 H     1.0000    0     1.008    4.716725    0.213488   -0.471051
   3 C     6.0000    0    12.011    1.257974   -1.915736    0.014924
   4 H     1.0000    0     1.008    1.275578   -2.699434    1.939072
   5 C     6.0000    0    12.011   -1.525268   -1.515769   -0.801298
   6 H     1.0000    0     1.008   -1.642530   -1.906307   -2.828014
   7 C     6.0000    0    12.011   -2.410929    1.199063   -0.219323
   8 H     1.0000    0     1.008   -4.338055    1.466759   -0.936828
   9 O     8.0000    0    15.999   -0.914143    3.071709   -1.348350
  10 O     8.0000    0    15.999   -2.598256    1.511207    2.397989
  11 O     8.0000    0    15.999   -3.146327   -3.212167    0.413447
  12 O     8.0000    0    15.999    2.341044   -3.609888   -1.719167
  13 O     8.0000    0    15.999    2.629827    1.616503    2.516297
  14 H     1.0000    0     1.008    1.701979    1.452950   -3.774356
  15 H     1.0000    0     1.008    2.648932    4.169649   -2.017256
  16 H     1.0000    0     1.008   -0.890723    1.621859    3.082204
  17 H     1.0000    0     1.008   -3.599981   -2.470500    2.027329
  18 H     1.0000    0     1.008    3.857542   -4.329963   -1.015229
  19 H     1.0000    0     1.008    3.230494    3.337732    2.482178

--------------------------------
INTERNAL COORDINATES (ANGSTROEM)
--------------------------------
 C      0   0   0     0.000000000000     0.00000000     0.00000000
 C      1   0   0     1.527834451589     0.00000000     0.00000000
 H      2   1   0     1.101886126303   108.63423981     0.00000000
 C      2   1   3     1.546029589907   109.08271331   241.89779966
 H      4   2   1     1.099471415309   108.14459211   211.49217310
 C      4   2   1     1.549380898146   111.49731417   330.73094445
 H      6   4   2     1.093983516159   107.54229425    95.90290453
 C      6   4   2     1.542204590559   111.12882991   334.51987707
 H      8   6   4     1.097361886852   109.48585038   176.03637316
 O      8   6   4     1.402257413780   113.67650652    56.91045905
 O      8   6   4     1.398355027742   109.23053818   290.70031561
 O      6   4   2     1.398190002489   111.55178705   213.10145405
 O      4   2   1     1.405088784194   110.50591530    89.63432836
 O      2   1   3     1.414544627474   112.35422227   121.65135004
 H      1   2   3     1.098357166602   108.16942769    60.06534210
 H      1   2   3     1.094477935757   111.44010359   300.40618164
 H     11   8   6     0.975189339318   108.00805261    73.61299894
 H     12   6   4     0.970068462416   107.26695880    85.87095122
 H     13   4   2     0.963306445149   109.85534813    76.62744740
 H     14   2   1     0.964873627183   109.10039955   312.55662518

---------------------------
INTERNAL COORDINATES (A.U.)
---------------------------
 C      0   0   0     0.000000000000     0.00000000     0.00000000
 C      1   0   0     2.887188691472     0.00000000     0.00000000
 H      2   1   0     2.082263009480   108.63423981     0.00000000
 C      2   1   3     2.921572519863   109.08271331   241.89779966
 H      4   2   1     2.077699867010   108.14459211   211.49217310
 C      4   2   1     2.927905574625   111.49731417   330.73094445
 H      6   4   2     2.067329240566   107.54229425    95.90290453
 C      6   4   2     2.914344318633   111.12882991   334.51987707
 H      8   6   4     2.073713435954   109.48585038   176.03637316
 O      8   6   4     2.649882481306   113.67650652    56.91045905
 O      8   6   4     2.642508040425   109.23053818   290.70031561
 O      6   4   2     2.642196187891   111.55178705   213.10145405
 O      4   2   1     2.655232995970   110.50591530    89.63432836
 O      2   1   3     2.673101950136   112.35422227   121.65135004
 H      1   2   3     2.075594242107   108.16942769    60.06534210
 H      1   2   3     2.068263558201   111.44010359   300.40618164
 H     11   8   6     1.842840780032   108.00805261    73.61299894
 H     12   6   4     1.833163725121   107.26695880    85.87095122
 H     13   4   2     1.820385364373   109.85534813    76.62744740
 H     14   2   1     1.823346909219   109.10039955   312.55662518

---------------------
BASIS SET INFORMATION
---------------------
There are 3 groups of distinct atoms

 Group   1 Type C   : 7s4p1d contracted to 3s2p1d pattern {511/31/1}
 Group   2 Type H   : 4s contracted to 2s pattern {31}
 Group   3 Type O   : 7s4p1d contracted to 3s2p1d pattern {511/31/1}

Atom   0C    basis set group =>   1
Atom   1C    basis set group =>   1
Atom   2H    basis set group =>   2
Atom   3C    basis set group =>   1
Atom   4H    basis set group =>   2
Atom   5C    basis set group =>   1
Atom   6H    basis set group =>   2
Atom   7C    basis set group =>   1
Atom   8H    basis set group =>   2
Atom   9O    basis set group =>   3
Atom  10O    basis set group =>   3
Atom  11O    basis set group =>   3
Atom  12O    basis set group =>   3
Atom  13O    basis set group =>   3
Atom  14H    basis set group =>   2
Atom  15H    basis set group =>   2
Atom  16H    basis set group =>   2
Atom  17H    basis set group =>   2
Atom  18H    basis set group =>   2
Atom  19H    basis set group =>   2
---------------------------------
AUXILIARY/J BASIS SET INFORMATION
---------------------------------
There are 3 groups of distinct atoms

 Group   1 Type C   : 12s5p4d2f1g contracted to 6s4p3d1f1g pattern {711111/2111/211/2/1}
 Group   2 Type H   : 5s2p1d contracted to 3s1p1d pattern {311/2/1}
 Group   3 Type O   : 12s5p4d2f1g contracted to 6s4p3d1f1g pattern {711111/2111/211/2/1}

Atom   0C    basis set group =>   1
Atom   1C    basis set group =>   1
Atom   2H    basis set group =>   2
Atom   3C    basis set group =>   1
Atom   4H    basis set group =>   2
Atom   5C    basis set group =>   1
Atom   6H    basis set group =>   2
Atom   7C    basis set group =>   1
Atom   8H    basis set group =>   2
Atom   9O    basis set group =>   3
Atom  10O    basis set group =>   3
Atom  11O    basis set group =>   3
Atom  12O    basis set group =>   3
Atom  13O    basis set group =>   3
Atom  14H    basis set group =>   2
Atom  15H    basis set group =>   2
Atom  16H    basis set group =>   2
Atom  17H    basis set group =>   2
Atom  18H    basis set group =>   2
Atom  19H    basis set group =>   2

Checking for AutoStart:
The File: sp.gbw exists
Trying to determine its content:
     ... Fine, the file contains calculation information
     ... Fine, the calculation information was read
     ... Fine, the file contains a basis set
     ... Fine, the basis set was read
     ... Fine, the file contains a geometry
     ... Fine, the geometry was read
     ... Fine, the file contains a set of orbitals
     ... Fine, the orbitals can be read
     => possible old guess file was deleted
     => GBW file was renamed to GES file
     => GES file is set as startup file
     => Guess is set to MORead
     ... now leaving AutoStart

------------------------------------------------------------------------------
                             ORCA STARTUP CALCULATIONS
                           -- RI-GTO INTEGRALS CHOSEN --
------------------------------------------------------------------------------
------------------------------------------------------------------------------
                   ___                                                        
                  /   \      - P O W E R E D   B Y -                         
                 /     \                                                     
                 |  |  |   _    _      __       _____    __    __             
                 |  |  |  | |  | |    /  \     |  _  \  |  |  /  |          
                  \  \/   | |  | |   /    \    | | | |  |  | /  /          
                 / \  \   | |__| |  /  /\  \   | |_| |  |  |/  /          
                |  |  |   |  __  | /  /__\  \  |    /   |      \           
                |  |  |   | |  | | |   __   |  |    \   |  |\   \          
                \     /   | |  | | |  |  |  |  | |\  \  |  | \   \       
                 \___/    |_|  |_| |__|  |__|  |_| \__\ |__|  \__/        
                                                                              
                      - O R C A' S   B I G   F R I E N D -                    
                                      &                                       
                       - I N T E G R A L  F E E D E R -                       
                                                                              
 v1 FN, 2020, v2 2021, v3 2022-2024                                           
------------------------------------------------------------------------------


----------------------
SHARK INTEGRAL PACKAGE
----------------------

Number of atoms                             ...     20
Number of basis functions                   ...    160
Number of shells                            ...     80
Maximum angular momentum                    ...      2
Integral batch strategy                     ... SHARK/LIBINT Hybrid
RI-J (if used) integral strategy            ... SPLIT-RIJ (Revised 2003 algorithm where possible)
Printlevel                                  ...      1
Contraction scheme used                     ... SEGMENTED contraction
Prescreening option                         ... SCHWARTZ
   Thresh                                   ... 1.000e-09
   Tcut                                     ... 1.000e-10
   Tpresel                                  ... 1.000e-10 
Coulomb Range Separation                    ... NOT USED
Exchange Range Separation                   ... NOT USED
Multipole approximations                    ... NOT USED
Finite Nucleus Model                        ... NOT USED
CABS basis                                  ... NOT available
Auxiliary Coulomb fitting basis             ... AVAILABLE
   # of basis functions in Aux-J            ...    600
   # of shells in Aux-J                     ...    200
   Maximum angular momentum in Aux-J        ...      4
Auxiliary J/K fitting basis                 ... NOT available
Auxiliary Correlation fitting basis         ... NOT available
Auxiliary 'external' fitting basis          ... NOT available

Checking pre-screening integrals            ... done (  0.0 sec) Dimension = 80
Check shell pair data                       ... done (  0.0 sec)
Shell pair information
Shell pair cut-off parameter TPreSel        ...   1.0e-10
Total number of shell pairs                 ...      3240
Shell pairs after pre-screening             ...      3063
Total number of primitive shell pairs       ...     13040
Primitive shell pairs kept                  ...      8608
          la=0 lb=0:   1195 shell pairs
          la=1 lb=0:    959 shell pairs
          la=1 lb=1:    207 shell pairs
          la=2 lb=0:    456 shell pairs
          la=2 lb=1:    194 shell pairs
          la=2 lb=2:     52 shell pairs

Calculating one electron integrals          ... done (  0.0 sec)
Calculating RI/J V-Matrix + Cholesky decomp.... done (  0.0 sec)
Calculating Nuclear repulsion               ... done (  0.0 sec) ENN=    636.073304647764 Eh

Diagonalization of the overlap matrix:
Smallest eigenvalue                        ... 5.298e-04
Time for diagonalization                   ...    0.002 sec
Threshold for overlap eigenvalues          ... 1.000e-07
Number of eigenvalues below threshold      ... 0
Time for construction of square roots      ...    0.001 sec
Total time needed                          ...    0.004 sec

-------------------
DFT GRID GENERATION
-------------------

General Integration Accuracy     IntAcc      ... 4.159
Radial Grid Type                 RadialGrid  ... OptM3 with GC (2021)
Angular Grid (max. ang.)         AngularGrid ... 3 (Lebedev-194)
Angular grid pruning method      GridPruning ... 4 (adaptive)
Weight generation scheme         WeightScheme... mBecke (2022)
Basis function cutoff            BFCut       ... 1.0000e-10
Integration weight cutoff        WCut        ... 1.0000e-14
Partially contracted basis set               ... off
Rotationally invariant grid construction     ... off
Angular grids for H and He will be reduced by one unit

Total number of grid points                  ...    46495
Total number of batches                      ...      736
Average number of points per batch           ...       63
Average number of grid points per atom       ...     2325
Initializing property integral containers    ... done (  0.0 sec)

SHARK setup successfully completed in   0.3 seconds

Maximum memory used throughout the entire STARTUP-calculation: 23.9 MB
-------------------------------------------------------------------------------
                                 ORCA GUESS
                   Start orbitals & Density for SCF / CASSCF
-------------------------------------------------------------------------------

------------
SCF SETTINGS
------------
Hamiltonian:
 Density Functional     Method          .... DFT(GTOs)
 Exchange Functional    Exchange        .... PBE
   PBE kappa parameter   XKappa         ....  0.804000
   PBE mue parameter    XMuePBE         ....  0.219520
 Correlation Functional Correlation     .... PBE
   PBE beta parameter  CBetaPBE         ....  0.066725
 LDA part of GGA corr.  LDAOpt          .... PW91-LDA
 Gradients option       PostSCFGGA      .... off
   NL short-range parameter             ....  6.400000
 RI-approximation to the Coulomb term is turned on
   Number of AuxJ basis functions       .... 600


General Settings:
 Integral files         IntName         .... sp
 Hartree-Fock type      HFTyp           .... RHF
 Total Charge           Charge          ....    0
 Multiplicity           Mult            ....    1
 Number of Electrons    NEL             ....   80
 Basis Dimension        Dim             ....  160
 Nuclear Repulsion      ENuc            ....    636.0733046478 Eh

Convergence Acceleration:
 AO-DIIS                CNVDIIS         .... on
   Start iteration      DIISMaxIt       ....    12
   Startup error        DIISStart       ....  0.200000
   # of expansion vecs  DIISMaxEq       ....     5
   Bias factor          DIISBfac        ....   1.050
   Max. coefficient     DIISMaxC        ....  10.000
 MO-DIIS                CNVKDIIS        .... off
 Trust-Rad. Augm. Hess. CNVTRAH         .... auto
   Auto Start mean grad. ratio tolernc. ....  1.125000
   Auto Start start iteration           ....     1
   Auto Start num. interpolation iter.  ....    10
   Max. Number of Micro iterations      ....    24
   Max. Number of Macro iterations      .... Maxiter - #DIIS iter
   Number of Davidson start vectors     ....     2
   Converg. threshold    (grad. norm)   ....   1.000e-04
   Grad. Scal. Fac. for Micro threshold ....   0.100
   Minimum threshold for Micro iter.    ....   1.000e-02
   NR start threshold (gradient norm)   ....   1.000e-04
   Initial trust radius                 ....   0.400
   Minimum AH scaling param. (alpha)    ....   1.000
   Maximum AH scaling param. (alpha)    .... 1000.000
   Quad. conv. algorithm                .... NR
   White noise on init. David. guess    .... on
   Maximum white noise                  ....   0.010
   Pseudo random numbers                .... off
   Inactive MOs                         .... canonical
   Orbital update algorithm             .... Taylor
   Preconditioner                       .... Diag
   Full preconditioner red. dimension   ....   250
 SOSCF                  CNVSOSCF        .... on
   Start iteration      SOSCFMaxIt      ....   150
   Startup grad/error   SOSCFStart      ....  0.003300
   Hessian update       SOSCFHessUp     .... L-BFGS
 Level Shifting         CNVShift        .... on
   Level shift para.    LevelShift      ....    0.2500
   Turn off err/grad.   ShiftErr        ....    0.0010
 Zerner damping         CNVZerner       .... off
 Static damping         CNVDamp         .... on
   Fraction old density DampFac         ....    0.7000
   Max. Damping (<1)    DampMax         ....    0.9800
   Min. Damping (>=0)   DampMin         ....    0.0000
   Turn off err/grad.   DampErr         ....    0.1000

SCF Procedure:
 Maximum # iterations   MaxIter         ....   125
 SCF integral mode      SCFMode         .... Direct
   Integral package                     .... SHARK and LIBINT hybrid scheme
 Reset frequency        DirectResetFreq ....    20
 Integral Threshold     Thresh          ....  1.000e-09 Eh
 Primitive CutOff       TCut            ....  1.000e-10 Eh

Convergence Tolerance:
 Convergence Check Mode ConvCheckMode   .... Total+1el-Energy
 Convergence forced     ConvForced      .... 0
 Energy Change          TolE            ....  1.000e-05 Eh
 1-El. energy change                    ....  1.000e-02 Eh
 Orbital Gradient       TolG            ....  1.000e-04
 Orbital Rotation angle TolX            ....  1.000e-04
 DIIS Error             TolErr          ....  5.000e-04

---------------------
INITIAL GUESS: MOREAD
---------------------
Guess MOs are being read from file: sp.ges
Input Geometry matches current geometry (good)
Input basis set matches current basis set (good)
Occupation numbers will be reassigned to an Aufbau configuration
MOs were renormalized
MOs were reorthogonalized (Cholesky)
                      ------------------
                      INITIAL GUESS DONE (   0.0 sec)
                      ------------------
             **** ENERGY FILE WAS UPDATED (sp.en.tmp) ****
Finished Guess after   0.0 sec
Maximum memory used throughout the entire GUESS-calculation: 11.8 MB

-------------------------------------------------------------------------------------------
                                      ORCA LEAN-SCF
                              memory conserving SCF solver
-------------------------------------------------------------------------------------------

----------------------------------------D-I-I-S--------------------------------------------
Iteration    Energy (Eh)           Delta-E    RMSDP     MaxDP     DIISErr   Damp  Time(sec)
-------------------------------------------------------------------------------------------
               ***  Starting incremental Fock matrix formation  ***
                              *** Initializing SOSCF ***
---------------------------------------S-O-S-C-F--------------------------------------
Iteration    Energy (Eh)           Delta-E    RMSDP     MaxDP     MaxGrad    Time(sec)
--------------------------------------------------------------------------------------
    1    -571.5222553264690077     0.00e+00  1.69e-05  3.06e-04  2.01e-05     0.4
               *** Restarting incremental Fock matrix formation ***
    2    -571.5222554145844924    -8.81e-08  3.20e-05  1.08e-03  6.85e-05     0.4
    3    -571.5222548606940336     5.54e-07  2.06e-05  7.00e-04  1.33e-04     0.3
                 **** Energy Check signals convergence ****

               *****************************************************
               *                     SUCCESS                       *
               *           SCF CONVERGED AFTER   3 CYCLES          *
               *****************************************************

             **** ENERGY FILE WAS UPDATED (sp.en.tmp) ****

----------------
TOTAL SCF ENERGY
----------------

Total Energy       :       -571.52225486069403 Eh          -15551.91120 eV

Components:
Nuclear Repulsion  :        636.07330464776430 Eh           17308.43456 eV
Electronic Energy  :      -1207.59555950845834 Eh          -32860.34576 eV
One Electron Energy:      -2046.13950652559834 Eh          -55678.28660 eV
Two Electron Energy:        838.54394701714011 Eh           22817.94084 eV

Virial components:
Potential Energy   :      -1139.14516402950176 Eh          -30997.71581 eV
Kinetic Energy     :        567.62290916880784 Eh           15445.80461 eV
Virial Ratio       :          2.00686960591072

DFT components:
N(Alpha)           :       39.999794366862 electrons
N(Beta)            :       39.999794366862 electrons
N(Total)           :       79.999588733723 electrons
E(X)               :      -70.506248512566 Eh       
E(C)               :       -2.737602668159 Eh       
E(XC)              :      -73.243851180725 Eh       

---------------
SCF CONVERGENCE
---------------

  Last Energy change         ...   -5.5389e-07  Tolerance :   1.0000e-05
  Last MAX-Density change    ...    7.0039e-04  Tolerance :   1.0000e-03
  Last RMS-Density change    ...    2.0571e-05  Tolerance :   1.0000e-04
  Last DIIS Error            ...    2.6072e-04  Tolerance :   5.0000e-04
  Last Orbital Gradient      ...    1.3291e-04  Tolerance :   1.0000e-04
  Last Orbital Rotation      ...    8.4926e-05  Tolerance :   1.0000e-04


----------------
ORBITAL ENERGIES
----------------

  NO   OCC          E(Eh)            E(eV) 
   0   2.0000     -18.790506      -511.3157 
   1   2.0000     -18.769135      -510.7341 
   2   2.0000     -18.762342      -510.5493 
   3   2.0000     -18.746472      -510.1174 
   4   2.0000     -18.740781      -509.9626 
   5   2.0000      -9.979300      -271.5506 
   6   2.0000      -9.959642      -271.0156 
   7   2.0000      -9.948637      -270.7162 
   8   2.0000      -9.947890      -270.6959 
   9   2.0000      -9.935893      -270.3694 
  10   2.0000      -0.984918       -26.8010 
  11   2.0000      -0.956746       -26.0344 
  12   2.0000      -0.941447       -25.6181 
  13   2.0000      -0.922953       -25.1148 
  14   2.0000      -0.901213       -24.5233 
  15   2.0000      -0.709765       -19.3137 
  16   2.0000      -0.674706       -18.3597 
  17   2.0000      -0.599533       -16.3141 
  18   2.0000      -0.590724       -16.0744 
  19   2.0000      -0.527660       -14.3584 
  20   2.0000      -0.505067       -13.7436 
  21   2.0000      -0.492324       -13.3968 
  22   2.0000      -0.463223       -12.6049 
  23   2.0000      -0.455499       -12.3947 
  24   2.0000      -0.444606       -12.0983 
  25   2.0000      -0.421737       -11.4760 
  26   2.0000      -0.400146       -10.8885 
  27   2.0000      -0.390012       -10.6128 
  28   2.0000      -0.379411       -10.3243 
  29   2.0000      -0.363918        -9.9027 
  30   2.0000      -0.328476        -8.9383 
  31   2.0000      -0.311718        -8.4823 
  32   2.0000      -0.305750        -8.3199 
  33   2.0000      -0.294847        -8.0232 
  34   2.0000      -0.276365        -7.5203 
  35   2.0000      -0.258777        -7.0417 
  36   2.0000      -0.241902        -6.5825 
  37   2.0000      -0.231555        -6.3009 
  38   2.0000      -0.219145        -5.9632 
  39   2.0000      -0.206865        -5.6291 
  40   0.0000       0.003341         0.0909 
  41   0.0000       0.018634         0.5071 
  42   0.0000       0.053982         1.4689 
  43   0.0000       0.062486         1.7003 
  44   0.0000       0.072435         1.9711 
  45   0.0000       0.077927         2.1205 
  46   0.0000       0.081858         2.2275 
  47   0.0000       0.098414         2.6780 
  48   0.0000       0.109052         2.9674 
  49   0.0000       0.119839         3.2610 
  50   0.0000       0.133370         3.6292 
*Only the first 10 virtual orbitals were printed.

                    ********************************
                    * MULLIKEN POPULATION ANALYSIS *
                    ********************************

-----------------------
MULLIKEN ATOMIC CHARGES
-----------------------
   0 C :    0.034477
   1 C :    0.002536
   2 H :    0.062239
   3 C :    0.056071
   4 H :    0.066701
   5 C :    0.043476
   6 H :    0.079685
   7 C :    0.154781
   8 H :    0.078660
   9 O :   -0.301009
  10 O :   -0.423428
  11 O :   -0.414316
  12 O :   -0.406088
  13 O :   -0.422781
  14 H :    0.095706
  15 H :    0.088969
  16 H :    0.291159
  17 H :    0.295674
  18 H :    0.301640
  19 H :    0.315848
Sum of atomic charges:   -0.0000000

--------------------------------
MULLIKEN REDUCED ORBITAL CHARGES
--------------------------------
  0 C s       :     3.033486  s :     3.033486
      pz      :     1.044648  p :     2.869609
      px      :     0.793566
      py      :     1.031395
      dz2     :     0.011342  d :     0.062428
      dxz     :     0.012467
      dyz     :     0.008416
      dx2y2   :     0.013956
      dxy     :     0.016246

  1 C s       :     3.059765  s :     3.059765
      pz      :     0.790528  p :     2.871235
      px      :     1.066514
      py      :     1.014192
      dz2     :     0.019521  d :     0.066465
      dxz     :     0.013257
      dyz     :     0.016294
      dx2y2   :     0.010068
      dxy     :     0.007325

  2 H s       :     0.937761  s :     0.937761

  3 C s       :     3.043086  s :     3.043086
      pz      :     0.942722  p :     2.833975
      px      :     0.999085
      py      :     0.892169
      dz2     :     0.015963  d :     0.066868
      dxz     :     0.009905
      dyz     :     0.013825
      dx2y2   :     0.014117
      dxy     :     0.013058

  4 H s       :     0.933299  s :     0.933299

  5 C s       :     3.037021  s :     3.037021
      pz      :     1.046804  p :     2.851876
      px      :     0.903495
      py      :     0.901577
      dz2     :     0.016354  d :     0.067627
      dxz     :     0.009033
      dyz     :     0.009163
      dx2y2   :     0.018702
      dxy     :     0.014375

  6 H s       :     0.920315  s :     0.920315

  7 C s       :     3.033308  s :     3.033308
      pz      :     0.798170  p :     2.711788
      px      :     1.027235
      py      :     0.886384
      dz2     :     0.028614  d :     0.100124
      dxz     :     0.018349
      dyz     :     0.023288
      dx2y2   :     0.015894
      dxy     :     0.013978

  8 H s       :     0.921340  s :     0.921340

  9 O s       :     3.739940  s :     3.739940
      pz      :     1.712379  p :     4.545584
      px      :     1.254654
      py      :     1.578551
      dz2     :     0.002291  d :     0.015485
      dxz     :     0.001963
      dyz     :     0.002595
      dx2y2   :     0.004002
      dxy     :     0.004634

 10 O s       :     3.772774  s :     3.772774
      pz      :     1.295501  p :     4.635609
      px      :     1.488112
      py      :     1.851996
      dz2     :     0.004342  d :     0.015044
      dxz     :     0.003803
      dyz     :     0.001615
      dx2y2   :     0.004535
      dxy     :     0.000748

 11 O s       :     3.782154  s :     3.782154
      pz      :     1.358767  p :     4.616342
      px      :     1.645561
      py      :     1.612014
      dz2     :     0.003860  d :     0.015820
      dxz     :     0.001185
      dyz     :     0.004904
      dx2y2   :     0.002374
      dxy     :     0.003495

 12 O s       :     3.785525  s :     3.785525
      pz      :     1.581373  p :     4.604936
      px      :     1.417010
      py      :     1.606554
      dz2     :     0.002802  d :     0.015627
      dxz     :     0.004417
      dyz     :     0.003673
      dx2y2   :     0.002649
      dxy     :     0.002085

 13 O s       :     3.784521  s :     3.784521
      pz      :     1.466615  p :     4.623105
      px      :     1.810265
      py      :     1.346225
      dz2     :     0.005776  d :     0.015155
      dxz     :     0.001923
      dyz     :     0.001855
      dx2y2   :     0.003236
      dxy     :     0.002365

 14 H s       :     0.904294  s :     0.904294

 15 H s       :     0.911031  s :     0.911031

 16 H s       :     0.708841  s :     0.708841

 17 H s       :     0.704326  s :     0.704326

 18 H s       :     0.698360  s :     0.698360

 19 H s       :     0.684152  s :     0.684152


------------------------
MULLIKEN OVERLAP CHARGES
------------------------
B(  0-C ,  1-C ) :   0.6778 B(  0-C ,  7-C ) :  -0.1666 B(  0-C ,  9-O ) :   0.6830 
B(  0-C , 14-H ) :   0.6973 B(  0-C , 15-H ) :   0.6499 B(  1-C ,  2-H ) :   0.5807 
B(  1-C ,  3-C ) :   0.1147 B(  1-C ,  4-H ) :  -0.0740 B(  1-C ,  9-O ) :  -0.0883 
B(  1-C , 12-O ) :  -0.0891 B(  1-C , 13-O ) :   0.4329 B(  1-C , 14-H ) :  -0.0969 
B(  1-C , 19-H ) :  -0.0671 B(  3-C ,  4-H ) :   0.5850 B(  3-C ,  5-C ) :  -0.1058 
B(  3-C ,  7-C ) :   0.0786 B(  3-C ,  9-O ) :  -0.0515 B(  3-C , 11-O ) :  -0.1428 
B(  3-C , 12-O ) :   0.5957 B(  3-C , 13-O ) :  -0.0913 B(  3-C , 18-H ) :  -0.0661 
B(  5-C ,  6-H ) :   0.5681 B(  5-C ,  7-C ) :   0.3808 B(  5-C ,  8-H ) :  -0.0850 
B(  5-C , 10-O ) :  -0.0846 B(  5-C , 11-O ) :   0.6652 B(  5-C , 12-O ) :  -0.1069 
B(  5-C , 17-H ) :  -0.1014 B(  6-H , 11-O ) :  -0.0614 B(  7-C ,  8-H ) :   0.6944 
B(  7-C ,  9-O ) :   0.5924 B(  7-C , 10-O ) :   0.6045 B(  7-C , 16-H ) :  -0.0906 
B(  8-H ,  9-O ) :  -0.0548 B(  8-H , 10-O ) :  -0.0887 B(  9-O , 10-O ) :  -0.1280 
B(  9-O , 14-H ) :  -0.0632 B(  9-O , 15-H ) :  -0.0623 B( 10-O , 16-H ) :   0.5126 
B( 10-O , 17-H ) :   0.0822 B( 11-O , 17-H ) :   0.5292 B( 12-O , 18-H ) :   0.5168 
B( 13-O , 16-H ) :   0.1415 B( 13-O , 19-H ) :   0.5105 B( 14-H , 15-H ) :  -0.0857 



                     *******************************
                     * LOEWDIN POPULATION ANALYSIS *
                     *******************************

----------------------
LOEWDIN ATOMIC CHARGES
----------------------
   0 C :   -0.123696
   1 C :   -0.094385
   2 H :    0.105249
   3 C :   -0.069555
   4 H :    0.107250
   5 C :   -0.086017
   6 H :    0.123858
   7 C :   -0.011457
   8 H :    0.111370
   9 O :   -0.152321
  10 O :   -0.325848
  11 O :   -0.311812
  12 O :   -0.310255
  13 O :   -0.307018
  14 H :    0.113574
  15 H :    0.111693
  16 H :    0.262522
  17 H :    0.274457
  18 H :    0.287471
  19 H :    0.294919

-------------------------------
LOEWDIN REDUCED ORBITAL CHARGES
-------------------------------
  0 C s       :     2.923224  s :     2.923224
      pz      :     1.091884  p :     3.058615
      px      :     0.879020
      py      :     1.087711
      dz2     :     0.025932  d :     0.141856
      dxz     :     0.027330
      dyz     :     0.022958
      dx2y2   :     0.029595
      dxy     :     0.036040

  1 C s       :     2.905262  s :     2.905262
      pz      :     0.889773  p :     3.033918
      px      :     1.087283
      py      :     1.056861
      dz2     :     0.044974  d :     0.155204
      dxz     :     0.029663
      dyz     :     0.037268
      dx2y2   :     0.023088
      dxy     :     0.020211

  2 H s       :     0.894751  s :     0.894751

  3 C s       :     2.900916  s :     2.900916
      pz      :     1.013414  p :     3.013247
      px      :     1.038836
      py      :     0.960997
      dz2     :     0.037983  d :     0.155392
      dxz     :     0.021130
      dyz     :     0.031209
      dx2y2   :     0.034512
      dxy     :     0.030560

  4 H s       :     0.892750  s :     0.892750

  5 C s       :     2.898430  s :     2.898430
      pz      :     1.060810  p :     3.029951
      px      :     0.980472
      py      :     0.988669
      dz2     :     0.038815  d :     0.157636
      dxz     :     0.018845
      dyz     :     0.020574
      dx2y2   :     0.047593
      dxy     :     0.031809

  6 H s       :     0.876142  s :     0.876142

  7 C s       :     2.883791  s :     2.883791
      pz      :     0.885144  p :     2.902825
      px      :     1.041918
      py      :     0.975763
      dz2     :     0.068403  d :     0.224840
      dxz     :     0.037511
      dyz     :     0.049411
      dx2y2   :     0.036977
      dxy     :     0.032538

  8 H s       :     0.888630  s :     0.888630

  9 O s       :     3.465415  s :     3.465415
      pz      :     1.725278  p :     4.656842
      px      :     1.324755
      py      :     1.606809
      dz2     :     0.003767  d :     0.030064
      dxz     :     0.004310
      dyz     :     0.004345
      dx2y2   :     0.008210
      dxy     :     0.009433

 10 O s       :     3.531364  s :     3.531364
      pz      :     1.379577  p :     4.768010
      px      :     1.546554
      py      :     1.841879
      dz2     :     0.009506  d :     0.026474
      dxz     :     0.006754
      dyz     :     0.002697
      dx2y2   :     0.006708
      dxy     :     0.000809

 11 O s       :     3.530451  s :     3.530451
      pz      :     1.426357  p :     4.753763
      px      :     1.677320
      py      :     1.650087
      dz2     :     0.007005  d :     0.027598
      dxz     :     0.002741
      dyz     :     0.008510
      dx2y2   :     0.003254
      dxy     :     0.006088

 12 O s       :     3.537040  s :     3.537040
      pz      :     1.647599  p :     4.745725
      px      :     1.471610
      py      :     1.626516
      dz2     :     0.004255  d :     0.027490
      dxz     :     0.007400
      dyz     :     0.006575
      dx2y2   :     0.004831
      dxy     :     0.004429

 13 O s       :     3.533361  s :     3.533361
      pz      :     1.520828  p :     4.746869
      px      :     1.816746
      py      :     1.409295
      dz2     :     0.010415  d :     0.026788
      dxz     :     0.002812
      dyz     :     0.004024
      dx2y2   :     0.005598
      dxy     :     0.003939

 14 H s       :     0.886426  s :     0.886426

 15 H s       :     0.888307  s :     0.888307

 16 H s       :     0.737478  s :     0.737478

 17 H s       :     0.725543  s :     0.725543

 18 H s       :     0.712529  s :     0.712529

 19 H s       :     0.705081  s :     0.705081


---------------------------------
LOEWDIN BOND ORDERS (THRESH 0.050000)
---------------------------------
B(  0-C ,  1-C ) :   1.0733 B(  0-C ,  3-C ) :   0.0538 B(  0-C ,  7-C ) :   0.0621 
B(  0-C ,  9-O ) :   1.1679 B(  0-C , 13-O ) :   0.0703 B(  0-C , 14-H ) :   0.8941 
B(  0-C , 15-H ) :   0.9093 B(  1-C ,  2-H ) :   0.8686 B(  1-C ,  3-C ) :   1.0126 
B(  1-C ,  5-C ) :   0.0501 B(  1-C ,  9-O ) :   0.0624 B(  1-C , 12-O ) :   0.0868 
B(  1-C , 13-O ) :   1.1846 B(  3-C ,  4-H ) :   0.8724 B(  3-C ,  5-C ) :   1.0069 
B(  3-C ,  7-C ) :   0.0530 B(  3-C , 11-O ) :   0.0803 B(  3-C , 12-O ) :   1.2237 
B(  3-C , 13-O ) :   0.0567 B(  5-C ,  6-H ) :   0.8677 B(  5-C ,  7-C ) :   1.0168 
B(  5-C ,  9-O ) :   0.0584 B(  5-C , 10-O ) :   0.0809 B(  5-C , 11-O ) :   1.2451 
B(  5-C , 12-O ) :   0.0642 B(  7-C ,  8-H ) :   0.8852 B(  7-C ,  9-O ) :   1.1996 
B(  7-C , 10-O ) :   1.2540 B(  7-C , 11-O ) :   0.0841 B(  9-O , 10-O ) :   0.0862 
B( 10-O , 16-H ) :   0.8316 B( 10-O , 17-H ) :   0.0578 B( 11-O , 17-H ) :   0.8613 
B( 12-O , 18-H ) :   0.8833 B( 13-O , 16-H ) :   0.1066 B( 13-O , 19-H ) :   0.8755 


------------------------------------------
LOEWDIN REDUCED ORBITAL POPULATIONS PER MO
-------------------------------------------
THRESHOLD FOR PRINTING IS 0.1%%
                      0         1         2         3         4         5   
                 -18.79051 -18.76913 -18.76234 -18.74647 -18.74078  -9.97930
                   2.00000   2.00000   2.00000   2.00000   2.00000   2.00000
                  --------  --------  --------  --------  --------  --------
 7 C  s               0.0       0.0       0.0       0.0       0.0      99.6
 9 O  s               0.0      99.9       0.0       0.0       0.0       0.0
10 O  s               0.0       0.0       0.0      99.9       0.0       0.0
10 O  pz              0.0       0.0       0.0       0.0       0.0       0.1
11 O  s               0.0       0.0       0.0       0.0      99.9       0.0
12 O  s               0.0       0.0      99.9       0.0       0.0       0.0
13 O  s              99.9       0.0       0.0       0.0       0.0       0.0

                      6         7         8         9        10        11   
                  -9.95964  -9.94864  -9.94789  -9.93589  -0.98492  -0.95675
                   2.00000   2.00000   2.00000   2.00000   2.00000   2.00000
                  --------  --------  --------  --------  --------  --------
 0 C  s               0.0      99.6       0.1       0.0       5.0       0.3
 0 C  pz              0.1       0.0       0.0       0.0       1.1       0.2
 0 C  px              0.0       0.0       0.0       0.0       2.3       2.2
 0 C  py              0.0       0.0       0.0       0.0       0.0       0.3
 0 C  dx2y2           0.0       0.0       0.0       0.0       0.1       0.1
 1 C  s              99.6       0.0       0.0       0.0       4.9       5.8
 1 C  pz              0.0       0.1       0.0       0.0       0.9       5.9
 1 C  px              0.0       0.0       0.0       0.0       0.6       0.0
 1 C  py              0.0       0.0       0.1       0.0       0.7       0.7
 1 C  dz2             0.0       0.0       0.0       0.0       0.1       0.3
 1 C  dyz             0.0       0.0       0.0       0.0       0.1       0.3
 2 H  s               0.1       0.0       0.0       0.0       0.6       0.7
 3 C  s               0.0       0.1      99.5       0.0       1.5       0.5
 3 C  px              0.0       0.0       0.0       0.1       0.0       0.7
 3 C  py              0.1       0.0       0.0       0.0       0.4       0.1
 4 H  s               0.0       0.0       0.1       0.0       0.3       0.1
 5 C  s               0.0       0.0       0.0      99.6       2.2       0.6
 5 C  pz              0.0       0.0       0.0       0.0       0.3       0.1
 5 C  px              0.0       0.0       0.1       0.0       0.0       0.4
 5 C  py              0.0       0.0       0.0       0.0       0.6       0.3
 6 H  s               0.0       0.0       0.0       0.1       0.3       0.1
 7 C  s               0.0       0.0       0.0       0.0      10.5       5.1
 7 C  pz              0.0       0.0       0.0       0.0       0.2       0.2
 7 C  px              0.0       0.0       0.0       0.0       1.7       0.4
 7 C  py              0.0       0.0       0.0       0.1       1.1       0.5
 7 C  dxy             0.0       0.0       0.0       0.0       0.1       0.1
 8 H  s               0.0       0.0       0.0       0.0       1.2       0.6
 9 O  s               0.0       0.0       0.0       0.0      22.2       9.5
 9 O  pz              0.0       0.0       0.0       0.0       0.2       0.1
 9 O  py              0.0       0.0       0.0       0.0       1.4       0.6
10 O  s               0.0       0.0       0.0       0.0      10.8       6.1
10 O  pz              0.0       0.0       0.0       0.0       0.8       0.5
10 O  px              0.0       0.0       0.0       0.0       0.5       0.1
11 O  s               0.0       0.0       0.0       0.0       1.4       1.1
11 O  py              0.0       0.0       0.0       0.1       0.2       0.1
12 O  s               0.0       0.0       0.0       0.0       1.1       0.9
13 O  s               0.0       0.0       0.0       0.0      14.6      42.1
13 O  pz              0.1       0.0       0.0       0.0       0.8       1.5
13 O  px              0.0       0.0       0.0       0.0       0.0       0.2
13 O  py              0.0       0.0       0.0       0.0       0.1       0.5
14 H  s               0.0       0.1       0.0       0.0       0.6       0.0
15 H  s               0.0       0.1       0.0       0.0       0.6       0.0
16 H  s               0.0       0.0       0.0       0.0       3.5       0.5
17 H  s               0.0       0.0       0.0       0.0       0.5       0.4
18 H  s               0.0       0.0       0.0       0.0       0.2       0.2
19 H  s               0.0       0.0       0.0       0.0       3.0       8.5

                     12        13        14        15        16        17   
                  -0.94145  -0.92295  -0.90121  -0.70977  -0.67471  -0.59953
                   2.00000   2.00000   2.00000   2.00000   2.00000   2.00000
                  --------  --------  --------  --------  --------  --------
 0 C  s               0.2       2.0       2.4       7.6      13.6       4.0
 0 C  pz              0.0       0.1       0.1       0.4       0.0       1.4
 0 C  px              0.2       1.4       1.4       1.9       0.3       0.5
 0 C  py              0.1       0.1       0.1       2.5       0.5       1.3
 1 C  s               0.0       0.1       0.1      16.7       1.0       8.6
 1 C  pz              0.4       0.5       0.1       2.7       2.0       1.0
 1 C  px              0.0       0.1       0.1       1.2       0.1       1.0
 1 C  py              1.9       0.0       0.1       1.0       2.7       1.8
 1 C  dyz             0.0       0.0       0.0       0.1       0.1       0.0
 2 H  s               0.1       0.0       0.0       3.1       0.4       3.5
 3 C  s               9.3       0.2       0.0      11.4       3.8       0.0
 3 C  pz              3.3       0.4       0.0       0.1       0.0       1.7
 3 C  px              0.8       1.7       0.4       0.1       2.8       7.1
 3 C  py              3.7       0.3       0.1       5.5       0.0       1.6
 3 C  dxz             0.2       0.0       0.0       0.0       0.0       0.0
 3 C  dyz             0.3       0.0       0.0       0.1       0.0       0.0
 3 C  dxy             0.2       0.0       0.0       0.1       0.0       0.1
 4 H  s               1.1       0.0       0.0       1.9       0.8       0.1
 5 C  s               2.4       5.3       1.9       3.3      10.7       8.5
 5 C  pz              0.2       2.1       0.2       0.0       0.2       1.1
 5 C  px              0.3       3.4       0.7       3.5       0.7       0.6
 5 C  py              1.0       2.0       1.4       0.2       2.4       0.2
 5 C  dxz             0.0       0.2       0.1       0.0       0.0       0.0
 5 C  dyz             0.0       0.1       0.1       0.0       0.0       0.0
 5 C  dxy             0.0       0.2       0.1       0.0       0.1       0.0
 6 H  s               0.5       0.5       0.2       0.6       2.5       3.7
 7 C  s               0.0       0.1       0.8       0.2      10.6       1.1
 7 C  pz              0.0       2.5      10.1       0.1       2.3       0.0
 7 C  px              0.0       0.8       0.8       0.3       0.1       0.3
 7 C  py              0.7       3.1       0.0       2.4       0.9       4.6
 7 C  dz2             0.0       0.1       0.8       0.0       0.1       0.0
 7 C  dyz             0.0       0.1       0.1       0.0       0.0       0.1
 7 C  dxy             0.0       0.1       0.1       0.1       0.0       0.1
 8 H  s               0.0       0.0       0.1       0.1       2.6       0.6
 9 O  s               1.3      11.3      10.0       3.3       0.0       0.4
 9 O  pz              0.0       0.0       0.1       0.1       1.2       1.7
 9 O  px              0.0       0.3       0.6       1.8       9.9       7.1
 9 O  py              0.0       0.3       0.2       0.0       1.4       0.3
10 O  s               0.1       5.3      37.2       0.0       2.9       0.3
10 O  pz              0.0       0.1       0.4       0.0       2.6       1.1
10 O  px              0.0       0.1       1.3       0.0       0.4       0.3
11 O  s               4.8      35.0      15.2       1.2       3.2       1.4
11 O  pz              0.0       0.2       0.1       0.3       1.7       3.8
11 O  px              0.1       0.3       0.1       0.3       0.9       2.1
11 O  py              0.3       1.8       0.6       0.0       0.3       0.3
12 O  s              49.4       5.8       1.1       3.7       0.6       0.0
12 O  pz              2.4       0.2       0.0       0.2       0.1       0.0
12 O  px              0.3       0.1       0.0       1.6       1.2       1.6
12 O  py              0.3       0.0       0.0       1.8       0.5       0.0
13 O  s               2.0       0.8       0.0       3.8       0.4       0.6
13 O  pz              0.0       0.0       0.0       2.2       0.2       4.3
13 O  px              0.0       0.0       0.0       0.2       0.0       0.1
13 O  py              0.1       0.0       0.0       3.2       0.0       8.9
13 O  dz2             0.0       0.0       0.0       0.1       0.0       0.1
14 H  s               0.0       0.2       0.3       1.9       2.6       1.6
15 H  s               0.0       0.2       0.3       1.3       4.1       1.9
16 H  s               0.0       1.1       7.3       0.0       1.3       0.6
17 H  s               0.9       7.5       2.3       0.4       1.7       2.1
18 H  s              10.1       1.2       0.2       2.1       0.7       0.3
19 H  s               0.4       0.1       0.0       2.6       0.1       3.8

                     18        19        20        21        22        23   
                  -0.59072  -0.52766  -0.50507  -0.49232  -0.46322  -0.45550
                   2.00000   2.00000   2.00000   2.00000   2.00000   2.00000
                  --------  --------  --------  --------  --------  --------
 0 C  s               4.7       0.6       0.6       0.0       0.1       0.1
 0 C  pz              0.0       0.7       0.5       0.1       0.6      17.3
 0 C  px              4.3       1.2       2.5       0.1       1.7       1.2
 0 C  py              0.5       0.1       4.0       7.2       0.0       0.1
 0 C  dyz             0.0       0.0       0.0       0.0       0.0       0.1
 1 C  s               0.8       0.3       2.0       0.1       0.2       0.1
 1 C  pz              3.1       5.0       4.5       2.7       2.8       0.4
 1 C  px              0.9       0.2       3.7       6.0       1.9       2.5
 1 C  py              4.7       0.4       0.3       0.1       1.9       8.3
 1 C  dz2             0.0       0.1       0.0       0.0       0.2       0.0
 1 C  dyz             0.0       0.0       0.0       0.0       0.2       0.0
 2 H  s               0.8       0.0       4.1       1.2       2.3       0.8
 3 C  s               8.3       3.6       1.4       0.0       1.7       0.0
 3 C  pz              1.4       1.1       8.5       0.0      15.3       0.0
 3 C  px              0.1       0.7       0.2       0.3       0.2       4.3
 3 C  py              0.3       1.4       0.1       4.2       0.2       0.2
 3 C  dyz             0.0       0.0       0.0       0.1       0.5       0.0
 4 H  s               4.0       0.5       4.6       0.2       8.2       0.0
 5 C  s               0.8       3.7       0.2       0.1       0.1       0.0
 5 C  pz              0.5       0.6       5.5       0.5       2.8       2.9
 5 C  px              4.7       1.5       0.1       1.8       0.2       2.1
 5 C  py              4.3       0.0       3.2       9.4       1.3       1.9
 5 C  dx2y2           0.1       0.1       0.0       0.0       0.0       0.0
 5 C  dxy             0.0       0.1       0.1       0.0       0.1       0.0
 6 H  s               0.4       1.9       2.4       0.6       0.7       1.0
 7 C  s               9.2       0.8       0.7       0.0       0.0       0.2
 7 C  pz              0.2       0.6       3.1       1.3       0.1       6.6
 7 C  px              2.7       2.4       1.4       7.6       0.0       3.7
 7 C  py              2.2       2.3       4.2       1.8       0.9       1.6
 7 C  dxy             0.1       0.0       0.1       0.0       0.0       0.0
 8 H  s               4.5       1.2       0.4       1.1       0.0       2.7
 9 O  s               3.6       0.0       0.2       1.5       0.2       0.1
 9 O  pz              0.0       0.1       1.4       0.4       0.1      12.1
 9 O  px              0.3       1.1       8.0       0.1       2.2       0.3
 9 O  py              0.9       0.0       0.8       6.3       0.1       0.0
10 O  s               0.7       0.0       0.3       0.8       0.0       0.5
10 O  pz              6.5       3.9       6.8       2.3       0.2       7.3
10 O  px              2.7       3.0       3.4       4.7       0.3       0.0
10 O  py              0.3       0.0       2.2       0.2       0.2       0.1
11 O  s               0.3       0.2       0.8       0.0       0.0       0.0
11 O  pz              0.4       5.9       3.6      11.3       3.5       0.2
11 O  px              0.0       1.6       0.2       3.3       3.7       1.9
11 O  py              0.5       0.4       0.5       0.0       0.0       0.1
12 O  s               0.9       0.3       0.1       0.0       2.5       0.2
12 O  pz              0.9       0.9       0.6       0.4       2.3       0.1
12 O  px              3.7       9.0       1.3       3.0      12.0       0.1
12 O  py              2.3       8.1       1.5       0.8       4.6       1.1
13 O  s               0.2       0.0       0.4       0.0       0.4       1.5
13 O  pz              0.3       3.7       0.1       2.5       4.0       3.9
13 O  px              0.5       1.8       0.5       1.2       1.4       0.2
13 O  py              0.7      11.6       2.2       4.0       6.6       3.3
14 H  s               2.0       0.9       0.0       0.3       0.2       5.8
15 H  s               1.9       0.6       0.8       1.6       0.4       0.0
16 H  s               3.2       2.1       2.8       1.8       0.1       1.5
17 H  s               0.1       2.2       0.9       3.9       2.0       0.4
18 H  s               2.1       5.2       0.8       1.1       4.7       0.0
19 H  s               0.1       5.1       0.5       1.0       3.2       0.2

                     24        25        26        27        28        29   
                  -0.44461  -0.42174  -0.40015  -0.39001  -0.37941  -0.36392
                   2.00000   2.00000   2.00000   2.00000   2.00000   2.00000
                  --------  --------  --------  --------  --------  --------
 0 C  s               3.2       0.2       0.0       0.1       0.2       0.1
 0 C  pz              4.0       2.0      11.7       1.5       0.0       0.0
 0 C  px              9.1       3.1       0.0       0.3       3.7       0.1
 0 C  py              0.2      11.5       0.9       0.1      13.5       0.1
 0 C  dz2             0.2       0.1       0.0       0.0       0.1       0.0
 0 C  dyz             0.0       0.0       0.1       0.0       0.0       0.0
 0 C  dx2y2           0.2       0.0       0.0       0.0       0.2       0.0
 0 C  dxy             0.4       0.0       0.0       0.0       0.0       0.1
 1 C  s               1.3       0.0       0.1       0.3       0.1       0.3
 1 C  pz              0.9       0.5       0.8       0.0       0.1       0.6
 1 C  px              4.5      10.0       9.5       1.3       0.1       0.4
 1 C  py              4.2       3.2       0.0       0.3       7.3       0.0
 1 C  dz2             0.4       0.1       0.2       0.0       0.1       0.0
 1 C  dx2y2           0.1       0.0       0.3       0.0       0.0       0.0
 2 H  s               6.1       2.9       3.1       0.4       0.1       0.0
 3 C  s               0.0       0.0       0.3       0.7       0.1       0.0
 3 C  pz              1.3       0.6       0.3       0.5       1.7       1.8
 3 C  px              2.0       0.9       8.9       4.2       0.0       3.3
 3 C  py              2.4       4.2       0.0       1.6       9.5       3.3
 3 C  dxz             0.0       0.0       0.1       0.2       0.0       0.1
 3 C  dyz             0.0       0.0       0.0       0.2       0.0       0.0
 3 C  dx2y2           0.0       0.0       0.2       0.0       0.1       0.0
 3 C  dxy             0.0       0.1       0.0       0.0       0.0       0.1
 4 H  s               1.5       0.9       0.2       0.4       2.1       2.4
 5 C  s               0.3       0.8       0.6       0.5       0.6       0.2
 5 C  pz              0.0       0.3       0.4       8.3       1.7      19.2
 5 C  px              0.6       0.1       8.7       6.8       0.9       0.5
 5 C  py              0.9       4.9       0.3       0.9       0.1       0.4
 5 C  dz2             0.0       0.0       0.1       0.2       0.0       0.1
 5 C  dxz             0.0       0.0       0.0       0.2       0.0       0.0
 5 C  dyz             0.0       0.0       0.0       0.0       0.1       0.1
 5 C  dx2y2           0.0       0.0       0.0       0.2       0.0       0.1
 5 C  dxy             0.0       0.4       0.0       0.0       0.0       0.0
 6 H  s               0.0       0.0       0.1       5.9       1.7       9.8
 7 C  s               0.5       0.3       0.5       0.9       0.0       0.1
 7 C  pz              2.3       3.4       3.1       1.1       1.1       1.0
 7 C  px              0.1       0.4       6.0       7.9       0.4       4.9
 7 C  py              5.4       3.4       0.5       1.9       0.4       0.1
 7 C  dz2             0.0       0.1       0.1       0.0       0.0       0.1
 7 C  dxz             0.0       0.0       0.2       0.0       0.0       0.0
 7 C  dyz             0.0       0.0       0.0       0.0       0.0       0.3
 8 H  s               1.3       0.1       6.2       3.0       0.3       2.8
 9 O  s               1.0       0.1       0.2       0.2       0.4       1.4
 9 O  pz              1.0       0.0       0.4       1.5       3.0       2.9
 9 O  px             11.1       0.2       1.1       0.1       0.7       2.1
 9 O  py              0.9       0.7       0.3       2.1      10.8       4.9
10 O  s               0.4       0.1       0.1       3.1       0.8       0.0
10 O  pz              0.5       6.1       3.0       3.1       2.3       4.2
10 O  px              1.4       3.2       0.3      10.4       1.0       0.3
10 O  py              1.6       0.8       0.2       1.1       0.3       0.7
11 O  s               0.2       1.6       0.1       0.0       0.0       1.3
11 O  pz              0.0       7.3       3.7       3.5       0.4       0.2
11 O  px              0.1       0.7       0.9       1.5       1.1       8.7
11 O  py              1.0       1.3       0.3       3.5       0.2       6.2
12 O  s               0.1       0.0       0.3       0.2       0.0       2.0
12 O  pz              0.0       0.7       3.0       0.8       3.8       9.8
12 O  px              1.1       1.3       0.1       1.9       2.8       0.2
12 O  py              0.9       0.1       2.7       5.1       0.6       0.0
13 O  s               0.7       1.6       0.2       0.8       0.9       0.0
13 O  pz              0.3       3.6       0.1       2.4       9.5       0.0
13 O  px              5.5       2.4       8.1       0.4       1.7       0.7
13 O  py              4.4       0.2       3.0       1.9       0.9       0.0
14 H  s               5.3       3.8       5.1       0.7       1.2       0.0
15 H  s               5.2       5.3       0.3       0.3       9.6       0.2
16 H  s               1.1       1.4       1.6       0.5       0.1       0.4
17 H  s               0.0       2.2       0.5       1.9       0.2       0.1
18 H  s               0.0       0.1       0.2       1.7       0.2       0.2
19 H  s               2.1       0.1       0.3       0.4       0.2       0.0

                     30        31        32        33        34        35   
                  -0.32848  -0.31172  -0.30575  -0.29485  -0.27636  -0.25878
                   2.00000   2.00000   2.00000   2.00000   2.00000   2.00000
                  --------  --------  --------  --------  --------  --------
 0 C  s               0.3       0.0       0.3       0.0       0.2       0.3
 0 C  pz              6.2       0.2       0.9       0.0       0.2       0.5
 0 C  px              0.3       1.9       0.4       0.7       1.9       0.4
 0 C  py              1.3       1.8       3.5       0.1       0.0       2.5
 0 C  dz2             0.1       0.0       0.1       0.0       0.0       0.0
 0 C  dxz             0.0       0.0       0.1       0.0       0.1       0.0
 0 C  dxy             0.1       0.0       0.6       0.0       0.0       0.1
 1 C  s               0.3       0.0       0.3       0.0       0.2       0.1
 1 C  pz              5.4       1.0       0.5       0.0       0.9       0.2
 1 C  px              3.0       0.3       0.2       0.7       0.1       2.8
 1 C  py              0.6       1.3       0.6       0.3       0.6       0.3
 1 C  dz2             0.0       0.1       0.0       0.0       0.0       0.2
 1 C  dxz             0.0       0.0       0.1       0.0       0.1       0.8
 1 C  dyz             0.5       0.0       0.0       0.1       0.0       0.1
 1 C  dx2y2           0.3       0.0       0.0       0.0       0.0       0.0
 1 C  dxy             0.3       0.0       0.0       0.0       0.0       0.1
 2 H  s               4.6       0.4       0.8       0.6       0.0       4.4
 3 C  s               0.6       0.3       0.1       0.1       0.0       0.2
 3 C  pz              0.6       0.8       0.7       8.3       0.1       0.4
 3 C  px              2.0       0.4       0.0       1.8       0.1       0.2
 3 C  py              3.0       1.3       1.0       0.2       0.0       0.3
 3 C  dz2             0.0       0.1       0.0       0.6       0.0       0.1
 3 C  dx2y2           0.0       0.0       0.0       0.2       0.0       0.1
 3 C  dxy             0.0       0.1       0.0       0.2       0.0       0.0
 4 H  s               1.5       0.3       0.7       6.6       0.0       0.3
 5 C  s               0.0       1.1       0.0       0.3       0.2       0.0
 5 C  pz              0.1       0.5       1.2       1.1       0.2       0.3
 5 C  px              0.2       0.5       0.3       6.2       0.2       0.1
 5 C  py              0.4       0.3       0.1       0.1       1.4       0.8
 5 C  dz2             0.0       0.3       0.2       0.1       0.2       0.1
 5 C  dx2y2           0.0       0.1       0.0       0.0       0.1       0.1
 6 H  s               0.1       1.7       2.2       1.4       0.6       0.8
 7 C  s               0.1       1.6       0.1       0.3       0.0       0.0
 7 C  pz              0.1       0.5       2.7       0.2       0.0       0.0
 7 C  px              1.6       0.8       1.6       1.5       1.6       0.3
 7 C  py              0.0       0.1       0.2       0.1       3.2       0.4
 7 C  dz2             0.0       0.0       0.0       0.0       0.2       0.1
 7 C  dxz             0.0       0.3       0.4       0.1       0.1       0.2
 7 C  dyz             0.0       0.0       0.0       0.0       0.5       0.0
 7 C  dx2y2           0.2       0.4       0.0       0.2       0.1       0.0
 7 C  dxy             0.0       0.1       0.0       0.2       0.0       0.0
 8 H  s               1.8       4.1       0.3       3.0       2.1       0.4
 9 O  s               0.1       1.6       1.7       0.3       1.6       0.5
 9 O  pz              0.9       1.1       1.1       1.3       7.5       1.7
 9 O  px              4.0       3.0       0.4       0.8       5.9       0.1
 9 O  py              0.9       2.5      19.1       0.0       1.3      11.0
10 O  s               0.1       1.3       3.9       0.6       0.5       0.1
10 O  pz              0.0       1.2       8.0       0.6       0.2       0.2
10 O  px              0.1      10.5      15.3       3.1       2.2       3.6
10 O  py              0.0       1.1       0.4       1.2      27.1       0.2
11 O  s               0.0       3.9       0.4       0.5       2.6       0.2
11 O  pz              0.6       2.2       0.7       1.2       5.1       2.1
11 O  px              0.1       0.4       0.9       3.8       1.9       5.6
11 O  py              0.4      19.0       0.9       7.0      19.7       0.0
12 O  s               0.3       2.1       0.0       4.9       0.0       0.0
12 O  pz              0.6      14.7       0.0      26.1       1.0       3.1
12 O  px              3.6       1.2       0.8       5.7       0.6       1.1
12 O  py              5.0       0.7       1.4       2.0       0.6       3.1
13 O  s               3.5       1.2       0.2       0.3       0.2       0.0
13 O  pz             28.9       1.5       2.1       0.0       0.4       1.8
13 O  px              2.0       1.8       9.6       0.5       3.1      40.0
13 O  py              6.8       1.2       2.9       0.3       0.0       5.5
14 H  s               2.0       0.1       2.0       0.2       0.6       0.1
15 H  s               1.1       0.2       5.2       0.1       0.1       0.6
16 H  s               0.7       1.2       1.5       0.6       0.4       0.4
17 H  s               0.1       1.9       0.4       0.2       1.7       0.2
18 H  s               0.1       0.6       0.0       2.5       0.0       0.1
19 H  s               1.8       0.7       0.0       0.4       0.1       0.0

                     36        37        38        39        40        41   
                  -0.24190  -0.23156  -0.21915  -0.20687   0.00334   0.01863
                   2.00000   2.00000   2.00000   2.00000   0.00000   0.00000
                  --------  --------  --------  --------  --------  --------
 0 C  s               0.3       0.0       0.0       0.0       1.8       0.1
 0 C  pz              1.7       0.4       2.6       0.0       0.9       0.4
 0 C  px              0.1       0.0       0.4       0.3       1.6       0.1
 0 C  py              0.4       1.4       0.1       0.2       1.6       0.1
 0 C  dz2             0.0       0.2       0.2       0.0       0.1       0.0
 0 C  dxz             0.0       0.1       0.6       0.0       0.0       0.0
 0 C  dyz             0.0       0.3       0.3       0.0       0.1       0.0
 0 C  dx2y2           0.0       0.0       0.1       0.1       0.0       0.1
 0 C  dxy             0.0       0.2       0.0       0.0       0.2       0.0
 1 C  s               0.2       1.3       0.0       0.4       0.9       1.3
 1 C  pz              0.1       0.2       1.2       0.1       3.0       0.2
 1 C  px              0.5       1.7       0.1       0.9       1.5       1.5
 1 C  py              1.5       2.6       4.9       0.4       0.7       0.6
 1 C  dz2             0.1       0.1       0.0       0.0       0.1       0.1
 1 C  dxz             0.2       0.0       0.0       0.0       0.0       0.1
 1 C  dyz             0.0       0.0       0.1       0.0       0.2       0.3
 1 C  dx2y2           0.1       0.0       0.0       0.1       0.3       0.0
 1 C  dxy             0.0       0.0       0.0       0.0       0.0       0.2
 2 H  s               1.8       0.6       0.3       0.9       5.8       4.1
 3 C  s               0.2       0.0       0.0       1.0       0.6       0.7
 3 C  pz              0.5       0.4       0.4       0.4       0.2       4.6
 3 C  px              0.6       1.1       0.3       6.5       0.1       0.7
 3 C  py              0.2       1.9       0.6       0.1       0.3       1.3
 3 C  dz2             0.3       0.3       0.2       0.0       0.0       0.1
 3 C  dxz             0.1       0.1       0.1       0.0       0.0       0.3
 3 C  dyz             0.1       0.1       0.1       0.0       0.3       0.5
 3 C  dx2y2           0.1       0.3       0.0       0.2       0.1       0.0
 3 C  dxy             0.0       0.2       0.1       0.0       0.2       0.2
 4 H  s               2.1       2.1       1.6       0.1       0.4       6.9
 5 C  s               0.3       0.4       0.1       0.1       0.2       0.1
 5 C  pz              1.5       0.9       0.1       0.2       0.1       0.3
 5 C  px              0.0       0.2       0.0       3.5       0.1       0.2
 5 C  py              2.8       3.8       0.6       3.6       0.1       0.1
 5 C  dz2             0.4       0.1       0.0       0.1       0.0       0.2
 5 C  dxz             0.0       0.1       0.0       0.0       0.0       0.4
 5 C  dx2y2           0.1       0.0       0.0       1.3       0.0       0.0
 6 H  s               2.8       0.9       0.1       0.4       0.6       0.7
 7 C  s               0.1       0.2       0.1       0.4       0.2       0.1
 7 C  pz              0.2       0.3       0.5       0.3       0.1       0.1
 7 C  px              0.9       0.0       0.6       1.1       0.0       0.0
 7 C  py              0.5       2.2       0.1       3.6       0.0       0.2
 7 C  dz2             0.1       0.6       0.5       0.0       0.0       0.0
 7 C  dyz             0.3       0.2       0.1       0.3       0.0       0.0
 7 C  dx2y2           0.1       0.1       0.1       0.3       0.0       0.0
 7 C  dxy             0.1       0.0       0.2       0.1       0.0       0.0
 8 H  s               0.7       0.0       2.0       1.3       0.2       0.3
 9 O  s               0.0       0.3       0.0       0.1       0.2       0.0
 9 O  pz              0.0      13.8      32.4       0.1       0.2       0.0
 9 O  px              0.0       1.3       3.2       0.1       0.4       0.0
 9 O  py              0.2       8.3       0.2       4.7       0.0       0.1
10 O  s               0.3       0.1       0.1       0.2       0.3       0.1
10 O  pz              0.2       2.7       4.0       0.0       0.1       0.0
10 O  px              4.6       3.4       0.2       0.5       0.7       0.1
10 O  py             23.7       3.0      19.6       7.8       0.0       0.0
11 O  s               0.4       0.6       0.0       0.0       0.0       0.1
11 O  pz              2.6       0.8       0.1       9.9       0.1       0.0
11 O  px              8.2       1.6       2.1      31.5       0.1       0.0
11 O  py              0.9       4.9       1.1      11.0       0.0       0.3
12 O  s               0.0       0.0       0.0       0.3       0.1       9.3
[...]
12 O  dz2             0.6       1.8       0.3       0.7       0.0       1.0
12 O  dxz             0.2       0.2       0.7       0.1       0.3       6.4
12 O  dyz             0.1       1.7       0.4       0.3       0.1       6.9
12 O  dx2y2           0.2      14.8       4.5       0.3       0.1       0.0
12 O  dxy             0.1      19.1       5.5       1.0       0.5       2.4
13 O  s               0.3       0.4       0.0       0.1       0.0       2.8
13 O  pz              0.0       0.1       0.0       0.0       0.1       2.4
13 O  px              0.0       0.1       0.2       0.0       0.0       0.0
13 O  py              0.1       0.0       0.1       0.0       0.0       1.2
13 O  dz2             0.0       1.0       0.3       0.0       1.7      34.9
13 O  dxz             0.5       0.1       1.0       0.1       0.1       0.2
13 O  dyz             0.1       4.0       0.4       0.0       0.1      15.4
13 O  dx2y2           2.7      10.1       0.7       0.3       0.2       0.1
13 O  dxy             1.8       2.3       0.0       0.1       0.1       0.4
16 H  s               0.2       1.8       1.0       1.1       0.3       0.1
17 H  s               5.7       0.1       0.7       0.0       0.1       0.0
18 H  s               0.0       2.5       0.9       0.1       0.0       0.2
19 H  s               0.4       1.0       0.0       0.0       0.1       0.6

                    156       157       158       159   
                   3.29843   3.32615   3.35583   3.38009
                   0.00000   0.00000   0.00000   0.00000
                  --------  --------  --------  --------
 0 C  s               0.3       0.1       0.0       0.9
 0 C  px              0.5       0.1       0.0       1.5
 0 C  dz2             0.3       0.1       0.1       0.4
 0 C  dxz             0.2       0.0       0.0       0.8
 0 C  dyz             0.0       0.0       0.0       0.1
 0 C  dx2y2           1.1       0.1       0.0       2.6
 0 C  dxy             0.2       0.1       0.2       0.0
 1 C  s               0.1       0.4       0.1       0.0
 1 C  pz              0.0       0.7       0.2       0.1
 1 C  px              0.1       0.2       0.0       0.0
 1 C  py              0.0       0.1       0.1       0.0
 1 C  dz2             0.0       1.4       1.0       0.0
 1 C  dxz             0.0       0.1       0.1       0.1
 1 C  dyz             0.0       0.7       0.0       0.0
 3 C  s               0.0       1.1       0.6       0.0
 3 C  pz              0.0       1.0       0.5       0.0
 3 C  px              0.1       0.5       0.1       0.0
 3 C  py              0.0       0.8       0.5       0.0
 3 C  dz2             0.0       0.4       0.1       0.0
 3 C  dxz             0.1       2.0       0.6       0.0
 3 C  dyz             0.0       2.2       2.0       0.2
 3 C  dx2y2           0.1       0.4       0.0       0.0
 3 C  dxy             0.2       1.5       0.6       0.0
 5 C  s               1.1       0.2       1.0       0.2
 5 C  pz              0.6       0.1       0.2       0.2
 5 C  px              0.9       0.3       0.3       0.2
 5 C  py              0.5       0.2       1.0       0.4
 5 C  dz2             0.3       0.1       0.2       0.0
 5 C  dxz             1.3       0.2       0.2       0.7
 5 C  dyz             0.7       0.5       2.4       0.2
 5 C  dx2y2           0.0       0.2       0.0       0.3
 5 C  dxy             2.1       1.8       2.1       0.5
 6 H  s               0.1       0.0       0.0       0.0
 7 C  s               2.3       0.3       0.2       0.6
 7 C  pz              0.9       0.6       1.3       1.1
 7 C  px              0.1       0.0       0.1       0.8
 7 C  py              0.1       0.0       0.0       1.2
 7 C  dz2             3.9       2.1       4.7       1.1
 7 C  dxz             0.4       0.1       0.2       1.3
 7 C  dyz             0.0       0.0       0.5       2.3
 7 C  dx2y2           0.0       0.5       0.5       0.0
 7 C  dxy             0.3       0.1       0.2       4.1
 9 O  s               0.1       0.2       0.1       0.2
 9 O  pz              0.1       0.0       0.1       0.9
 9 O  px              0.9       0.1       0.1       3.8
 9 O  py              0.1       0.0       0.0       0.5
 9 O  dz2             0.3       0.1       0.1       0.2
 9 O  dxz             0.5       1.0       2.1       1.1
 9 O  dyz             0.3       0.4       1.2      11.5
 9 O  dx2y2           6.1       2.2       0.8      13.4
 9 O  dxy             6.7       0.3       1.1      30.2
10 O  s               1.4       0.5       1.2       0.2
10 O  pz              1.7       0.6       1.5       0.4
10 O  dz2            21.9       9.2      18.0       3.9
10 O  dxz             1.1       0.5       0.2       0.6
10 O  dyz             2.8       0.5       0.6       0.1
10 O  dx2y2           0.5       0.2       0.0       0.0
11 O  s               2.1       0.4       1.8       0.8
11 O  pz              0.7       0.1       0.8       0.2
11 O  px              0.7       0.2       0.8       0.1
11 O  py              0.5       0.1       0.2       0.2
11 O  dz2             1.8       0.1       1.6       1.0
11 O  dxz             5.7       1.5       4.8       0.8
11 O  dyz             8.0       1.8       6.6       2.3
11 O  dx2y2           0.3       0.1       0.4       0.7
11 O  dxy            13.6       4.6      10.0       3.3
12 O  s               0.0       3.0       1.8       0.0
12 O  pz              0.0       0.5       0.3       0.0
12 O  px              0.0       0.8       0.5       0.0
12 O  py              0.1       1.4       0.5       0.0
12 O  dz2             0.1       0.4       0.1       0.0
12 O  dxz             0.2       6.5       3.4       0.1
12 O  dyz             0.5      17.3       8.4       0.3
12 O  dx2y2           0.2       4.1       0.7       0.0
12 O  dxy             0.2       5.3       2.6       0.0
13 O  s               0.0       1.4       0.3       0.0
13 O  pz              0.0       0.5       0.2       0.0
13 O  py              0.0       0.4       0.2       0.0
13 O  dz2             0.0       6.7       1.7       0.0
13 O  dxz             0.0       0.2       0.1       0.0
13 O  dyz             0.0       4.3       2.2       0.2
13 O  dx2y2           0.0       0.0       0.1       0.0
16 H  s               0.5       0.2       0.2       0.1
17 H  s               0.3       0.0       0.3       0.1
18 H  s               0.0       0.4       0.1       0.0
19 H  s               0.0       0.1       0.0       0.0


                      *****************************
                      * MAYER POPULATION ANALYSIS *
                      *****************************

  NA   - Mulliken gross atomic population
  ZA   - Total nuclear charge
  QA   - Mulliken gross atomic charge
  VA   - Mayer's total valence
  BVA  - Mayer's bonded valence
  FA   - Mayer's free valence

  ATOM       NA         ZA         QA         VA         BVA        FA
  0 C      5.9655     6.0000     0.0345     4.0449     4.0449     0.0000
  1 C      5.9975     6.0000     0.0025     4.0383     4.0383     0.0000
  2 H      0.9378     1.0000     0.0622     0.9768     0.9768    -0.0000
  3 C      5.9439     6.0000     0.0561     3.9721     3.9721    -0.0000
  4 H      0.9333     1.0000     0.0667     0.9952     0.9952     0.0000
  5 C      5.9565     6.0000     0.0435     4.0495     4.0495    -0.0000
  6 H      0.9203     1.0000     0.0797     0.9737     0.9737    -0.0000
  7 C      5.8452     6.0000     0.1548     4.1920     4.1920    -0.0000
  8 H      0.9213     1.0000     0.0787     0.9649     0.9649    -0.0000
  9 O      8.3010     8.0000    -0.3010     2.1831     2.1831     0.0000
 10 O      8.4234     8.0000    -0.4234     2.0295     2.0295    -0.0000
 11 O      8.4143     8.0000    -0.4143     2.0184     2.0184    -0.0000
 12 O      8.4061     8.0000    -0.4061     2.0210     2.0210    -0.0000
 13 O      8.4228     8.0000    -0.4228     2.0401     2.0401     0.0000
 14 H      0.9043     1.0000     0.0957     0.9582     0.9582    -0.0000
 15 H      0.9110     1.0000     0.0890     0.9539     0.9539     0.0000
 16 H      0.7088     1.0000     0.2912     0.9598     0.9598    -0.0000
 17 H      0.7043     1.0000     0.2957     0.9221     0.9221     0.0000
 18 H      0.6984     1.0000     0.3016     0.8820     0.8820     0.0000
 19 H      0.6842     1.0000     0.3158     0.8754     0.8754    -0.0000

  Mayer bond orders larger than 0.100000
B(  0-C ,  1-C ) :   1.0979 B(  0-C ,  9-O ) :   1.0348 B(  0-C , 14-H ) :   0.9048 
B(  0-C , 15-H ) :   0.9124 B(  1-C ,  2-H ) :   0.8862 B(  1-C ,  3-C ) :   0.9802 
B(  1-C , 13-O ) :   0.9846 B(  3-C ,  4-H ) :   0.8807 B(  3-C ,  5-C ) :   0.9777 
B(  3-C , 12-O ) :   1.0906 B(  5-C ,  6-H ) :   0.8627 B(  5-C ,  7-C ) :   1.0303 
B(  5-C , 11-O ) :   1.0867 B(  7-C ,  8-H ) :   0.9039 B(  7-C ,  9-O ) :   1.0534 
B(  7-C , 10-O ) :   1.0861 B( 10-O , 16-H ) :   0.7904 B( 11-O , 17-H ) :   0.8237 
B( 12-O , 18-H ) :   0.8475 B( 13-O , 16-H ) :   0.1284 B( 13-O , 19-H ) :   0.8369 


-------
TIMINGS
-------

Total SCF time: 0 days 0 hours 0 min 1 sec 

Total time                  ....       1.356 sec
Sum of individual times     ....       1.344 sec  ( 99.1%)

SCF preparation             ....       0.031 sec  (  2.3%)
Fock matrix formation       ....       1.155 sec  ( 85.1%)
  Startup                   ....       0.001 sec  (  0.1% of F)
  Split-RI-J                ....       0.569 sec  ( 49.3% of F)
  XC integration            ....       0.581 sec  ( 50.3% of F)
    Basis function eval.    ....       0.239 sec  ( 41.2% of XC)
    Density eval.           ....       0.136 sec  ( 23.4% of XC)
    XC-Functional eval.     ....       0.037 sec  (  6.4% of XC)
    XC-Potential eval.      ....       0.148 sec  ( 25.5% of XC)
Diagonalization             ....       0.000 sec  (  0.0%)
Density matrix formation    ....       0.002 sec  (  0.1%)
Total Energy calculation    ....       0.000 sec  (  0.0%)
Population analysis         ....       0.080 sec  (  5.9%)
Orbital Transformation      ....       0.067 sec  (  5.0%)
Orbital Orthonormalization  ....       0.000 sec  (  0.0%)
DIIS solution               ....       0.003 sec  (  0.2%)
  MO trafo                  ....       0.000 sec  (  0.0 % of DIIS)
  Orb grad                  ....       0.000 sec  (  0.0 % of DIIS)
  Energy W gradient         ....       0.000 sec  (  0.0 % of DIIS)
  DIIS error                ....       0.000 sec  ( 13.7 % of DIIS)
  DIIS work                 ....       0.003 sec  ( 84.8 % of DIIS)
  Form Q                    ....       0.000 sec  (  0.0 % of DIIS)
  Form QpQm                 ....       0.000 sec  (  0.0 % of DIIS)
  Exp/Cayley                ....       0.000 sec  (  0.0 % of DIIS)
  Orb update                ....       0.000 sec  (  0.0 % of DIIS)
  Wake-sleep                ....       0.000 sec  (  1.5 % of DIIS)
SOSCF solution              ....       0.006 sec  (  0.5%)
  MO trafo                  ....       0.004 sec  ( 63.8 % of SOSCF)
  Orb grad                  ....       0.000 sec  (  1.1 % of SOSCF)
  Rot update                ....       0.000 sec  (  2.7 % of SOSCF)
  Step                      ....       0.002 sec  ( 31.4 % of SOSCF)
Finished LeanSCF after   1.4 sec

Maximum memory used throughout the entire LEANSCF-calculation: 15.5 MB


-------------------------------------------------------------------------------
                          DFT DISPERSION CORRECTION                            
                                                                               
                                DFTD4 V3.4.0                                   
-------------------------------------------------------------------------------
The PBE functional is recognized
Active option DFTDOPT                   ...         5   

-------------------------   ----------------
Dispersion correction           -0.019953922
-------------------------   ----------------

------------------   -----------------
gCP correction             0.131010296
------------------   -----------------

-------------------------   --------------------
FINAL SINGLE POINT ENERGY      -571.411198486721
-------------------------   --------------------


------------------------------------------------------------------------------
                              ORCA PROPERTY CALCULATIONS
------------------------------------------------------------------------------

GBWName                                 ... sp.gbw
Number of atoms                         ...     20
Number of basis functions               ...    160
Max core memory                         ...   1024 MB

Electric properties:
Dipole moment                           ... YES
Quadrupole moment                       ...  NO
Static polarizability (Dipole/Dipole)   ...  NO
Static polarizability (Dipole/Quad.)    ...  NO
Static polarizability (Quad./Quad.)     ...  NO
Static polarizability (Velocity)        ...  NO

Atomic electric properties:
Dipole moment                           ...  NO
Quadrupole moment                       ...  NO
Static polarizability                   ...  NO

Choice of electric origin               ... Center of mass
Position of electric origin             ...     0.000009     0.000002    -0.000007

General magnetic properties:
Magnetizability                         ...  NO

EPR properties:
g-Tensor (aka g-matrix)                 ...  NO
Zero-Field splitting spin-orbit         ...  NO
Zero-field splitting spin-spin          ...  NO
Hyperfine couplings                     ...  NO (   0 nuclei)
Quadrupole couplings                    ...  NO (   0 nuclei)
Contact density                         ...  NO (   0 nuclei)

NMR properties:
Chemical shifts                         ...  NO (   0 nuclei)
Spin-rotation constants                 ...  NO (   0 nuclei)
Spin-spin couplings                     ...  NO (   0 nuclei,    0 pairs)

Choice of magnetic origin               ... GIAO
Position of magnetic origin             ...     0.000000     0.000000     0.000000

Properties with geometric perturbations:
SCF Hessian                             ...  NO
IR spectrum                             ...  NO
VCD spectrum                            ...  NO
X-ray spectroscopy properties:
SCF XES/XAS/RIXS spectra                ...  NO


-------------
DIPOLE MOMENT
-------------

Method             : SCF
Type of density    : Electron Density
Multiplicity       :   1
Irrep              :   0
Energy             :  -571.5222548606940336 Eh
Relativity type    : 
Basis              : AO
                                X                 Y                 Z
Electronic contribution:     -1.815729164       0.026380294       0.937819085
Nuclear contribution   :      3.442098133       0.420203484      -0.732901732
                        -----------------------------------------
Total Dipole Moment    :      1.626368968       0.446583777       0.204917354
                        -----------------------------------------
Magnitude (a.u.)       :      1.698971516
Magnitude (Debye)      :      4.318442402



--------------------
Rotational spectrum 
--------------------
 
Rotational constants in cm-1:             0.051527             0.050092             0.035840 
Rotational constants in MHz :          1544.746424          1501.727443          1074.463462 

Dipole components along the rotational axes: 
x,y,z [a.u.] :     0.972774    -1.330952     0.410831 
x,y,z [Debye]:     2.472594    -3.383011     1.044250 

 

Dipole moment calculation done in   0.0 sec 

Maximum memory used throughout the entire PROP-calculation: 10.2 MB

--------------------------------
SUGGESTED CITATIONS FOR THIS RUN
--------------------------------

Below you find a list of papers that are relevant to this ORCA run
We neither can nor want to force you to cite these papers, but we appreciate if you do
You receive ORCA, which is the product of decades of hard work by many enthusiastic individuals, for free
The only thing we kindly ask in return is that you cite our papers,
We deeply appreciate it, if you show your appreciation for ORCA by not just citing the generic ORCA reference.

Please note that relegating all ORCA citations to the supporting information does *not* help us.
SI sections are not indexed - citations you put there will not count into any citation statistics
But we need these citations in order to attract the funding resources that allow us to do what we are doing

Therefore, if you are a happy ORCA user, please consider citing a few of the papers listed below in the main body of your paper

In addition to the list printed below, the program has created the file sp.bibtex that contains the list in bibtex format
You can import this file easily into all common literature databanks and citation aid programs


List of essential papers. We consider these as the minimum necessary citations

  1. Neese,F.
     Software update: the ORCA program system, version 5.0
     WIRES Comput. Molec. Sci., 2022 12(1)e1606
     doi.org/10.1002/wcms.1606

List of papers to cite with high priority. The work reported in these papers was absolutely
necessary for this run to complete.
Our perspective: the developers of density functionals and basis sets usually get cited in chemistry papers
Good! But without the algorithms to do something with them, the functionals or basis sets would not do anything.
Hence, in our opinion, the algorithm design and method developments papers are equally worthy of getting cited

  1. Neese,F.
     An improvement of the resolution of the identity approximation for the formation of the Coulomb matrix
     J. Comp. Chem., 2003 24(14)1740-1747
     doi.org/10.1002/jcc.10318
  2. Neese,F.
     The SHARK Integral Generation and Digestion System
     J. Comp. Chem., 2022  1-16
     doi.org/10.1002/jcc.26942
  3. Caldeweyher,E.; Bannwarth,C.; Grimme,S.
     Extension of the D3 dispersion coefficient model
     J. Chem. Phys., 2017 147 034112
     doi.org/10.1063/1.4993215
  4. Caldeweyher,E.; Ehlert,S.; Hansen,A.; Neugebauer,H.; Spicher,S.; Bannwarth,C.; Grimme,S.
     A generally applicable atomic-charge dependent London dispersion correction
     J. Chem. Phys., 2019 150 154122
     doi.org/10.1063/1.5090222
  5. Caldeweyher,E.; Mewes,J.; Ehlert,S.; Grimme,S.
     Extension and evaluation of the D4 London-dispersion model for periodic systems
     Phys. Chem. Chem. Phys., 2020 22(16)8499-8512
     doi.org/10.1039/D0CP00502A
  6. Wittmann,L.; Gordiy,I.; Friede,M.; Helmich-Paris,B.; Grimme,S.; Hansen,A.; Bursch,M.
     Extension of the D3 and D4 London Dispersion Corrections to the full Actinides Series
     Phys. Chem. Chem. Phys., 2024 26(32)21379-21394
     doi.org/https://doi.org/10.1039/D4CP01514B 

List of suggested additional citations. These are papers that are important in the 'surrounding' of 
of this run, or papers that preceded the highly important papers. If you like your results we are grateful for a citation.

  1. Neese,F.
     The ORCA program system
     WIRES Comput. Molec. Sci., 2012 2(1)73-78
     doi.org/10.1002/wcms.81
  2. Neese,F.
     Software update: the ORCA program system, version 4.0
     WIRES Comput. Molec. Sci., 2018 8(1)1-6
     doi.org/10.1002/wcms.1327
  3. Neese,F.; Wennmohs,F.; Becker,U.; Riplinger,C.
     The ORCA quantum chemistry program package
     J. Chem. Phys., 2020 152 Art. No. L224108
     doi.org/10.1063/5.0004608

List of optional additional citations

  1. Neese,F.
     Approximate second-order SCF convergence for spin unrestricted wavefunctions
     Chem. Phys. Lett., 2000 325(1-3)93-98
     doi.org/10.1016/s0009-2614(00)00662-x

Timings for individual modules:

Sum of individual times          ...        1.827 sec (=   0.030 min)
Startup calculation              ...        0.360 sec (=   0.006 min)  19.7 %
SCF iterations                   ...        1.426 sec (=   0.024 min)  78.0 %
Property calculations            ...        0.041 sec (=   0.001 min)   2.3 %
                             ****ORCA TERMINATED NORMALLY****
TOTAL RUN TIME: 0 days 0 hours 0 minutes 1 seconds 932 msec
