
                                 *****************
                                 * O   R   C   A *
                                 *****************

                                            #,                                       
                                            ###                                      
                                            ####                                     
                                            #####                                    
                                            ######                                   
                                           ########,                                 
                                     ,,################,,,,,                         
                               ,,#################################,,                 
                          ,,##########################################,,             
                       ,#########################################, ''#####,          
                    ,#############################################,,   '####,        
                  ,##################################################,,,,####,       
                ,###########''''           ''''###############################       
              ,#####''   ,,,,##########,,,,          '''####'''          '####       
            ,##' ,,,,###########################,,,                        '##       
           ' ,,###''''                  '''############,,,                           
         ,,##''                                '''############,,,,        ,,,,,,###''
      ,#''                                            '''#######################'''  
     '                                                          ''''####''''         
             ,#######,   #######,   ,#######,      ##                                
            ,#'     '#,  ##    ##  ,#'     '#,    #''#        ,####,   ,####,        
            ##       ##  ##   ,#'  ##            #'  '#       #'       #'  '#        
            ##       ##  #######   ##           ,######,      #####,   #    #        
            '#,     ,#'  ##    ##  '#,     ,#' ,#      #,     #,   #   #,  ,#        
             '#######'   ##     ##  '#######'  #'      '#     '####' # '####'        



                #########################################################
                #                        -***-                          #
                #          Department of theory and spectroscopy        #
                #                                                       #
                #                      Frank Neese                      #
                #                                                       #
                #     Directorship, Architecture, Infrastructure        #
                #                    SHARK, DRIVERS                     #
                #        Core code/Algorithms in most modules           #
                #                                                       #
                #        Max Planck Institute fuer Kohlenforschung      #
                #                Kaiser Wilhelm Platz 1                 #
                #                 D-45470 Muelheim/Ruhr                 #
                #                      Germany                          #
                #                                                       #
                #                  All rights reserved                  #
                #                        -***-                          #
                #########################################################


                         Program Version 6.0.1  -  RELEASE   -


 With contributions from (in alphabetic order):
[Max-Planck-Institut fuer Kohlenforschung]                               
  Daniel Aravena         : Magnetic Suceptibility                        
  Michael Atanasov       : Ab Initio Ligand Field Theory (pilot matlab implementation)
  Alexander A. Auer      : GIAO ZORA, VPT2 properties, NMR spectrum      
  Ute Becker             : All parallelization in ORCA, NUMFREQ, NUMCALC 
  Giovanni Bistoni       : ED, misc. LED, open-shell LED, HFLD           
  Martin Brehm           : Molecular dynamics                            
  Dmytro Bykov           : pre 5.0 version of the SCF Hessian            
  Marcos Casanova-Páez   : Triplet and SCS-CIS(D). UHF-(DLPNO)-IP/EA/STEOM-CCSD. UHF-CVS-IP/STEOM-CCSD   
  Vijay G. Chilkuri      : MRCI spin determinant printing, contributions to CSF-ICE 
  Pauline Colinet        : FMM embedding                                 
  Dipayan Datta          : RHF DLPNO-CCSD density                        
  Achintya Kumar Dutta   : EOM-CC, STEOM-CC                              
  Nicolas Foglia         : Exact transition moments, OPA infrastructure, MCD improvements    
  Dmitry Ganyushin       : Spin-Orbit,Spin-Spin,Magnetic field MRCI      
  Miquel Garcia-Rates    : C-PCM and meta-GGA Hessian, CCSD/C-PCM, Gaussian charge scheme 
  Tiago L. C. Gouveia    : GS-ROHF, GS-ROCIS                             
  Yang Guo               : DLPNO-NEVPT2, F12-NEVPT2, CIM, IAO-localization        
  Andreas Hansen         : Spin unrestricted coupled pair/coupled cluster methods 
  Ingolf Harden          : AUTO-CI MPn and infrastructure                
  Benjamin Helmich-Paris : MC-RPA, TRAH-(SCF,CASSCF), AVAS, COSX integrals, SCF dyn. polar. 
  Lee Huntington         : MR-EOM, pCC                                   
  Robert Izsak           : Overlap fitted RIJCOSX, COSX-SCS-MP3, EOM     
  Riya Kayal             : Wick's Theorem for AUTO-CI, AUTO-CI UHF-CCSDT 
  Emily Kempfer          : AUTO-CI, RHF CISDT and CCSDT                  
  Christian Kollmar      : KDIIS, OOCD, Brueckner-CCSD(T), CCSD density, CASPT2, CASPT2-K, improved NEVPT2 
  Axel Koslowski         : Symmetry handling                             
  Simone Kossmann        : meta-GGA functionals, TD-DFT gradient, OOMP2, (MP2 Hessian; deprecated post 5.0) 
  Lucas Lang             : DCDCAS                                        
  Marvin Lechner         : AUTO-CI (C++ implementation), FIC-MRCC        
  Spencer Leger          : CASSCF response                               
  Dagmar Lenk            : GEPOL surface, SMD, ORCA-2-JSON               
  Dimitrios Liakos       : Extrapolation schemes; Compound Job, initial MDCI parallelization 
  Dimitrios Manganas     : Further ROCIS development; embedding schemes. LFT, Crystal Embedding 
  Dimitrios Pantazis     : SARC Basis sets                               
  Anastasios Papadopoulos: AUTO-CI, single reference methods and gradients 
  Taras Petrenko         : pre 6.0 DFT Hessian and TD-DFT gradient, (ASA, deprecated), ECA, 1-Electron XAS/XES, NRVS 
  Peter Pinski           : DLPNO-MP2, DLPNO-MP2 Gradient                 
  Christoph Reimann      : Effective Core Potentials                     
  Marius Retegan         : Local ZFS, SOC                                
  Christoph Riplinger    : Optimizer, TS searches, QM/MM, DLPNO-CCSD(T), (RO)-DLPNO pert. Triples 
  Michael Roemelt        : Original ROCIS implementation                 
  Masaaki Saitow         : Open-shell DLPNO-CCSD energy and density      
  Barbara Sandhoefer     : DKH picture change effects                    
  Kantharuban Sivalingam : CASSCF convergence/infrastructure, NEVPT2 and variants, FIC-MRCI 
  Bernardo de Souza      : ESD, SOC TD-DFT                               
  Georgi L. Stoychev     : AutoAux, RI-MP2 NMR, DLPNO-MP2 response, X2C  
  Van Anh Tran           : RI-MP2 g-tensors                              
  Willem Van den Heuvel  : Paramagnetic NMR                              
  Zikuan Wang            : NOTCH, Electric field optimization            
  Frank Wennmohs         : Technical directorship and infrastructure     
  Hang Xu                : AUTO-CI-Response properties                   
                                                                         
[FACCTs GmbH]                                                            
  Markus Bursch, Miquel Garcia-Rates, Christoph Riplinger, Bernardo de Souza, Georgi L. Stoychev 
                                                                 
  APM, Basis sets (HGBS, AHGBS, def-TZVP (Ac-Lr), def2-XVPD (La-Lu)), CI-OPT, improved COSX, DLPNO-Multilevel,           
  DOCKER, DRACO, updates on ESD, GOAT, IRC, LR-CPCM, MBIS, meta-GGA TD-DFT gradient, ML-optimized integration grids, 
  MM, NACMEs, nearIR, NEB, NEB-TS, NL-DFT gradient (VV10), 2- and 3-layer-ONIOM, interface openCOSMO-RS, QMMM,   
  Crystal-QMMM, SF, symmetry and pop. for TD-DFT, r2SCAN hybrids, SOLVATOR                                   
                                                                         
[Other institutions]                                                     
  V. Asgeirsson          : NEB                                           
  Christoph Bannwarth    : sTDA-DFT, sTD-DFT, PBEh-3c, B97-3c, D3        
  Sebastian Ehlert       : rSCAN, r2SCAN, r2SCAN-3c, D4, dhf basis sets  
  Marvin Friede          : D4 for Fr, Ra, Ac-Lr                          
  Lars Goerigk           : TD-DFT with DH, B97 family of functionals     
  Stefan Grimme          : VdW corrections, initial TS optimization, DFT functionals, gCP, sTDA/sTD-DF 
  Waldemar Hujo          : DFT-NL                                        
  H. Jonsson             : NEB                                           
  Holger Kruse           : gCP                                           
  Marcel Mueller         : wB97X-3c, vDZP basis set                      
  Hagen Neugebauer       : wr2SCAN                                       
  Tobias Risthaus        : range-separated hybrid DFT                    
  Lukas Wittmann         : regularized MP2, r2SCAN double-hybrids, wr2SCAN        
                                                                         
We gratefully acknowledge several colleagues who have allowed us to      
interface, adapt or use parts of their codes:                            
  Ed Valeev, F. Pavosevic, A. Kumar             : LibInt (2-el integral package), F12 methods 
  Garnet Chan, S. Sharma, J. Yang, R. Olivares  : DMRG                   
  Ulf Ekstrom                                   : XCFun DFT Library      
  Mihaly Kallay                                 : mrcc  (arbitrary order and MRCC methods)
  Frank Weinhold                                : gennbo (NPA and NBO analysis)           
  Simon Mueller                                 : openCOSMO-RS                            
  Christopher J. Cramer and Donald G. Truhlar   : smd solvation model                     
  S Lehtola, MJT Oliveira, MAL Marques          : LibXC Library                           
  Liviu Ungur et al                             : ANISO software                          


 Your calculation uses the libint2 library for the computation of 2-el integrals
 For citations please refer to: http://libint.valeyev.net

 Your ORCA version has been built with support for libXC version: 6.2.2
 For citations please refer to: https://libxc.gitlab.io

 This ORCA versions uses:
   CBLAS   interface :  Fast vector & matrix operations
   LAPACKE interface :  Fast linear algebra routines
   SCALAPACK package :  Parallel linear algebra routines
   Shared memory     :  Shared parallel matrices
   BLAS/LAPACK       :  OpenBLAS 0.3.27  USE64BITINT DYNAMIC_ARCH NO_AFFINITY Zen SINGLE_THREADED
        Core in use  :  Zen
   Copyright (c) 2011-2014, The OpenBLAS Project


Your calculation utilizes the geometrical counterpoise correction gCP
Please cite in your paper:
H.Kruse, S. Grimme J.Chem.Phys., 136, (2012), 154101 
   

Your calculation utilizes the atom-pairwise dispersion correction
based on EEQ partial charges (D4)


================================================================================

----- Orbital basis set information -----
Your calculation utilizes the basis: def2-SV(P)
   F. Weigend and R. Ahlrichs, Phys. Chem. Chem. Phys. 7, 3297 (2005).

----- AuxJ basis set information -----
Your calculation utilizes the auxiliary basis: def2/J
   F. Weigend, Phys. Chem. Chem. Phys. 8, 1057 (2006).

================================================================================
                                        WARNINGS
                       Please study these warnings very carefully!
================================================================================

WARNING: Old DensityContainer found on disk!
         Will remove this file - 
         If you want to keep old densities, please start your calculation with a different basename. 


================================================================================
                                       INPUT FILE
================================================================================
NAME = sp.inp
|  1> ! pbe def2-sv(p) def2/J RI DEFGRID1 loosescf d4 GCP(DFT/SV(P)) printgap
|  2> %output
|  3>     printlevel normal
|  4> end
|  5> * xyz 0 1
|  6> C -2.2360347011 0.3155872644 0.6470679781
|  7> C -1.3064764627 0.4953147816 -0.5543332502
|  8> C 0.0058489645 -0.2012273921 -0.2802166777
|  9> O 0.1870351575 -1.3885513953 -0.3291445784
| 10> O 0.9579747198 0.6777451488 0.0583233434
| 11> C 2.2312638837 0.1339811818 0.3781193641
| 12> H -1.8094648897 0.7831380767 1.5315198258
| 13> H -3.2014025817 0.7722162858 0.4442508403
| 14> H -2.3842298936 -0.7424467199 0.8488842808
| 15> H -1.118675331 1.5527994232 -0.7366834351
| 16> H -1.7585095716 0.0417444337 -1.4371009236
| 17> H 2.6230161177 -0.4341975942 -0.4678636431
| 18> H 2.1533331311 -0.5310448541 1.2405493061
| 19> H 2.8762962879 0.9790859342 0.603660024
| 20> *
| 21> 
| 22>                          ****END OF INPUT****
================================================================================

                       ****************************
                       * Single Point Calculation *
                       ****************************

---------------------------------
CARTESIAN COORDINATES (ANGSTROEM)
---------------------------------
  C     -2.236035    0.315587    0.647068
  C     -1.306476    0.495315   -0.554333
  C      0.005849   -0.201227   -0.280217
  O      0.187035   -1.388551   -0.329145
  O      0.957975    0.677745    0.058323
  C      2.231264    0.133981    0.378119
  H     -1.809465    0.783138    1.531520
  H     -3.201403    0.772216    0.444251
  H     -2.384230   -0.742447    0.848884
  H     -1.118675    1.552799   -0.736683
  H     -1.758510    0.041744   -1.437101
  H      2.623016   -0.434198   -0.467864
  H      2.153333   -0.531045    1.240549
  H      2.876296    0.979086    0.603660

----------------------------
CARTESIAN COORDINATES (A.U.)
----------------------------
  NO LB      ZA    FRAG     MASS         X           Y           Z
   0 C     6.0000    0    12.011   -4.225493    0.596374    1.222781
   1 C     6.0000    0    12.011   -2.468883    0.936009   -1.047538
   2 C     6.0000    0    12.011    0.011053   -0.380265   -0.529533
   3 O     8.0000    0    15.999    0.353445   -2.623982   -0.621993
   4 O     8.0000    0    15.999    1.810310    1.280753    0.110215
   5 C     6.0000    0    12.011    4.216478    0.253188    0.714542
   6 H     1.0000    0     1.008   -3.419393    1.479916    2.894153
   7 H     1.0000    0     1.008   -6.049774    1.459277    0.839512
   8 H     1.0000    0     1.008   -4.505542   -1.403021    1.604159
   9 H     1.0000    0     1.008   -2.113990    2.934366   -1.392130
  10 H     1.0000    0     1.008   -3.323101    0.078886   -2.715727
  11 H     1.0000    0     1.008    4.956782   -0.820515   -0.884134
  12 H     1.0000    0     1.008    4.069210   -1.003529    2.344298
  13 H     1.0000    0     1.008    5.435412    1.850204    1.140752

--------------------------------
INTERNAL COORDINATES (ANGSTROEM)
--------------------------------
 C      0   0   0     0.000000000000     0.00000000     0.00000000
 C      1   0   0     1.529622636593     0.00000000     0.00000000
 C      2   1   0     1.510797445701   109.34121949     0.00000000
 O      3   2   1     1.202065166526   125.37543939    76.14557627
 O      3   2   1     1.339307853874   111.14951243   257.45745996
 C      5   3   2     1.420990514243   116.28030218   178.24601260
 H      1   2   3     1.087575577595   110.47905125    62.66334538
 H      1   2   3     1.087005059539   110.10831295   182.65635678
 H      1   2   3     1.087256891010   110.05738763   302.59909843
 H      2   1   3     1.089401038287   110.50480771   239.82882903
 H      2   1   3     1.090568089225   109.57309153   118.63936550
 H      6   5   3     1.091780281381   110.26014679    58.80837337
 H      6   5   3     1.091841671436   110.29688831   298.74301162
 H      6   5   3     1.086801469573   106.31774158   178.78207913

---------------------------
INTERNAL COORDINATES (A.U.)
---------------------------
 C      0   0   0     0.000000000000     0.00000000     0.00000000
 C      1   0   0     2.890567871407     0.00000000     0.00000000
 C      2   1   0     2.854993416203   109.34121949     0.00000000
 O      3   2   1     2.271573959861   125.37543939    76.14557627
 O      3   2   1     2.530925052831   111.14951243   257.45745996
 C      5   3   2     2.685282910819   116.28030218   178.24601260
 H      1   2   3     2.055219991595   110.47905125    62.66334538
 H      1   2   3     2.054141868716   110.10831295   182.65635678
 H      1   2   3     2.054617761228   110.05738763   302.59909843
 H      2   1   3     2.058669612372   110.50480771   239.82882903
 H      2   1   3     2.060875019029   109.57309153   118.63936550
 H      6   5   3     2.063165730225   110.26014679    58.80837337
 H      6   5   3     2.063281740617   110.29688831   298.74301162
 H      6   5   3     2.053757139435   106.31774158   178.78207913

---------------------
BASIS SET INFORMATION
---------------------
There are 3 groups of distinct atoms

 Group   1 Type C   : 7s4p1d contracted to 3s2p1d pattern {511/31/1}
 Group   2 Type O   : 7s4p1d contracted to 3s2p1d pattern {511/31/1}
 Group   3 Type H   : 4s contracted to 2s pattern {31}

Atom   0C    basis set group =>   1
Atom   1C    basis set group =>   1
Atom   2C    basis set group =>   1
Atom   3O    basis set group =>   2
Atom   4O    basis set group =>   2
Atom   5C    basis set group =>   1
Atom   6H    basis set group =>   3
Atom   7H    basis set group =>   3
Atom   8H    basis set group =>   3
Atom   9H    basis set group =>   3
Atom  10H    basis set group =>   3
Atom  11H    basis set group =>   3
Atom  12H    basis set group =>   3
Atom  13H    basis set group =>   3
---------------------------------
AUXILIARY/J BASIS SET INFORMATION
---------------------------------
There are 3 groups of distinct atoms

 Group   1 Type C   : 12s5p4d2f1g contracted to 6s4p3d1f1g pattern {711111/2111/211/2/1}
 Group   2 Type O   : 12s5p4d2f1g contracted to 6s4p3d1f1g pattern {711111/2111/211/2/1}
 Group   3 Type H   : 5s2p1d contracted to 3s1p1d pattern {311/2/1}

Atom   0C    basis set group =>   1
Atom   1C    basis set group =>   1
Atom   2C    basis set group =>   1
Atom   3O    basis set group =>   2
Atom   4O    basis set group =>   2
Atom   5C    basis set group =>   1
Atom   6H    basis set group =>   3
Atom   7H    basis set group =>   3
Atom   8H    basis set group =>   3
Atom   9H    basis set group =>   3
Atom  10H    basis set group =>   3
Atom  11H    basis set group =>   3
Atom  12H    basis set group =>   3
Atom  13H    basis set group =>   3

Checking for AutoStart:
The File: sp.gbw exists
Trying to determine its content:
     ... Fine, the file contains calculation information
     ... Fine, the calculation information was read
     ... Fine, the file contains a basis set
     ... Fine, the basis set was read
     ... Fine, the file contains a geometry
     ... Fine, the geometry was read
     ... Fine, the file contains a set of orbitals
     ... Fine, the orbitals can be read
     => possible old guess file was deleted
     => GBW file was renamed to GES file
     => GES file is set as startup file
     => Guess is set to MORead
     ... now leaving AutoStart

------------------------------------------------------------------------------
                             ORCA STARTUP CALCULATIONS
                           -- RI-GTO INTEGRALS CHOSEN --
------------------------------------------------------------------------------
------------------------------------------------------------------------------
                   ___                                                        
                  /   \      - P O W E R E D   B Y -                         
                 /     \                                                     
                 |  |  |   _    _      __       _____    __    __             
                 |  |  |  | |  | |    /  \     |  _  \  |  |  /  |          
                  \  \/   | |  | |   /    \    | | | |  |  | /  /          
                 / \  \   | |__| |  /  /\  \   | |_| |  |  |/  /          
                |  |  |   |  __  | /  /__\  \  |    /   |      \           
                |  |  |   | |  | | |   __   |  |    \   |  |\   \          
                \     /   | |  | | |  |  |  |  | |\  \  |  | \   \       
                 \___/    |_|  |_| |__|  |__|  |_| \__\ |__|  \__/        
                                                                              
                      - O R C A' S   B I G   F R I E N D -                    
                                      &                                       
                       - I N T E G R A L  F E E D E R -                       
                                                                              
 v1 FN, 2020, v2 2021, v3 2022-2024                                           
------------------------------------------------------------------------------


----------------------
SHARK INTEGRAL PACKAGE
----------------------

Number of atoms                             ...     14
Number of basis functions                   ...    100
Number of shells                            ...     52
Maximum angular momentum                    ...      2
Integral batch strategy                     ... SHARK/LIBINT Hybrid
RI-J (if used) integral strategy            ... SPLIT-RIJ (Revised 2003 algorithm where possible)
Printlevel                                  ...      1
Contraction scheme used                     ... SEGMENTED contraction
Prescreening option                         ... SCHWARTZ
   Thresh                                   ... 1.000e-09
   Tcut                                     ... 1.000e-10
   Tpresel                                  ... 1.000e-10 
Coulomb Range Separation                    ... NOT USED
Exchange Range Separation                   ... NOT USED
Multipole approximations                    ... NOT USED
Finite Nucleus Model                        ... NOT USED
CABS basis                                  ... NOT available
Auxiliary Coulomb fitting basis             ... AVAILABLE
   # of basis functions in Aux-J            ...    382
   # of shells in Aux-J                     ...    130
   Maximum angular momentum in Aux-J        ...      4
Auxiliary J/K fitting basis                 ... NOT available
Auxiliary Correlation fitting basis         ... NOT available
Auxiliary 'external' fitting basis          ... NOT available

Checking pre-screening integrals            ... done (  0.0 sec) Dimension = 52
Check shell pair data                       ... done (  0.0 sec)
Shell pair information
Shell pair cut-off parameter TPreSel        ...   1.0e-10
Total number of shell pairs                 ...      1378
Shell pairs after pre-screening             ...      1333
Total number of primitive shell pairs       ...      5562
Primitive shell pairs kept                  ...      3899
          la=0 lb=0:    565 shell pairs
          la=1 lb=0:    403 shell pairs
          la=1 lb=1:     78 shell pairs
          la=2 lb=0:    194 shell pairs
          la=2 lb=1:     72 shell pairs
          la=2 lb=2:     21 shell pairs

Calculating one electron integrals          ... done (  0.0 sec)
Calculating RI/J V-Matrix + Cholesky decomp.... done (  0.0 sec)
Calculating Nuclear repulsion               ... done (  0.0 sec) ENN=    247.001773049192 Eh

Diagonalization of the overlap matrix:
Smallest eigenvalue                        ... 2.293e-03
Time for diagonalization                   ...    0.001 sec
Threshold for overlap eigenvalues          ... 1.000e-07
Number of eigenvalues below threshold      ... 0
Time for construction of square roots      ...    0.001 sec
Total time needed                          ...    0.008 sec

-------------------
DFT GRID GENERATION
-------------------

General Integration Accuracy     IntAcc      ... 4.159
Radial Grid Type                 RadialGrid  ... OptM3 with GC (2021)
Angular Grid (max. ang.)         AngularGrid ... 3 (Lebedev-194)
Angular grid pruning method      GridPruning ... 4 (adaptive)
Weight generation scheme         WeightScheme... mBecke (2022)
Basis function cutoff            BFCut       ... 1.0000e-10
Integration weight cutoff        WCut        ... 1.0000e-14
Partially contracted basis set               ... off
Rotationally invariant grid construction     ... off
Angular grids for H and He will be reduced by one unit

Total number of grid points                  ...    31145
Total number of batches                      ...      494
Average number of points per batch           ...       63
Average number of grid points per atom       ...     2225
Initializing property integral containers    ... done (  0.0 sec)

SHARK setup successfully completed in   0.3 seconds

Maximum memory used throughout the entire STARTUP-calculation: 15.8 MB
-------------------------------------------------------------------------------
                                 ORCA GUESS
                   Start orbitals & Density for SCF / CASSCF
-------------------------------------------------------------------------------

------------
SCF SETTINGS
------------
Hamiltonian:
 Density Functional     Method          .... DFT(GTOs)
 Exchange Functional    Exchange        .... PBE
   PBE kappa parameter   XKappa         ....  0.804000
   PBE mue parameter    XMuePBE         ....  0.219520
 Correlation Functional Correlation     .... PBE
   PBE beta parameter  CBetaPBE         ....  0.066725
 LDA part of GGA corr.  LDAOpt          .... PW91-LDA
 Gradients option       PostSCFGGA      .... off
   NL short-range parameter             ....  6.400000
 RI-approximation to the Coulomb term is turned on
   Number of AuxJ basis functions       .... 382


General Settings:
 Integral files         IntName         .... sp
 Hartree-Fock type      HFTyp           .... RHF
 Total Charge           Charge          ....    0
 Multiplicity           Mult            ....    1
 Number of Electrons    NEL             ....   48
 Basis Dimension        Dim             ....  100
 Nuclear Repulsion      ENuc            ....    247.0017730492 Eh

Convergence Acceleration:
 AO-DIIS                CNVDIIS         .... on
   Start iteration      DIISMaxIt       ....    12
   Startup error        DIISStart       ....  0.200000
   # of expansion vecs  DIISMaxEq       ....     5
   Bias factor          DIISBfac        ....   1.050
   Max. coefficient     DIISMaxC        ....  10.000
 MO-DIIS                CNVKDIIS        .... off
 Trust-Rad. Augm. Hess. CNVTRAH         .... auto
   Auto Start mean grad. ratio tolernc. ....  1.125000
   Auto Start start iteration           ....     1
   Auto Start num. interpolation iter.  ....    10
   Max. Number of Micro iterations      ....    24
   Max. Number of Macro iterations      .... Maxiter - #DIIS iter
   Number of Davidson start vectors     ....     2
   Converg. threshold    (grad. norm)   ....   1.000e-04
   Grad. Scal. Fac. for Micro threshold ....   0.100
   Minimum threshold for Micro iter.    ....   1.000e-02
   NR start threshold (gradient norm)   ....   1.000e-04
   Initial trust radius                 ....   0.400
   Minimum AH scaling param. (alpha)    ....   1.000
   Maximum AH scaling param. (alpha)    .... 1000.000
   Quad. conv. algorithm                .... NR
   White noise on init. David. guess    .... on
   Maximum white noise                  ....   0.010
   Pseudo random numbers                .... off
   Inactive MOs                         .... canonical
   Orbital update algorithm             .... Taylor
   Preconditioner                       .... Diag
   Full preconditioner red. dimension   ....   250
 SOSCF                  CNVSOSCF        .... on
   Start iteration      SOSCFMaxIt      ....   150
   Startup grad/error   SOSCFStart      ....  0.003300
   Hessian update       SOSCFHessUp     .... L-BFGS
 Level Shifting         CNVShift        .... on
   Level shift para.    LevelShift      ....    0.2500
   Turn off err/grad.   ShiftErr        ....    0.0010
 Zerner damping         CNVZerner       .... off
 Static damping         CNVDamp         .... on
   Fraction old density DampFac         ....    0.7000
   Max. Damping (<1)    DampMax         ....    0.9800
   Min. Damping (>=0)   DampMin         ....    0.0000
   Turn off err/grad.   DampErr         ....    0.1000

SCF Procedure:
 Maximum # iterations   MaxIter         ....   125
 SCF integral mode      SCFMode         .... Direct
   Integral package                     .... SHARK and LIBINT hybrid scheme
 Reset frequency        DirectResetFreq ....    20
 Integral Threshold     Thresh          ....  1.000e-09 Eh
 Primitive CutOff       TCut            ....  1.000e-10 Eh

Convergence Tolerance:
 Convergence Check Mode ConvCheckMode   .... Total+1el-Energy
 Convergence forced     ConvForced      .... 0
 Energy Change          TolE            ....  1.000e-05 Eh
 1-El. energy change                    ....  1.000e-02 Eh
 Orbital Gradient       TolG            ....  1.000e-04
 Orbital Rotation angle TolX            ....  1.000e-04
 DIIS Error             TolErr          ....  5.000e-04

---------------------
INITIAL GUESS: MOREAD
---------------------
Guess MOs are being read from file: sp.ges
Input Geometry matches current geometry (good)
Input basis set matches current basis set (good)
Occupation numbers will be reassigned to an Aufbau configuration
MOs were renormalized
MOs were reorthogonalized (Cholesky)
                      ------------------
                      INITIAL GUESS DONE (   0.0 sec)
                      ------------------
             **** ENERGY FILE WAS UPDATED (sp.en.tmp) ****
Finished Guess after   0.0 sec
Maximum memory used throughout the entire GUESS-calculation: 8.1 MB

-------------------------------------------------------------------------------------------
                                      ORCA LEAN-SCF
                              memory conserving SCF solver
-------------------------------------------------------------------------------------------

----------------------------------------D-I-I-S--------------------------------------------
Iteration    Energy (Eh)           Delta-E    RMSDP     MaxDP     DIISErr   Damp  Time(sec)
-------------------------------------------------------------------------------------------
               ***  Starting incremental Fock matrix formation  ***
                              *** Initializing SOSCF ***
---------------------------------------S-O-S-C-F--------------------------------------
Iteration    Energy (Eh)           Delta-E    RMSDP     MaxDP     MaxGrad    Time(sec)
--------------------------------------------------------------------------------------
    1    -307.0808582415976389     0.00e+00  9.50e-06  1.45e-04  1.49e-05     0.2
               *** Restarting incremental Fock matrix formation ***
    2    -307.0808582471382806    -5.54e-09  1.22e-05  2.19e-04  6.30e-05     0.2
    3    -307.0808581091438327     1.38e-07  8.35e-06  1.69e-04  1.08e-04     0.2
                 **** Energy Check signals convergence ****

               *****************************************************
               *                     SUCCESS                       *
               *           SCF CONVERGED AFTER   3 CYCLES          *
               *****************************************************

             **** ENERGY FILE WAS UPDATED (sp.en.tmp) ****

----------------
TOTAL SCF ENERGY
----------------

Total Energy       :       -307.08085810914383 Eh           -8356.09496 eV

Components:
Nuclear Repulsion  :        247.00177304919225 Eh            6721.25995 eV
Electronic Energy  :       -554.08263115833608 Eh          -15077.35491 eV
One Electron Energy:       -906.90372061690084 Eh          -24678.10485 eV
Two Electron Energy:        352.82108945856476 Eh            9600.74994 eV

Virial components:
Potential Energy   :       -611.83226252604163 Eh          -16648.80227 eV
Kinetic Energy     :        304.75140441689786 Eh            8292.70731 eV
Virial Ratio       :          2.00764378328856

DFT components:
N(Alpha)           :       23.999952430338 electrons
N(Beta)            :       23.999952430338 electrons
N(Total)           :       47.999904860676 electrons
E(X)               :      -39.887474979681 Eh       
E(C)               :       -1.596022618934 Eh       
E(XC)              :      -41.483497598615 Eh       

---------------
SCF CONVERGENCE
---------------

  Last Energy change         ...   -1.3799e-07  Tolerance :   1.0000e-05
  Last MAX-Density change    ...    1.6867e-04  Tolerance :   1.0000e-03
  Last RMS-Density change    ...    8.3519e-06  Tolerance :   1.0000e-04
  Last DIIS Error            ...    1.1575e-04  Tolerance :   5.0000e-04
  Last Orbital Gradient      ...    1.0806e-04  Tolerance :   1.0000e-04
  Last Orbital Rotation      ...    8.7784e-05  Tolerance :   1.0000e-04


----------------
ORBITAL ENERGIES
----------------

  NO   OCC          E(Eh)            E(eV) 
   0   2.0000     -18.799772      -511.5678 
   1   2.0000     -18.735873      -509.8290 
   2   2.0000     -10.002549      -272.1832 
   3   2.0000      -9.938916      -270.4517 
   4   2.0000      -9.897689      -269.3298 
   5   2.0000      -9.886823      -269.0341 
   6   2.0000      -1.005629       -27.3646 
   7   2.0000      -0.914627       -24.8883 
   8   2.0000      -0.714349       -19.4384 
   9   2.0000      -0.654902       -17.8208 
  10   2.0000      -0.573127       -15.5956 
  11   2.0000      -0.505651       -13.7595 
  12   2.0000      -0.449506       -12.2317 
  13   2.0000      -0.431899       -11.7526 
  14   2.0000      -0.423132       -11.5140 
  15   2.0000      -0.392772       -10.6879 
  16   2.0000      -0.379752       -10.3336 
  17   2.0000      -0.362556        -9.8657 
  18   2.0000      -0.333498        -9.0749 
  19   2.0000      -0.318973        -8.6797 
  20   2.0000      -0.312302        -8.4982 
  21   2.0000      -0.300393        -8.1741 
  22   2.0000      -0.258745        -7.0408 
  23   2.0000      -0.219850        -5.9824 
  24   0.0000      -0.019783        -0.5383 
  25   0.0000       0.046635         1.2690 
  26   0.0000       0.064343         1.7509 
  27   0.0000       0.088772         2.4156 
  28   0.0000       0.091327         2.4851 
  29   0.0000       0.095916         2.6100 
  30   0.0000       0.104522         2.8442 
  31   0.0000       0.115959         3.1554 
  32   0.0000       0.122644         3.3373 
  33   0.0000       0.134893         3.6706 
  34   0.0000       0.170960         4.6521 
*Only the first 10 virtual orbitals were printed.

                    ********************************
                    * MULLIKEN POPULATION ANALYSIS *
                    ********************************

-----------------------
MULLIKEN ATOMIC CHARGES
-----------------------
   0 C :   -0.303079
   1 C :   -0.140589
   2 C :    0.092487
   3 O :   -0.200959
   4 O :   -0.244819
   5 C :   -0.112815
   6 H :    0.110468
   7 H :    0.115654
   8 H :    0.120972
   9 H :    0.099719
  10 H :    0.109003
  11 H :    0.117756
  12 H :    0.116411
  13 H :    0.119792
Sum of atomic charges:    0.0000000

--------------------------------
MULLIKEN REDUCED ORBITAL CHARGES
--------------------------------
  0 C s       :     3.114812  s :     3.114812
      pz      :     1.027534  p :     3.158761
      px      :     1.041316
      py      :     1.089911
      dz2     :     0.007369  d :     0.029506
      dxz     :     0.005599
      dyz     :     0.004994
      dx2y2   :     0.006991
      dxy     :     0.004553

  1 C s       :     3.022237  s :     3.022237
      pz      :     1.056685  p :     3.084807
      px      :     1.006347
      py      :     1.021775
      dz2     :     0.007856  d :     0.033546
      dxz     :     0.006528
      dyz     :     0.005527
      dx2y2   :     0.007627
      dxy     :     0.006008

  2 C s       :     3.059381  s :     3.059381
      pz      :     0.853633  p :     2.717453
      px      :     0.944494
      py      :     0.919326
      dz2     :     0.008392  d :     0.130679
      dxz     :     0.010006
      dyz     :     0.029044
      dx2y2   :     0.029874
      dxy     :     0.053362

  3 O s       :     3.738129  s :     3.738129
      pz      :     1.414597  p :     4.444651
      px      :     1.703300
      py      :     1.326754
      dz2     :     0.002010  d :     0.018180
      dxz     :     0.000159
      dyz     :     0.005532
      dx2y2   :     0.006054
      dxy     :     0.004425

  4 O s       :     3.734322  s :     3.734322
      pz      :     1.673229  p :     4.494030
      px      :     1.227076
      py      :     1.593726
      dz2     :     0.002199  d :     0.016467
      dxz     :     0.002283
      dyz     :     0.002601
      dx2y2   :     0.003124
      dxy     :     0.006260

  5 C s       :     3.123516  s :     3.123516
      pz      :     1.090308  p :     2.937004
      px      :     0.812787
      py      :     1.033909
      dz2     :     0.007416  d :     0.052295
      dxz     :     0.009946
      dyz     :     0.009998
      dx2y2   :     0.010138
      dxy     :     0.014796

  6 H s       :     0.889532  s :     0.889532

  7 H s       :     0.884346  s :     0.884346

  8 H s       :     0.879028  s :     0.879028

  9 H s       :     0.900281  s :     0.900281

 10 H s       :     0.890997  s :     0.890997

 11 H s       :     0.882244  s :     0.882244

 12 H s       :     0.883589  s :     0.883589

 13 H s       :     0.880208  s :     0.880208


------------------------
MULLIKEN OVERLAP CHARGES
------------------------
B(  0-C ,  1-C ) :   0.9071 B(  0-C ,  2-C ) :  -0.0667 B(  0-C ,  6-H ) :   0.7522 
B(  0-C ,  7-H ) :   0.7552 B(  0-C ,  8-H ) :   0.7533 B(  1-C ,  2-C ) :   0.7143 
B(  1-C ,  3-O ) :  -0.1698 B(  1-C ,  4-O ) :  -0.2382 B(  1-C ,  6-H ) :  -0.0634 
B(  1-C ,  8-H ) :  -0.0690 B(  1-C ,  9-H ) :   0.6151 B(  1-C , 10-H ) :   0.6596 
B(  2-C ,  3-O ) :   1.3597 B(  2-C ,  4-O ) :   0.7193 B(  2-C ,  5-C ) :  -0.0648 
B(  3-O ,  4-O ) :  -0.1753 B(  4-O ,  5-C ) :   0.5481 B(  4-O , 11-H ) :  -0.0601 
B(  4-O , 12-H ) :  -0.0618 B(  4-O , 13-H ) :  -0.0522 B(  5-C , 11-H ) :   0.7673 
B(  5-C , 12-H ) :   0.7676 B(  5-C , 13-H ) :   0.7582 B( 11-H , 12-H ) :  -0.0655 
B( 11-H , 13-H ) :  -0.0506 B( 12-H , 13-H ) :  -0.0512 


                     *******************************
                     * LOEWDIN POPULATION ANALYSIS *
                     *******************************

----------------------
LOEWDIN ATOMIC CHARGES
----------------------
   0 C :   -0.330455
   1 C :   -0.251467
   2 C :    0.035456
   3 O :   -0.157960
   4 O :   -0.080341
   5 C :   -0.208020
   6 H :    0.121922
   7 H :    0.123497
   8 H :    0.126489
   9 H :    0.128729
  10 H :    0.136829
  11 H :    0.118503
  12 H :    0.117500
  13 H :    0.119318

-------------------------------
LOEWDIN REDUCED ORBITAL CHARGES
-------------------------------
  0 C s       :     2.946033  s :     2.946033
      pz      :     1.086074  p :     3.313559
      px      :     1.091556
      py      :     1.135929
      dz2     :     0.017095  d :     0.070863
      dxz     :     0.015369
      dyz     :     0.011101
      dx2y2   :     0.017005
      dxy     :     0.010293

  1 C s       :     2.916144  s :     2.916144
      pz      :     1.092443  p :     3.251574
      px      :     1.062255
      py      :     1.096876
      dz2     :     0.018836  d :     0.083750
      dxz     :     0.018294
      dyz     :     0.011749
      dx2y2   :     0.019329
      dxy     :     0.015543

  2 C s       :     2.849525  s :     2.849525
      pz      :     0.838979  p :     2.817816
      px      :     0.962408
      py      :     1.016429
      dz2     :     0.019548  d :     0.297203
      dxz     :     0.018404
      dyz     :     0.059311
      dx2y2   :     0.071132
      dxy     :     0.128809

  3 O s       :     3.544051  s :     3.544051
      pz      :     1.412628  p :     4.581930
      px      :     1.700870
      py      :     1.468431
      dz2     :     0.004447  d :     0.031979
      dxz     :     0.000184
      dyz     :     0.007187
      dx2y2   :     0.012913
      dxy     :     0.007248

  4 O s       :     3.455487  s :     3.455487
      pz      :     1.662419  p :     4.591636
      px      :     1.293033
      py      :     1.636184
      dz2     :     0.004187  d :     0.033218
      dxz     :     0.005054
      dyz     :     0.003630
      dx2y2   :     0.006792
      dxy     :     0.013555

  5 C s       :     2.963485  s :     2.963485
      pz      :     1.138198  p :     3.128961
      px      :     0.883905
      py      :     1.106858
      dz2     :     0.016101  d :     0.115574
      dxz     :     0.020666
      dyz     :     0.024734
      dx2y2   :     0.020553
      dxy     :     0.033520

  6 H s       :     0.878078  s :     0.878078

  7 H s       :     0.876503  s :     0.876503

  8 H s       :     0.873511  s :     0.873511

  9 H s       :     0.871271  s :     0.871271

 10 H s       :     0.863171  s :     0.863171

 11 H s       :     0.881497  s :     0.881497

 12 H s       :     0.882500  s :     0.882500

 13 H s       :     0.880682  s :     0.880682


---------------------------------
LOEWDIN BOND ORDERS (THRESH 0.050000)
---------------------------------
B(  0-C ,  1-C ) :   1.1129 B(  0-C ,  2-C ) :   0.0692 B(  0-C ,  6-H ) :   0.9412 
B(  0-C ,  7-H ) :   0.9370 B(  0-C ,  8-H ) :   0.9383 B(  1-C ,  2-C ) :   1.0559 
B(  1-C ,  3-O ) :   0.0954 B(  1-C ,  4-O ) :   0.0716 B(  1-C ,  9-H ) :   0.8999 
B(  1-C , 10-H ) :   0.8938 B(  2-C ,  3-O ) :   2.2338 B(  2-C ,  4-O ) :   1.3798 
B(  2-C ,  5-C ) :   0.0789 B(  3-O ,  4-O ) :   0.2090 B(  4-O ,  5-C ) :   1.1214 
B(  5-C , 11-H ) :   0.9448 B(  5-C , 12-H ) :   0.9455 B(  5-C , 13-H ) :   0.9522 


------------------------------------------
LOEWDIN REDUCED ORBITAL POPULATIONS PER MO
-------------------------------------------
THRESHOLD FOR PRINTING IS 0.1%%
                      0         1         2         3         4         5   
                 -18.79977 -18.73587 -10.00255  -9.93892  -9.89769  -9.88682
                   2.00000   2.00000   2.00000   2.00000   2.00000   2.00000
                  --------  --------  --------  --------  --------  --------
 0 C  s               0.0       0.0       0.0       0.0       0.0      99.7
 1 C  s               0.0       0.0       0.0       0.0      99.6       0.0
 2 C  s               0.0       0.0      99.3       0.0       0.0       0.0
 3 O  s               0.0      99.9       0.0       0.0       0.0       0.0
 3 O  py              0.0       0.0       0.3       0.0       0.0       0.0
 4 O  s              99.9       0.0       0.0       0.0       0.0       0.0
 5 C  s               0.0       0.0       0.0      99.7       0.0       0.0

                      6         7         8         9        10        11   
                  -1.00563  -0.91463  -0.71435  -0.65490  -0.57313  -0.50565
                   2.00000   2.00000   2.00000   2.00000   2.00000   2.00000
                  --------  --------  --------  --------  --------  --------
 0 C  s               0.1       0.0      16.2      10.9      18.7       0.7
 0 C  pz              0.0       0.0       1.6       0.1       3.2       1.9
 0 C  px              0.1       0.0       1.4       0.0       2.2       0.0
 0 C  dxz             0.0       0.0       0.1       0.0       0.1       0.0
 1 C  s               1.0       0.2      26.7       2.6       9.5       2.3
 1 C  pz              0.1       0.0       1.2       0.6       5.2       2.2
 1 C  px              1.5       0.1       0.0       3.8       5.0       1.5
 1 C  py              0.2       0.5       0.1       0.0       0.0       0.0
 1 C  dxz             0.0       0.0       0.0       0.1       0.2       0.0
 2 C  s              18.7       4.8       4.5       2.5       1.9       2.8
 2 C  pz              0.4       0.4       0.1       0.1       1.6       1.0
 2 C  px              4.6       1.0       6.4       1.7       6.0       1.9
 2 C  py              0.1      22.9       6.1       3.0       1.2       2.3
 2 C  dz2             0.5       0.1       0.0       0.0       0.0       0.0
 2 C  dx2y2           0.1       1.1       0.1       0.0       0.0       0.0
 2 C  dxy             0.2       0.7       0.0       0.3       0.2       0.0
 3 O  s              12.5      40.2       1.7       0.2       0.5       1.3
 3 O  pz              0.0       0.0       0.0       0.0       0.1       0.3
 3 O  px              0.0       0.2       0.2       0.0       0.5       0.7
 3 O  py              3.0       4.2       0.2       0.2       0.2       1.1
 3 O  dx2y2           0.1       0.1       0.0       0.0       0.0       0.0
 4 O  s              40.0      17.1       0.1       0.8       1.3       4.8
 4 O  pz              0.0       0.0       0.5       1.8       0.0       1.3
 4 O  px              0.1       0.4       6.5      19.3       0.0      16.8
 4 O  py              3.1       0.2       0.0       0.2       0.1       7.6
 4 O  dxy             0.0       0.0       0.1       0.2       0.0       0.1
 5 C  s               4.9       2.5       4.5      24.5       5.6       5.7
 5 C  pz              0.3       0.1       0.0       0.0       0.1       0.6
 5 C  px              5.0       1.3       0.2       0.4       2.0       9.8
 5 C  py              0.4       0.6       0.1       0.1       0.1      11.0
 5 C  dz2             0.1       0.0       0.0       0.0       0.0       0.2
 5 C  dxz             0.1       0.0       0.0       0.0       0.0       0.1
 5 C  dx2y2           0.2       0.1       0.0       0.0       0.1       0.1
 5 C  dxy             0.1       0.1       0.0       0.0       0.0       0.4
 6 H  s               0.0       0.0       3.1       2.3       6.7       0.9
 7 H  s               0.0       0.0       2.9       2.6       7.0       0.2
 8 H  s               0.0       0.0       2.9       2.5       6.3       0.4
 9 H  s               0.2       0.0       5.3       0.3       3.4       1.0
10 H  s               0.1       0.1       4.7       0.8       3.8       2.9
11 H  s               0.7       0.2       0.8       5.4       2.1       6.9
12 H  s               0.6       0.2       0.8       5.5       2.0       7.3
13 H  s               0.5       0.3       0.9       6.9       2.5       1.5

                     12        13        14        15        16        17   
                  -0.44951  -0.43190  -0.42313  -0.39277  -0.37975  -0.36256
                   2.00000   2.00000   2.00000   2.00000   2.00000   2.00000
                  --------  --------  --------  --------  --------  --------
 0 C  s               0.0       0.3       0.0       0.0       0.0       0.1
 0 C  pz              3.0       1.7       1.0       3.2       0.3      15.0
 0 C  px              2.7       1.1       0.1      13.8       5.8       0.7
 0 C  py              2.9       1.2       7.8       6.7       8.6       0.0
 0 C  dxz             0.0       0.0       0.0       0.0       0.1       0.1
 1 C  s               1.5       0.8       0.0       0.2       0.2       0.1
 1 C  pz              6.3       0.3       1.0       8.0       1.7       4.8
 1 C  px              8.1       2.0       1.0       2.8       0.0       9.0
 1 C  py              7.5       2.7      16.9       4.8       2.6       0.0
 1 C  dxy             0.2       0.0       0.0       0.1       0.0       0.0
 2 C  s               1.7       0.6       1.3       0.2       2.0       0.1
 2 C  pz              2.4      13.3       0.0       0.4       1.5      12.5
 2 C  px             13.5       0.2       0.2       0.6       1.1       1.1
 2 C  py              0.1       0.3       1.6       1.0       3.9       0.8
 2 C  dxz             0.0       0.1       0.0       0.0       0.0       0.0
 2 C  dx2y2           0.0       0.0       0.7       0.1       0.1       0.0
 2 C  dxy             0.0       0.0       0.0       0.3       0.0       0.0
 3 O  s               0.4       0.2       9.1       1.7       7.6       0.4
 3 O  pz              0.5       5.6       0.1       0.4       0.7      10.4
 3 O  px              7.0       0.4       0.5       0.0       0.1       0.0
 3 O  py              0.3       0.5      13.3       4.2      30.0       2.2
 3 O  dyz             0.0       0.1       0.0       0.0       0.0       0.1
 3 O  dx2y2           0.0       0.0       0.1       0.0       0.2       0.0
 3 O  dxy             0.1       0.0       0.0       0.0       0.0       0.0
 4 O  s               0.5       0.1       0.9       0.9       0.2       0.0
 4 O  pz              5.8      21.9       0.2       0.2       0.2       0.0
 4 O  px              0.2       0.9       3.5       7.3       0.0       1.2
 4 O  py              6.6       2.9      12.2       2.7       0.0       0.0
 5 C  s               0.0       0.0       0.2       0.1       0.0       0.0
 5 C  pz              4.7      17.7       0.4       8.8       6.3       6.4
 5 C  px              0.3       5.2       5.9       3.0       0.4       7.1
 5 C  py              6.4       3.0       3.2       0.7       6.9       6.7
 5 C  dyz             0.0       0.1       0.0       0.0       0.0       0.3
 5 C  dx2y2           0.0       0.0       0.1       0.0       0.0       0.0
 5 C  dxy             0.0       0.0       0.0       0.1       0.1       0.1
 6 H  s               0.6       0.2       1.8       6.0       0.4       5.0
 7 H  s               1.7       0.2       0.2       3.1       5.6       0.0
 8 H  s               1.0       1.3       2.0       3.4       2.5       0.4
 9 H  s               4.7       1.5       6.7       2.0       0.9       0.2
10 H  s               3.7       0.1       3.0       6.0       0.0       0.1
11 H  s               2.4       4.4       0.0       1.6       4.9       1.1
12 H  s               0.0       7.2       0.1       1.8       0.0       7.7
13 H  s               2.8       1.5       4.6       3.1       4.4       5.6

                     18        19        20        21        22        23   
                  -0.33350  -0.31897  -0.31230  -0.30039  -0.25875  -0.21985
                   2.00000   2.00000   2.00000   2.00000   2.00000   2.00000
                  --------  --------  --------  --------  --------  --------
 0 C  s               0.0       0.3       0.1       0.0       0.0       0.0
 0 C  pz              5.3       7.8       9.7       0.1       0.0       0.0
 0 C  px             13.1       8.6       0.4       4.1       0.0       0.4
 0 C  py             10.6       7.4      11.2       0.0       0.3       0.0
 0 C  dz2             0.1       0.2       0.3       0.1       0.0       0.0
 0 C  dxz             0.0       0.1       0.2       0.0       0.0       0.0
 0 C  dyz             0.0       0.0       0.3       0.0       0.0       0.0
 0 C  dx2y2           0.4       0.1       0.0       0.0       0.0       0.1
 0 C  dxy             0.3       0.0       0.0       0.0       0.0       0.0
 1 C  s               0.2       0.1       0.0       0.2       0.0       0.6
 1 C  pz              1.6      10.6      10.5       0.4       0.1       0.1
 1 C  px              1.2       4.9       0.9       6.9       0.0       4.2
 1 C  py              1.1       7.1       8.1       0.0       0.1       3.1
 1 C  dz2             0.2       0.1       0.3       0.1       0.0       0.0
 1 C  dxz             0.0       0.2       0.3       0.0       0.0       0.0
 1 C  dyz             0.0       0.1       0.3       0.0       0.0       0.0
 1 C  dx2y2           0.1       0.3       0.0       0.1       0.0       0.1
 1 C  dxy             0.2       0.0       0.0       0.1       0.0       0.0
 2 C  s               0.3       0.0       0.0       1.1       0.0       0.5
 2 C  pz              0.3       5.4       2.2       0.0       0.3       0.0
 2 C  px              7.4       0.6       0.1       0.7       0.0       1.0
 2 C  py              0.0       0.6       0.6       5.7       0.0       0.6
 2 C  dz2             0.0       0.0       0.0       0.0       0.2       0.0
 2 C  dxz             0.0       0.1       0.2       0.0       0.1       0.0
 2 C  dyz             0.0       0.4       0.0       0.0       1.8       0.4
 2 C  dx2y2           0.0       0.2       0.1       0.8       0.0       0.2
 2 C  dxy             0.1       0.0       0.1       0.1       0.3       4.1
 3 O  s               0.0       0.2       0.1       1.3       0.0       0.0
 3 O  pz              0.3      14.2       3.0       0.1      28.7       6.3
 3 O  px              7.2       1.3       0.2       0.3       3.0      63.4
 3 O  py              0.4       0.6       1.9       9.6       0.3       1.0
 4 O  s               0.6       0.0       0.0       5.2       0.0       0.3
 4 O  pz              0.6       2.7       1.9       0.0      45.8       0.2
 4 O  px              0.1       0.0       0.8       2.9       3.4       1.0
 4 O  py              2.9       0.3       1.3      33.0       0.2       8.1
 5 C  s               0.0       0.0       0.0       0.3       0.0       0.1
 5 C  pz              2.2       3.9       1.5       0.0       3.8       0.1
 5 C  px              0.4       0.0       0.8       1.4       0.2       0.9
 5 C  py              6.1       0.1       0.6       9.4       0.0       0.1
 5 C  dz2             0.0       0.0       0.0       0.1       0.1       0.0
 5 C  dxz             0.1       0.1       0.0       0.1       0.5       0.0
 5 C  dyz             0.0       0.1       0.1       0.0       0.6       0.0
 5 C  dx2y2           0.0       0.0       0.0       0.2       0.1       0.1
 5 C  dxy             0.3       0.0       0.0       0.3       0.0       0.0
 6 H  s               2.5       0.1      12.8       1.3       0.1       0.0
 7 H  s              16.2       0.4       0.0       2.9       0.0       0.6
 8 H  s               6.0       7.9       6.4       0.0       0.2       0.3
 9 H  s               1.3       9.1       5.2       0.2       0.0       1.4
10 H  s               1.5       0.1      14.2       1.8       0.0       0.1
11 H  s               3.4       2.1       0.5       2.6       4.7       0.1
12 H  s               0.2       1.1       1.7       2.7       4.9       0.1
13 H  s               4.9       0.3       0.6       3.5       0.0       0.1

                     24        25        26        27        28        29   
                  -0.01978   0.04664   0.06434   0.08877   0.09133   0.09592
                   0.00000   0.00000   0.00000   0.00000   0.00000   0.00000
                  --------  --------  --------  --------  --------  --------
 0 C  s               2.8       7.4       3.9       8.8       4.5       0.4
 0 C  pz              1.4       2.8       0.7       1.2       1.0       2.7
 0 C  px              0.5       1.6       1.1       0.6       0.4       5.4
 0 C  py              0.3       0.0       0.0       0.6       1.5       2.0
 0 C  dz2             0.0       0.1       0.1       0.3       0.1       0.5
 0 C  dxz             0.0       0.3       0.1       0.1       0.0       0.0
 0 C  dyz             0.0       0.0       0.0       0.1       0.2       0.3
 0 C  dx2y2           0.1       0.0       0.0       0.0       0.1       0.0
 0 C  dxy             0.0       0.0       0.0       0.0       0.3       0.0
 1 C  s               0.1       7.1       2.9       4.0       4.5       0.0
 1 C  pz              0.4       1.1       1.3       1.3       0.4       1.8
 1 C  px              0.3       0.0       0.2       0.9       0.8       2.2
 1 C  py              0.0       0.3       0.2       4.7       8.0       1.3
 1 C  dz2             0.0       0.0       0.0       0.6       0.0       0.4
 1 C  dxz             1.8       0.0       0.0       0.0       0.2       0.0
 1 C  dyz             0.0       0.0       0.1       0.1       0.1       0.1
 1 C  dx2y2           0.2       0.0       0.0       0.4       0.5       0.1
 1 C  dxy             0.0       0.0       0.0       0.0       0.2       0.0
 2 C  s               0.0       2.1       0.1       1.2       1.1       0.2
 2 C  pz             41.8       1.4       0.7       0.7       0.2       0.3
 2 C  px              3.0       1.1       0.3       0.7       0.1       0.3
 2 C  py              0.3       0.6       0.2       0.8       0.9       0.5
 2 C  dz2             0.0       0.5       0.0       0.4       0.1       0.0
 2 C  dxz             0.3       0.2       0.0       0.4       0.1       0.0
 2 C  dyz             0.8       0.0       0.0       0.0       0.0       0.0
 2 C  dx2y2           0.1       0.0       0.1       0.7       0.4       0.2
 2 C  dxy             0.0       0.0       0.0       0.1       0.1       0.0
 3 O  s               0.0       0.9       0.1       0.1       0.0       0.0
 3 O  pz             23.6       0.4       0.5       0.0       0.1       0.3
 3 O  px              2.0       0.2       0.4       0.6       0.1       0.3
 3 O  py              0.2       0.1       0.0       0.0       0.0       0.1
 3 O  dyz             0.5       0.0       0.0       0.0       0.0       0.0
 4 O  s               0.0       2.2       0.4       4.2       0.4       5.6
 4 O  pz              9.2       0.1       0.1       0.1       0.0       0.4
 4 O  px              0.7       0.3       0.4       0.9       0.0       4.2
 4 O  py              0.1       0.2       0.1       1.4       0.4       1.0
 4 O  dz2             0.1       0.0       0.0       0.1       0.0       0.1
 4 O  dxz             0.2       0.0       0.1       0.1       0.0       0.0
 4 O  dyz             0.1       0.0       0.0       0.0       0.0       0.0
 4 O  dx2y2           0.0       0.0       0.1       0.2       0.2       0.2
 4 O  dxy             0.0       0.0       0.1       0.0       0.1       0.1
 5 C  s               0.0       5.2      20.4       0.8       0.1       3.6
 5 C  pz              0.2       0.2       0.3       0.4       0.3       2.7
 5 C  px              0.0       5.5       1.6       8.0       0.6      16.6
 5 C  py              0.0       1.4       0.1       3.6       6.3       2.4
 5 C  dz2             0.0       0.1       0.0       0.6       0.3       0.5
 5 C  dxz             0.1       0.1       0.0       0.4       0.1       0.4
 5 C  dyz             0.3       0.0       0.0       0.0       0.1       0.0
 5 C  dx2y2           0.0       0.2       0.0       0.7       0.1       1.2
 5 C  dxy             0.0       0.1       0.0       0.2       0.1       1.3
 6 H  s               0.5       8.8       2.2      14.5       5.1      12.9
 7 H  s               2.3       7.4       5.3       4.2       0.3       8.3
 8 H  s               0.1       5.7       2.8       1.9      11.8       5.2
 9 H  s               0.6       7.9       2.8       2.3      29.6       2.3
10 H  s               2.9       7.0       5.8      23.6       1.0       7.8
11 H  s               0.8       7.2      12.7       0.8       0.4       3.0
12 H  s               0.9       6.5      15.6       0.3       5.8       0.2
13 H  s               0.0       5.1      16.5       1.2      10.9       0.2

                     30        31        32        33        34        35   
                   0.10452   0.11596   0.12264   0.13489   0.17096   0.21034
                   0.00000   0.00000   0.00000   0.00000   0.00000   0.00000
                  --------  --------  --------  --------  --------  --------
 0 C  s               1.2       0.7       0.0       0.0       2.2       0.6
 0 C  pz              0.1       0.7       1.6       3.2       7.9       8.9
 0 C  px              0.4       0.2      11.1       2.2      10.5       4.2
 0 C  py              3.2       0.4       7.9      10.6       0.4       0.6
 0 C  dz2             0.0       0.1       0.0       0.1       0.3       1.7
 0 C  dxz             0.2       0.0       0.1       0.2       3.2       1.1
 0 C  dyz             0.1       0.0       0.2       0.1       0.0       0.7
 0 C  dx2y2           0.0       0.0       0.5       0.5       0.3       0.0
 0 C  dxy             0.2       0.0       0.4       0.4       0.3       0.1
 1 C  s               1.3       1.2       0.9       0.0       3.9       0.1
 1 C  pz              0.8       0.2       1.7       2.1      15.9       4.3
 1 C  px              0.2       1.1       0.2       2.6       0.1      27.5
 1 C  py              1.9       0.1       1.1       4.0       2.7       2.2
 1 C  dz2             0.0       0.0       0.3       0.0       0.2       2.3
 1 C  dxz             0.1       0.2       0.0       0.0       0.7       2.5
 1 C  dyz             0.4       0.0       0.4       0.0       0.8       0.0
 1 C  dx2y2           0.0       0.0       0.1       0.2       1.2       0.4
 1 C  dxy             0.0       0.0       0.0       0.6       0.9       3.4
 2 C  s               0.8       0.1       0.4       0.5      14.4      14.2
 2 C  pz              0.1       0.7       1.2       0.0       1.9       2.1
 2 C  px              0.0       0.1       0.3       0.3       0.6       3.9
 2 C  py              0.0       0.1       0.3       1.8       0.4       2.0
 2 C  dz2             0.3       0.0       0.1       0.1       4.2       1.5
 2 C  dxz             0.0       0.1       0.0       0.0       0.2       0.9
 2 C  dyz             0.0       0.0       0.0       0.0       0.4       0.0
 2 C  dx2y2           0.1       0.0       0.1       0.2       0.1       0.1
 2 C  dxy             0.1       0.0       0.0       0.3       0.0       0.2
 3 O  s               0.0       0.0       0.1       0.4       1.0       0.6
 3 O  pz              0.0       0.1       0.0       0.3       0.9       0.7
 3 O  px              0.1       0.2       0.6       0.4       0.2       0.4
 3 O  py              0.1       0.0       0.0       0.1       0.9       1.1
 3 O  dxy             0.0       0.0       0.0       0.0       0.0       0.2
 4 O  s               0.0       0.5       0.4       0.4       0.0       0.1
 4 O  pz              0.0       1.8       0.2       0.0       0.0       0.7
 4 O  px              0.8       0.2       0.8       2.2       4.4       1.4
 4 O  py              0.5       0.3       0.4       0.2       0.8       0.3
 4 O  dxz             0.0       0.2       0.0       0.0       0.0       0.0
 4 O  dxy             0.2       0.0       0.0       0.0       0.3       0.2
 5 C  s               0.1       0.2       0.1       0.5       0.0       0.0
 5 C  pz              1.3      19.5       3.4       0.8       0.6       0.0
 5 C  px              6.3       6.3       1.4       2.8       2.1       0.6
 5 C  py             12.7       0.3       0.3       1.3       3.4       0.5
 5 C  dz2             0.2       0.2       0.0       0.2       0.4       0.1
 5 C  dxz             0.0       0.1       0.1       0.2       0.1       0.0
 5 C  dyz             0.1       1.2       0.0       0.0       0.0       0.0
 5 C  dx2y2           0.3       0.1       0.2       0.2       0.1       0.0
 5 C  dxy             0.8       0.0       0.2       0.3       0.3       0.2
 6 H  s               0.2       0.0       1.9      20.4       0.5       0.3
 7 H  s               0.3       2.9      37.1       0.1       1.2       2.2
 8 H  s               9.9       0.1      10.6      16.8       0.5       1.3
 9 H  s               7.4       0.9       4.3       7.7       1.4       0.6
10 H  s               1.2       2.6       2.2      12.7       2.4       1.5
11 H  s               8.2      28.8       4.1       0.2       0.7       0.7
12 H  s               5.4      27.3       1.8       0.8       3.5       0.1
13 H  s              32.0       0.0       0.6       0.9       0.9       0.3

                     36        37        38        39        40        41   
                   0.26147   0.29746   0.39073   0.40211   0.40655   0.41317
                   0.00000   0.00000   0.00000   0.00000   0.00000   0.00000
                  --------  --------  --------  --------  --------  --------
 0 C  s               0.0       0.0       0.2       0.3       0.2       0.1
 0 C  pz              4.6       0.2      17.1       1.0       0.9       4.4
 0 C  px              0.8       1.0       4.2       0.9       3.9       0.0
 0 C  py              0.5       0.2       0.1      25.0       5.4       0.1
 0 C  dz2             0.0       0.0       0.6       2.6       1.3       0.0
 0 C  dxz             1.6       0.1       1.4       0.1       0.0       0.3
 0 C  dyz             0.0       0.0       2.9       0.5       0.5       0.3
 0 C  dx2y2           1.1       0.0       0.6       4.0       0.6       0.0
 0 C  dxy             0.1       0.1       0.9       0.3       0.1       0.0
 1 C  s               4.3       0.2       0.1       0.9       0.5       1.1
 1 C  pz              3.0       0.2       3.6       8.6       1.3       3.9
 1 C  px              7.2       0.3       1.9       0.3       5.5       0.1
 1 C  py              3.8       1.7       3.9       0.4       0.1       0.7
 1 C  dz2             0.1       0.4       2.2       0.1       0.0       0.3
 1 C  dxz             0.0       0.3       0.0       0.5       0.4       0.3
 1 C  dyz             0.2       0.3       0.1       2.6       0.4       0.1
 1 C  dx2y2           1.8       1.9       0.5       0.0       0.2       0.3
 1 C  dxy             1.0       1.2       0.1       0.1       0.3       0.2
 2 C  s              14.1       3.3       7.9       0.2       0.9       1.7
 2 C  pz              0.7       1.7       5.6       2.4       4.6       4.8
 2 C  px             13.7      12.5       1.4       0.4       1.4       2.0
 2 C  py              5.6      21.5       2.5       1.8       0.6       2.3
 2 C  dz2             1.8       0.1       0.0       0.1       0.2       0.0
 2 C  dxz             0.2       0.4       0.1       0.0       0.1       0.1
 2 C  dyz             0.1       0.2       0.0       0.1       0.0       0.0
 2 C  dx2y2           2.8       0.7       0.9       0.0       0.7       0.0
 2 C  dxy             0.2       3.2       0.1       0.0       0.0       0.0
 3 O  s               5.7       3.5       0.9       0.7       0.1       0.6
 3 O  pz              0.0       0.4       0.1       0.3       0.0       0.3
 3 O  px              1.7       3.8       0.1       0.7       0.2       0.1
 3 O  py              1.8       0.2       0.9       0.0       0.1       0.0
 3 O  dz2             0.0       0.0       0.1       0.0       0.0       0.0
 3 O  dx2y2           0.1       0.1       0.1       0.0       0.1       0.0
 3 O  dxy             0.4       0.6       0.0       0.0       0.0       0.0
 4 O  s               0.9       5.3       0.1       0.2       0.2       0.4
 4 O  pz              0.4       1.2       0.9       0.2       1.3       2.4
 4 O  px              1.4       8.9       1.0       0.1       1.4       0.4
 4 O  py              2.0       1.0       1.1       0.9       1.5       3.5
 4 O  dz2             0.0       0.1       0.1       0.2       0.3       0.2
 4 O  dxz             0.1       0.1       0.0       0.0       0.0       0.6
 4 O  dyz             0.1       0.1       0.2       0.0       0.1       0.0
 4 O  dx2y2           0.8       0.0       0.1       0.0       0.4       0.0
 4 O  dxy             0.2       1.0       1.0       0.0       0.6       0.0
 5 C  s               0.6       0.1       1.0       0.5       4.9       1.8
 5 C  pz              0.3       0.1       2.7       3.7       3.5      25.5
 5 C  px              4.9       2.6       1.6       2.1      19.0       3.3
 5 C  py              0.8       0.5       1.2       3.9      14.2      10.0
 5 C  dz2             0.1       0.0       0.1       0.5       1.5       0.4
 5 C  dxz             0.1       0.0       0.0       0.3       0.6       0.1
 5 C  dyz             0.0       0.1       0.5       0.5       0.7       5.7
 5 C  dx2y2           0.0       0.0       0.2       0.0       0.0       0.0
 5 C  dxy             0.1       1.3       0.0       0.5       0.6       0.1
 6 H  s               1.7       0.4      13.4       3.2       2.1       0.9
 7 H  s               1.0       0.3       2.9       0.7       0.5       0.2
 8 H  s               1.9       0.6       0.1      15.9       4.1       0.1
 9 H  s               1.8       7.1       5.1       1.2       0.1       1.7
10 H  s               0.2       5.0       2.2       5.1       1.0       0.6
11 H  s               0.5       0.1       0.0       4.1       9.3       3.5
12 H  s               0.3       0.1       2.8       0.2       0.1      13.9
13 H  s               0.7       3.4       0.3       1.0       1.2       0.4

                     42        43        44        45        46        47   
                   0.43084   0.45380   0.47916   0.53819   0.58663   0.60259
                   0.00000   0.00000   0.00000   0.00000   0.00000   0.00000
                  --------  --------  --------  --------  --------  --------
 0 C  s               2.4       0.2       0.6       3.3       3.9       5.2
 0 C  pz              8.6       6.8       3.2       7.0       0.4       2.0
 0 C  px             10.5       0.8       0.1      11.5       2.2       0.7
 0 C  py              4.1       0.3       0.1       0.6       0.5       0.3
 0 C  dz2             0.2       0.4       0.0       0.1       0.1       0.0
 0 C  dxz             1.7       0.2       0.0       0.0       0.1       0.1
 0 C  dyz             0.0       0.2       0.1       0.1       0.0       0.1
 0 C  dx2y2           1.4       0.1       0.0       0.1       0.3       0.1
 0 C  dxy             0.9       1.0       0.2       0.0       0.6       0.3
 1 C  s               0.6       0.9       1.6       9.3       0.3       0.7
 1 C  pz              8.0       0.2       3.7       5.8       3.9      11.0
 1 C  px              1.7       2.6      12.0       4.8       8.8      12.7
 1 C  py              0.2       1.0       4.5       4.7       0.2       0.2
 1 C  dz2             0.3       0.1       0.1       0.1       0.0       0.1
 1 C  dxz             2.8       0.3       0.1       0.0       0.3       0.1
 1 C  dyz             0.1       0.1       0.6       0.1       0.0       0.0
 1 C  dx2y2           0.4       1.1       0.1       0.0       0.0       0.1
 1 C  dxy             0.5       0.0       0.4       0.2       0.0       0.0
 2 C  s               2.1       7.1       8.0       6.5       1.0       6.8
 2 C  pz             15.3       0.3      11.8       7.0      10.8       5.6
 2 C  px              0.5      16.8       5.8       6.1       1.9       0.0
 2 C  py              1.5       5.8       6.2       0.6       6.4      17.8
 2 C  dz2             0.1       0.1       0.7       0.3       0.3       0.7
 2 C  dxz             0.9       0.0       0.4       0.0       0.2       0.1
 2 C  dyz             0.2       0.0       0.0       0.1       0.0       0.0
 2 C  dx2y2           0.0       0.0       0.5       0.1       1.3       2.2
 2 C  dxy             0.0       0.3       0.7       0.7       0.0       0.4
 3 O  s               0.3       0.2       0.2       0.2       1.0       0.2
 3 O  pz              0.2       0.3       1.2       0.2       0.2       1.2
 3 O  px              0.3       3.5       3.1       0.5       0.1       0.3
 3 O  py              0.1       0.2       0.0       0.7       1.8       7.6
 3 O  dz2             0.0       0.0       0.1       0.2       0.1       1.1
 3 O  dyz             0.2       0.0       0.0       0.0       0.0       0.0
 3 O  dx2y2           0.0       0.2       0.0       0.0       0.9       2.8
 3 O  dxy             0.0       0.0       0.2       0.3       0.0       0.3
 4 O  s               0.1       0.2       0.4       0.0       1.6       0.0
 4 O  pz              0.6       0.1       0.1       0.0       1.5       0.1
 4 O  px              0.2       0.8       0.5       3.1       3.4       0.5
 4 O  py              0.4       1.1       3.7       0.9       0.3       0.2
 4 O  dz2             0.0       0.7       0.3       0.0       0.0       0.0
 4 O  dxz             0.0       0.3       0.0       0.0       0.2       0.0
 4 O  dx2y2           0.1       0.4       0.2       0.0       0.1       0.2
 4 O  dxy             0.2       0.5       0.5       0.0       0.3       0.0
 5 C  s               0.1       1.7       0.5       1.1       4.3       2.5
 5 C  pz              7.7       0.1       5.5       1.1       0.1       0.2
 5 C  px              2.4      11.1       1.3       4.4       8.1       3.3
 5 C  py              0.1       3.7       8.1       0.5       5.4       0.1
 5 C  dz2             0.0       1.3       1.2       0.2       0.2       0.0
 5 C  dxz             0.0       0.6       0.0       0.0       0.0       0.1
 5 C  dyz             2.0       1.0       0.3       0.0       0.2       0.0
 5 C  dx2y2           0.0       0.0       1.0       0.0       1.1       0.0
 5 C  dxy             0.1       1.8       1.1       0.3       0.0       0.3
 6 H  s               0.5       2.5       0.3       1.4       1.7       2.5
 7 H  s               8.3       2.4       0.2       0.0      10.3       0.6
 8 H  s               1.6       0.2       0.1       1.3       0.6       4.9
 9 H  s               1.3       3.2       0.3       3.1       0.0       0.3
10 H  s               2.5       0.1       0.7       8.1       0.6       0.1
11 H  s               3.5       0.3       0.9       0.1       5.0       1.0
12 H  s               1.9       3.0       0.9       0.4       3.0       0.6
13 H  s               0.1      11.6       5.4       2.6       4.1       1.9

                     48        49        50        51        52        53   
                   0.61597   0.62282   0.63068   0.63585   0.64376   0.65309
                   0.00000   0.00000   0.00000   0.00000   0.00000   0.00000
                  --------  --------  --------  --------  --------  --------
 0 C  s               1.5       0.4       0.8       1.2      14.0       4.9
 0 C  pz              6.5       0.1       1.9       0.6       5.6       0.4
 0 C  px              1.2       0.6       0.1       0.4       2.2       2.5
 0 C  py              1.1       3.6       0.2       1.4       1.8      15.8
 0 C  dz2             0.1       0.1       0.0       0.0       0.3       0.4
 0 C  dxz             0.7       0.2       0.1       0.0       0.0       0.2
 0 C  dyz             0.2       0.2       0.1       0.3       0.9       0.2
 0 C  dx2y2           0.0       0.1       0.1       0.2       0.7       0.6
 0 C  dxy             0.4       0.0       0.0       0.0       0.6       0.8
 1 C  s               8.1       0.3       2.7       0.9       7.8       1.3
 1 C  pz              0.6       0.4       2.2       7.5       3.6       1.8
 1 C  px             15.6       1.0       1.7       0.6       0.9       5.5
 1 C  py              4.3       5.7       0.0       0.2       1.4      20.1
 1 C  dz2             0.0       0.1       0.0       0.0       0.0       0.1
 1 C  dxz             0.4       0.2       0.1       0.0       0.0       0.1
 1 C  dx2y2           0.4       0.0       0.0       0.0       0.0       0.2
 1 C  dxy             0.0       0.0       0.0       0.0       0.2       0.0
 2 C  s               0.6       2.6       0.0       0.6       6.0       1.6
 2 C  pz              8.8       1.4       0.3       0.7       5.6       1.7
 2 C  px              0.6       0.0       0.0       0.2       0.6       0.2
 2 C  py              3.3       8.8       0.0       5.2       0.6       3.2
 2 C  dxz             0.1       0.0       0.0       0.0       0.0       0.0
 2 C  dx2y2           0.5       0.7       0.0       0.5       0.1       0.4
 3 O  s               0.1       0.3       0.0       0.5       0.2       0.4
 3 O  pz              1.2       0.2       0.4       0.0       0.9       0.0
 3 O  px              0.2       1.2       0.1       0.3       0.0       0.2
 3 O  py              1.5       3.2       0.0       0.8       0.6       1.3
 3 O  dz2             0.1       0.5       0.0       0.2       0.1       0.5
 3 O  dx2y2           0.2       1.7       0.0       0.2       0.6       0.5
 3 O  dxy             0.0       0.2       0.0       0.0       0.0       0.1
 4 O  s               0.2       0.5       0.0       0.1       0.0       0.0
 4 O  pz              0.4       0.1       0.4       0.1       0.1       0.5
 4 O  px              0.4       0.4       0.1       0.2       0.0       1.0
 4 O  py              0.7       0.0       0.2       1.2       0.2       0.1
 5 C  s              11.1      35.9       1.6       1.7       0.1       0.5
 5 C  pz              6.0       0.4      39.1       7.3       0.4       0.8
 5 C  px              3.8      11.9       1.7       0.0       3.1       0.2
 5 C  py              0.1       0.1       3.0      31.7       9.8       0.3
 5 C  dz2             0.1       0.0       0.1       0.2       0.2       0.0
 5 C  dxz             0.0       0.0       0.4       0.4       0.1       0.0
 5 C  dyz             0.1       0.0       2.2       0.2       0.6       0.0
 5 C  dx2y2           0.1       0.0       0.2       0.2       0.0       0.0
 5 C  dxy             0.1       0.1       0.1       0.8       0.3       0.0
 6 H  s               0.1       0.1       1.4       3.2       7.9       2.1
 7 H  s               1.6       0.8       0.1       0.0       4.9       0.9
 8 H  s               0.4       1.4       0.0       0.5       0.4      14.5
 9 H  s               5.9       1.1       0.9       1.0       0.0       7.9
10 H  s               4.2       1.2       2.9       1.2       2.6       5.7
11 H  s               0.5       4.6       9.6      18.8       0.0       0.3
12 H  s               2.1       0.7      24.9       1.5       4.1       0.0
13 H  s               3.9       6.7       0.0       6.5       9.7       0.0

                     54        55        56        57        58        59   
                   0.65788   0.67223   0.67901   0.68368   0.72944   0.78111
                   0.00000   0.00000   0.00000   0.00000   0.00000   0.00000
                  --------  --------  --------  --------  --------  --------
 0 C  s              25.5       1.5       0.5       5.3       0.0       1.0
 0 C  pz              4.0       5.3       7.0      14.9       1.5       0.0
 0 C  px             19.0       3.3       5.4      11.9       2.5       3.0
 0 C  py              1.3      15.4      24.3       0.0       3.2       1.4
 0 C  dz2             0.1       0.3       0.0       0.0       0.0       0.0
 0 C  dxz             0.1       0.0       0.1       0.3       0.6       0.2
 0 C  dyz             0.0       0.2       0.0       0.0       0.0       0.2
 0 C  dx2y2           0.2       0.0       0.2       0.0       1.7       0.5
 0 C  dxy             0.4       0.0       0.4       0.0       2.9       0.1
 1 C  s               4.8       0.0       3.2       7.1       0.3      12.5
 1 C  pz              8.0      11.1       5.5       2.1       1.0       1.0
 1 C  px              1.2       0.6       1.0       4.2       3.1       0.7
 1 C  py              2.3       9.1       9.9       1.4      18.1       3.1
 1 C  dz2             0.0       0.2       0.1       0.1       2.7       0.4
 1 C  dxz             0.0       0.1       0.0       0.0       0.9       0.0
 1 C  dyz             0.0       0.0       0.5       0.0       1.4       0.2
[...]
10 H  s               1.7       3.5       0.2       1.2       0.2       0.1
11 H  s               0.1       0.0       0.0       0.0       0.0       0.0
13 H  s               0.4       0.0       0.0       0.2       0.2       0.0

                     90        91        92        93        94        95   
                   2.55575   2.63569   2.71398   2.84122   2.85601   3.05076
                   0.00000   0.00000   0.00000   0.00000   0.00000   0.00000
                  --------  --------  --------  --------  --------  --------
 0 C  s               0.2       0.2       0.0       0.0       0.0       0.0
 0 C  pz              0.2       0.1       0.0       0.0       0.0       0.0
 0 C  px              0.1       0.1       0.0       0.0       0.0       0.0
 0 C  dz2             0.5       0.1       0.1       0.1       0.2       0.0
 0 C  dxz             1.1       1.1       0.1       0.0       0.1       0.0
 0 C  dyz             0.1       0.0       0.0       0.1       0.0       0.0
 0 C  dx2y2           0.2       0.3       0.0       0.1       0.0       0.0
 1 C  s               0.0       0.1       0.0       0.0       0.0       0.3
 1 C  px              0.2       0.6       0.0       0.0       0.0       0.2
 1 C  py              0.0       0.2       0.0       0.0       0.1       0.0
 1 C  dz2             0.2       2.3       0.0       0.1       0.3       0.1
 1 C  dxz             3.2       1.1       0.6       0.8       0.0       0.2
 1 C  dyz             0.0       0.0       0.0       0.6       0.1       0.0
 1 C  dx2y2           0.1       0.0       0.1       0.1       1.8       1.1
 1 C  dxy             0.1       0.8       0.0       0.1       1.8       0.0
 2 C  s               0.1       0.1       0.0       0.0       0.3       1.2
 2 C  pz              0.3       0.0       0.1       0.9       0.1       0.2
 2 C  px              0.1       0.5       0.0       0.1       0.2       1.3
 2 C  py              0.0       0.3       0.0       0.0       0.2       1.9
 2 C  dz2             0.1       2.9       0.3       2.6       0.3       2.1
 2 C  dxz             0.1       0.8       0.6      10.3       0.6       0.4
 2 C  dyz             0.3       0.0       0.1       0.1       0.1       0.0
 2 C  dx2y2           0.0       0.1       0.0       0.3       9.8       0.0
 2 C  dxy             0.1       0.2       0.0       0.1       2.5       2.9
 3 O  s               0.0       0.0       0.0       0.1       1.3       0.4
 3 O  pz              0.0       0.0       0.0       0.2       0.0       0.0
 3 O  px              0.0       0.0       0.0       0.1       0.3       0.4
 3 O  py              0.0       0.0       0.0       0.0       0.5       0.3
 3 O  dz2             9.8      39.5       0.4       2.7       5.3       0.1
 3 O  dxz            59.9      20.2       2.3       6.9       0.5       0.1
 3 O  dyz             0.0       0.9       4.2      11.2       1.1       1.5
 3 O  dx2y2           3.8      15.5       0.6       0.1       0.7       0.0
 3 O  dxy             0.2       1.0       0.2       2.8       8.3      21.9
 4 O  s               0.0       0.1       0.0       0.0       0.6       7.5
 4 O  pz              0.3       0.0       0.9       0.7       0.0       0.0
 4 O  px              0.0       0.0       0.1       0.0       1.5       0.1
 4 O  py              0.0       0.4       0.0       0.0       1.1       1.0
 4 O  dz2             0.9       4.4       4.3      12.8      20.7      27.9
 4 O  dxz             0.9       0.1      33.8      16.2       2.6      12.6
 4 O  dyz            14.9       0.4      32.3      26.7       0.6       1.2
 4 O  dx2y2           0.0       2.7       5.2       0.1      15.8       5.3
 4 O  dxy             1.5       0.2       1.2       1.7      13.1       3.5
 5 C  s               0.0       0.2       0.0       0.0       0.7       0.5
 5 C  pz              0.0       0.0       0.4       0.0       0.1       0.0
 5 C  px              0.0       0.2       0.0       0.0       0.7       0.6
 5 C  py              0.0       0.1       0.0       0.0       0.0       0.2
 5 C  dz2             0.1       0.2       1.9       0.0       0.6       0.6
 5 C  dxz             0.2       0.3       7.5       0.2       1.1       0.2
 5 C  dyz             0.0       0.1       1.3       0.7       0.1       0.1
 5 C  dx2y2           0.0       0.1       1.0       0.0       3.6       0.1
 5 C  dxy             0.0       0.8       0.0       0.2       0.5       1.6
13 H  s               0.0       0.1       0.0       0.0       0.0       0.0

                     96        97        98        99   
                   3.12162   3.31138   3.48809   3.55610
                   0.00000   0.00000   0.00000   0.00000
                  --------  --------  --------  --------
 0 C  dz2             0.1       0.0       0.0       0.0
 1 C  s               0.0       0.2       0.1       0.1
 1 C  px              0.0       0.0       0.3       0.0
 1 C  dz2             0.1       0.1       0.1       0.0
 1 C  dxz             0.7       0.0       0.2       0.0
 1 C  dx2y2           0.0       0.0       1.4       0.0
 1 C  dxy             0.0       0.6       0.1       0.4
 2 C  s               0.0       3.2       0.1       6.8
 2 C  pz              0.5       0.1       0.1       0.0
 2 C  px              0.0       1.3       0.4       0.3
 2 C  py              0.0       0.1       3.0       4.5
 2 C  dz2             0.5       0.2       0.0       1.5
 2 C  dxz             0.0       0.8       0.2       0.0
 2 C  dyz            18.9       0.1       1.5       0.5
 2 C  dx2y2           0.1       5.7       0.1       8.8
 2 C  dxy             1.3       0.5      19.3       1.2
 3 O  s               0.0       1.5       0.9       4.4
 3 O  pz              1.0       0.0       0.1       0.0
 3 O  px              0.1       0.1       0.5       0.4
 3 O  py              0.0       0.6       0.8       3.1
 3 O  dz2             0.1       3.1       1.6      12.2
 3 O  dxz             2.4       0.0       0.0       0.0
 3 O  dyz            55.0       1.3       2.0       0.0
 3 O  dx2y2           1.2       8.7      14.6      28.4
 3 O  dxy             3.3       3.9      12.5      14.6
 4 O  s               0.0       0.1       0.5       0.3
 4 O  pz              0.0       0.2       0.2       0.0
 4 O  px              0.0       2.1       2.7       0.1
 4 O  py              0.0       0.2       0.3       0.1
 4 O  dz2             2.8       0.3       1.0       0.6
 4 O  dxz             9.2       2.2       1.5       1.7
 4 O  dyz             0.6       2.9       2.6       0.0
 4 O  dx2y2           0.7      27.8       0.5       8.1
 4 O  dxy             0.4      22.9      28.7       0.9
 5 C  s               0.0       1.1       0.3       0.0
 5 C  px              0.0       1.5       0.4       0.0
 5 C  py              0.0       0.4       0.0       0.0
 5 C  dz2             0.1       0.9       0.0       0.1
 5 C  dxz             0.3       0.5       0.2       0.0
 5 C  dyz             0.3       0.2       0.0       0.0
 5 C  dx2y2           0.1       1.3       0.9       0.0
 5 C  dxy             0.0       2.9       0.0       0.4


                      *****************************
                      * MAYER POPULATION ANALYSIS *
                      *****************************

  NA   - Mulliken gross atomic population
  ZA   - Total nuclear charge
  QA   - Mulliken gross atomic charge
  VA   - Mayer's total valence
  BVA  - Mayer's bonded valence
  FA   - Mayer's free valence

  ATOM       NA         ZA         QA         VA         BVA        FA
  0 C      6.3031     6.0000    -0.3031     4.0396     4.0396    -0.0000
  1 C      6.1406     6.0000    -0.1406     3.9895     3.9895    -0.0000
  2 C      5.9075     6.0000     0.0925     4.4062     4.4062     0.0000
  3 O      8.2010     8.0000    -0.2010     2.2863     2.2863     0.0000
  4 O      8.2448     8.0000    -0.2448     2.2609     2.2609     0.0000
  5 C      6.1128     6.0000    -0.1128     3.8909     3.8909     0.0000
  6 H      0.8895     1.0000     0.1105     0.9515     0.9515    -0.0000
  7 H      0.8843     1.0000     0.1157     0.9465     0.9465    -0.0000
  8 H      0.8790     1.0000     0.1210     0.9591     0.9591     0.0000
  9 H      0.9003     1.0000     0.0997     0.9634     0.9634     0.0000
 10 H      0.8910     1.0000     0.1090     0.9565     0.9565    -0.0000
 11 H      0.8822     1.0000     0.1178     0.9651     0.9651     0.0000
 12 H      0.8836     1.0000     0.1164     0.9631     0.9631     0.0000
 13 H      0.8802     1.0000     0.1198     0.9552     0.9552     0.0000

  Mayer bond orders larger than 0.100000
B(  0-C ,  1-C ) :   1.1423 B(  0-C ,  6-H ) :   0.9549 B(  0-C ,  7-H ) :   0.9531 
B(  0-C ,  8-H ) :   0.9520 B(  1-C ,  2-C ) :   1.0246 B(  1-C ,  9-H ) :   0.9118 
B(  1-C , 10-H ) :   0.9074 B(  2-C ,  3-O ) :   2.0678 B(  2-C ,  4-O ) :   1.1982 
B(  4-O ,  5-C ) :   0.9487 B(  5-C , 11-H ) :   0.9509 B(  5-C , 12-H ) :   0.9522 
B(  5-C , 13-H ) :   0.9589 

-------
TIMINGS
-------

Total SCF time: 0 days 0 hours 0 min 0 sec 

Total time                  ....       0.751 sec
Sum of individual times     ....       0.737 sec  ( 98.1%)

SCF preparation             ....       0.032 sec  (  4.3%)
Fock matrix formation       ....       0.651 sec  ( 86.7%)
  Startup                   ....       0.001 sec  (  0.1% of F)
  Split-RI-J                ....       0.263 sec  ( 40.4% of F)
  XC integration            ....       0.384 sec  ( 58.9% of F)
    Basis function eval.    ....       0.168 sec  ( 43.8% of XC)
    Density eval.           ....       0.079 sec  ( 20.5% of XC)
    XC-Functional eval.     ....       0.037 sec  (  9.7% of XC)
    XC-Potential eval.      ....       0.080 sec  ( 20.9% of XC)
Diagonalization             ....       0.000 sec  (  0.0%)
Density matrix formation    ....       0.002 sec  (  0.2%)
Total Energy calculation    ....       0.000 sec  (  0.0%)
Population analysis         ....       0.043 sec  (  5.8%)
Orbital Transformation      ....       0.002 sec  (  0.2%)
Orbital Orthonormalization  ....       0.000 sec  (  0.0%)
DIIS solution               ....       0.002 sec  (  0.3%)
  MO trafo                  ....       0.000 sec  (  0.0 % of DIIS)
  Orb grad                  ....       0.000 sec  (  0.0 % of DIIS)
  Energy W gradient         ....       0.000 sec  (  0.0 % of DIIS)
  DIIS error                ....       0.000 sec  ( 13.4 % of DIIS)
  DIIS work                 ....       0.002 sec  ( 84.4 % of DIIS)
  Form Q                    ....       0.000 sec  (  0.0 % of DIIS)
  Form QpQm                 ....       0.000 sec  (  0.0 % of DIIS)
  Exp/Cayley                ....       0.000 sec  (  0.0 % of DIIS)
  Orb update                ....       0.000 sec  (  0.0 % of DIIS)
  Wake-sleep                ....       0.000 sec  (  2.1 % of DIIS)
SOSCF solution              ....       0.005 sec  (  0.6%)
  MO trafo                  ....       0.003 sec  ( 66.8 % of SOSCF)
  Orb grad                  ....       0.000 sec  (  2.6 % of SOSCF)
  Rot update                ....       0.000 sec  (  3.0 % of SOSCF)
  Step                      ....       0.001 sec  ( 26.4 % of SOSCF)
Finished LeanSCF after   0.8 sec

Maximum memory used throughout the entire LEANSCF-calculation: 9.6 MB


-------------------------------------------------------------------------------
                          DFT DISPERSION CORRECTION                            
                                                                               
                                DFTD4 V3.4.0                                   
-------------------------------------------------------------------------------
The PBE functional is recognized
Active option DFTDOPT                   ...         5   

-------------------------   ----------------
Dispersion correction           -0.009143710
-------------------------   ----------------

------------------   -----------------
gCP correction             0.063324310
------------------   -----------------

-------------------------   --------------------
FINAL SINGLE POINT ENERGY      -307.026677509078
-------------------------   --------------------


------------------------------------------------------------------------------
                              ORCA PROPERTY CALCULATIONS
------------------------------------------------------------------------------

GBWName                                 ... sp.gbw
Number of atoms                         ...     14
Number of basis functions               ...    100
Max core memory                         ...   1024 MB

Electric properties:
Dipole moment                           ... YES
Quadrupole moment                       ...  NO
Static polarizability (Dipole/Dipole)   ...  NO
Static polarizability (Dipole/Quad.)    ...  NO
Static polarizability (Quad./Quad.)     ...  NO
Static polarizability (Velocity)        ...  NO

Atomic electric properties:
Dipole moment                           ...  NO
Quadrupole moment                       ...  NO
Static polarizability                   ...  NO

Choice of electric origin               ... Center of mass
Position of electric origin             ...    -0.000015     0.000011     0.000007

General magnetic properties:
Magnetizability                         ...  NO

EPR properties:
g-Tensor (aka g-matrix)                 ...  NO
Zero-Field splitting spin-orbit         ...  NO
Zero-field splitting spin-spin          ...  NO
Hyperfine couplings                     ...  NO (   0 nuclei)
Quadrupole couplings                    ...  NO (   0 nuclei)
Contact density                         ...  NO (   0 nuclei)

NMR properties:
Chemical shifts                         ...  NO (   0 nuclei)
Spin-rotation constants                 ...  NO (   0 nuclei)
Spin-spin couplings                     ...  NO (   0 nuclei,    0 pairs)

Choice of magnetic origin               ... GIAO
Position of magnetic origin             ...     0.000000     0.000000     0.000000

Properties with geometric perturbations:
SCF Hessian                             ...  NO
IR spectrum                             ...  NO
VCD spectrum                            ...  NO
X-ray spectroscopy properties:
SCF XES/XAS/RIXS spectra                ...  NO


-------------
DIPOLE MOMENT
-------------

Method             : SCF
Type of density    : Electron Density
Multiplicity       :   1
Irrep              :   0
Energy             :  -307.0808581091438327 Eh
Relativity type    : 
Basis              : AO
                                X                 Y                 Z
Electronic contribution:      2.570826799      -1.636998345      -1.739966885
Nuclear contribution   :     -2.440685935       2.261044504       1.897854643
                        -----------------------------------------
Total Dipole Moment    :      0.130140864       0.624046159       0.157887757
                        -----------------------------------------
Magnitude (a.u.)       :      0.656733430
Magnitude (Debye)      :      1.669283718



--------------------
Rotational spectrum 
--------------------
 
Rotational constants in cm-1:             0.243381             0.077052             0.067337 
Rotational constants in MHz :          7296.393237          2309.971166          2018.704428 

Dipole components along the rotational axes: 
x,y,z [a.u.] :     0.090465     0.650113    -0.021628 
x,y,z [Debye]:     0.229945     1.652456    -0.054975 

 

Dipole moment calculation done in   0.0 sec 

Maximum memory used throughout the entire PROP-calculation: 6.3 MB

--------------------------------
SUGGESTED CITATIONS FOR THIS RUN
--------------------------------

Below you find a list of papers that are relevant to this ORCA run
We neither can nor want to force you to cite these papers, but we appreciate if you do
You receive ORCA, which is the product of decades of hard work by many enthusiastic individuals, for free
The only thing we kindly ask in return is that you cite our papers,
We deeply appreciate it, if you show your appreciation for ORCA by not just citing the generic ORCA reference.

Please note that relegating all ORCA citations to the supporting information does *not* help us.
SI sections are not indexed - citations you put there will not count into any citation statistics
But we need these citations in order to attract the funding resources that allow us to do what we are doing

Therefore, if you are a happy ORCA user, please consider citing a few of the papers listed below in the main body of your paper

In addition to the list printed below, the program has created the file sp.bibtex that contains the list in bibtex format
You can import this file easily into all common literature databanks and citation aid programs


List of essential papers. We consider these as the minimum necessary citations

  1. Neese,F.
     Software update: the ORCA program system, version 5.0
     WIRES Comput. Molec. Sci., 2022 12(1)e1606
     doi.org/10.1002/wcms.1606

List of papers to cite with high priority. The work reported in these papers was absolutely
necessary for this run to complete.
Our perspective: the developers of density functionals and basis sets usually get cited in chemistry papers
Good! But without the algorithms to do something with them, the functionals or basis sets would not do anything.
Hence, in our opinion, the algorithm design and method developments papers are equally worthy of getting cited

  1. Neese,F.
     An improvement of the resolution of the identity approximation for the formation of the Coulomb matrix
     J. Comp. Chem., 2003 24(14)1740-1747
     doi.org/10.1002/jcc.10318
  2. Neese,F.
     The SHARK Integral Generation and Digestion System
     J. Comp. Chem., 2022  1-16
     doi.org/10.1002/jcc.26942
  3. Caldeweyher,E.; Bannwarth,C.; Grimme,S.
     Extension of the D3 dispersion coefficient model
     J. Chem. Phys., 2017 147 034112
     doi.org/10.1063/1.4993215
  4. Caldeweyher,E.; Ehlert,S.; Hansen,A.; Neugebauer,H.; Spicher,S.; Bannwarth,C.; Grimme,S.
     A generally applicable atomic-charge dependent London dispersion correction
     J. Chem. Phys., 2019 150 154122
     doi.org/10.1063/1.5090222
  5. Caldeweyher,E.; Mewes,J.; Ehlert,S.; Grimme,S.
     Extension and evaluation of the D4 London-dispersion model for periodic systems
     Phys. Chem. Chem. Phys., 2020 22(16)8499-8512
     doi.org/10.1039/D0CP00502A
  6. Wittmann,L.; Gordiy,I.; Friede,M.; Helmich-Paris,B.; Grimme,S.; Hansen,A.; Bursch,M.
     Extension of the D3 and D4 London Dispersion Corrections to the full Actinides Series
     Phys. Chem. Chem. Phys., 2024 26(32)21379-21394
     doi.org/https://doi.org/10.1039/D4CP01514B 

List of suggested additional citations. These are papers that are important in the 'surrounding' of 
of this run, or papers that preceded the highly important papers. If you like your results we are grateful for a citation.

  1. Neese,F.
     The ORCA program system
     WIRES Comput. Molec. Sci., 2012 2(1)73-78
     doi.org/10.1002/wcms.81
  2. Neese,F.
     Software update: the ORCA program system, version 4.0
     WIRES Comput. Molec. Sci., 2018 8(1)1-6
     doi.org/10.1002/wcms.1327
  3. Neese,F.; Wennmohs,F.; Becker,U.; Riplinger,C.
     The ORCA quantum chemistry program package
     J. Chem. Phys., 2020 152 Art. No. L224108
     doi.org/10.1063/5.0004608

List of optional additional citations

  1. Neese,F.
     Approximate second-order SCF convergence for spin unrestricted wavefunctions
     Chem. Phys. Lett., 2000 325(1-3)93-98
     doi.org/10.1016/s0009-2614(00)00662-x

Timings for individual modules:

Sum of individual times          ...        1.173 sec (=   0.020 min)
Startup calculation              ...        0.283 sec (=   0.005 min)  24.1 %
SCF iterations                   ...        0.832 sec (=   0.014 min)  70.9 %
Property calculations            ...        0.058 sec (=   0.001 min)   5.0 %
                             ****ORCA TERMINATED NORMALLY****
TOTAL RUN TIME: 0 days 0 hours 0 minutes 1 seconds 332 msec
